<event>
12    1  0.2625820E-002  0.2164136E+03  0.7818608E-02  0.1136585E+00
          2   -1    0    0  502    0  0.00000000000E+00  0.00000000000E+00  0.31146238765E+03  0.31146238765E+03  0.00000000000E+00 0.  1.
         -2   -1    0    0    0  501 -0.00000000000E+00 -0.00000000000E+00 -0.15085849350E+03  0.15085849350E+03  0.00000000000E+00 0. -1.
          6    2    1    2  502    0  0.85086863939E+02  0.10011941477E+03  0.93479093542E+02  0.23582248309E+03  0.17207623593E+03 0.  0.
         24    2    3    3    0    0 -0.32159982506E+01  0.90379294088E+02  0.23540870991E+02  0.12266016429E+03  0.79451770610E+02 0.  0.
         -6    2    1    2    0  501 -0.85086863939E+02 -0.10011941477E+03  0.67124800607E+02  0.22649839805E+03  0.17184910193E+03 0.  0.
        -24    2    5    5    0    0 -0.12172316611E+02 -0.99764721249E+02  0.23040004524E+01  0.12882300119E+03  0.80553661121E+02 0.  0.
          5    1    3    3  502    0  0.88302862190E+02  0.97401206791E+01  0.69938222550E+02  0.11316231880E+03  0.47000000000E+01 0. -1.
        -13    1    4    4    0    0 -0.93535084388E+01  0.26915784089E+02  0.46798673005E+02  0.54791088220E+02  0.00000000000E+00 0.  1.
         14    1    4    4    0    0  0.61375101881E+01  0.63463509999E+02 -0.23257802014E+02  0.67869076074E+02  0.00000000000E+00 0. -1.
         -5    1    5    5    0  501 -0.72914547328E+02 -0.35469351837E+00  0.64820800155E+02  0.97675396863E+02  0.47000000000E+01 0.  1.
         11    1    6    6    0    0  0.29047985377E+02 -0.36001632676E+02  0.20731561489E+02  0.50692214901E+02  0.00000000000E+00 0. -1.
        -12    1    6    6    0    0 -0.41220301989E+02 -0.63763088573E+02 -0.18427561036E+02  0.78130786289E+02  0.00000000000E+00 0.  1.
</event>
<event>
12    1  0.2625820E-002  0.1849773E+03  0.7818608E-02  0.1163071E+00
         -1   -1    0    0    0  501 -0.00000000000E+00  0.00000000000E+00  0.57923893956E+02  0.57923893956E+02  0.00000000000E+00 0. -1.
          1   -1    0    0  502    0  0.00000000000E+00 -0.00000000000E+00 -0.67113751083E+03  0.67113751083E+03  0.00000000000E+00 0.  1.
          6    2    1    2  502    0  0.24701347761E+02  0.63941244760E+02 -0.43388530253E+03  0.47196742604E+03  0.17262142432E+03 0.  0.
         24    2    3    3    0    0 -0.25619073849E+02  0.13720621696E+02 -0.11571862075E+03  0.14592082937E+03  0.84008909347E+02 0.  0.
         -6    2    1    2    0  501 -0.24701347761E+02 -0.63941244760E+02 -0.17932831435E+03  0.25709397875E+03  0.17099716436E+03 0.  0.
        -24    2    5    5    0    0 -0.34141353332E+02  0.14803368728E+02 -0.13891328624E+03  0.16795760932E+03  0.86764541715E+02 0.  0.
          5    1    3    3  502    0  0.50320421610E+02  0.50220623064E+02 -0.31816668178E+03  0.32604659668E+03  0.47000000000E+01 0. -1.
        -13    1    4    4    0    0  0.46217988103E+01  0.43154944661E+02 -0.78280073059E+02  0.89506871865E+02  0.00000000000E+00 0.  1.
         14    1    4    4    0    0 -0.30240872659E+02 -0.29434322965E+02 -0.37438547693E+02  0.56413957502E+02  0.00000000000E+00 0. -1.
         -5    1    5    5    0  501  0.94400055713E+01 -0.78744613488E+02 -0.40415028105E+02  0.89136369431E+02  0.47000000000E+01 0.  1.
         13    1    6    6    0    0  0.24019949291E+02 -0.13941430237E+02 -0.27832579661E+02  0.39318875004E+02  0.00000000000E+00 0. -1.
        -14    1    6    6    0    0 -0.58161302624E+02  0.28744798965E+02 -0.11108070658E+03  0.12863873431E+03  0.00000000000E+00 0.  1.
</event>
<event>
12    1  0.2625820E-002  0.2183722E+03  0.7818608E-02  0.1135103E+00
         -1   -1    0    0    0  501 -0.00000000000E+00  0.00000000000E+00  0.37663701774E+02  0.37663701774E+02  0.00000000000E+00 0. -1.
          1   -1    0    0  502    0  0.00000000000E+00 -0.00000000000E+00 -0.14348040154E+04  0.14348040154E+04  0.00000000000E+00 0.  1.
          6    2    1    2  502    0  0.13367665681E+03  0.18714578593E+02 -0.95128526091E+03  0.97604901352E+03  0.17177993232E+03 0.  0.
         24    2    3    3    0    0  0.74850184206E+02  0.72981630422E+02 -0.45820532611E+03  0.47649383250E+03  0.78519953342E+02 0.  0.
         -6    2    1    2    0  501 -0.13367665681E+03 -0.18714578593E+02 -0.44585505272E+03  0.49641870365E+03  0.17153750981E+03 0.  0.
        -24    2    5    5    0    0 -0.10236827306E+03  0.22224923765E+02 -0.16522241578E+03  0.21105398148E+03  0.79196754076E+02 0.  0.
          5    1    3    3  502    0  0.58826472608E+02 -0.54267051829E+02 -0.49307993479E+03  0.49955518103E+03  0.47000000000E+01 0. -1.
        -13    1    4    4    0    0  0.76719092578E+02  0.26143150037E+02 -0.33518545191E+03  0.34484572004E+03  0.00000000000E+00 0.  1.
         14    1    4    4    0    0 -0.18689083718E+01  0.46838480385E+02 -0.12301987421E+03  0.13164811245E+03  0.00000000000E+00 0. -1.
         -5    1    5    5    0  501 -0.31308383758E+02 -0.40939502358E+02 -0.28063263693E+03  0.28536472217E+03  0.47000000000E+01 0.  1.
         13    1    6    6    0    0 -0.89696542964E+02  0.13975720736E+02 -0.17199863339E+03  0.19448475642E+03  0.00000000000E+00 0. -1.
        -14    1    6    6    0    0 -0.12671730094E+02  0.82492030291E+01  0.67762176071E+01  0.16569225065E+02  0.00000000000E+00 0.  1.
</event>
<event>
12    1  0.2625820E-002  0.2120982E+03  0.7818608E-02  0.1139915E+00
         -1   -1    0    0    0  501 -0.00000000000E+00  0.00000000000E+00  0.24279510453E+03  0.24279510453E+03  0.00000000000E+00 0. -1.
          1   -1    0    0  502    0  0.00000000000E+00 -0.00000000000E+00 -0.18584208177E+03  0.18584208177E+03  0.00000000000E+00 0.  1.
          6    2    1    2  502    0  0.11396609225E+03  0.47273351407E+02  0.40329607910E+02  0.21691332096E+03  0.17378685681E+03 0.  0.
         24    2    3    3    0    0  0.10103348722E+03  0.10820073665E+02  0.87311215042E+02  0.15587681434E+03  0.79683708773E+02 0.  0.
         -6    2    1    2    0  501 -0.11396609225E+03 -0.47273351407E+02  0.16623414850E+02  0.21172386534E+03  0.17125307968E+03 0.  0.
        -24    2    5    5    0    0 -0.33432867053E+02 -0.79412072747E+02  0.25768803374E+02  0.12440705195E+03  0.85959580331E+02 0.  0.
          5    1    3    3  502    0  0.12932605030E+02  0.36453277742E+02 -0.46981607132E+02  0.61036506615E+02  0.47000000000E+01 0. -1.
        -13    1    4    4    0    0  0.10564541097E+03 -0.53363364102E+01  0.54455041547E+02  0.11897386644E+03  0.00000000000E+00 0.  1.
         14    1    4    4    0    0 -0.46119237539E+01  0.16156410075E+02  0.32856173495E+02  0.36902947903E+02  0.00000000000E+00 0. -1.
         -5    1    5    5    0  501 -0.80533225192E+02  0.32138721340E+02 -0.91453885241E+01  0.87316813389E+02  0.47000000000E+01 0.  1.
         13    1    6    6    0    0 -0.51098349958E+02 -0.72291010461E+02 -0.45032589270E+01  0.88641473944E+02  0.00000000000E+00 0. -1.
        -14    1    6    6    0    0  0.17665482905E+02 -0.71210622859E+01  0.30272062301E+02  0.35765578008E+02  0.00000000000E+00 0.  1.
</event>
<event>
12    1  0.2625820E-002  0.3535493E+03  0.7818608E-02  0.1061168E+00
          1   -1    0    0  502    0  0.00000000000E+00  0.00000000000E+00  0.13433495108E+04  0.13433495108E+04  0.00000000000E+00 0.  1.
         -1   -1    0    0    0  501 -0.00000000000E+00 -0.00000000000E+00 -0.10326913855E+03  0.10326913855E+03  0.00000000000E+00 0. -1.
          6    2    1    2  502    0 -0.92731128957E+02 -0.29220624498E+03  0.84230795257E+03  0.91224061560E+03  0.16946003042E+03 0.  0.
         24    2    3    3    0    0 -0.12275526915E+01 -0.18063173008E+03  0.38523075785E+03  0.43290416928E+03  0.79837047706E+02 0.  0.
         -6    2    1    2    0  501  0.92731128957E+02  0.29220624498E+03  0.39777241971E+03  0.53437803377E+03  0.18262922332E+03 0.  0.
        -24    2    5    5    0    0  0.89898206114E+02  0.22075739421E+03  0.19220024580E+03  0.31667416973E+03  0.80784161395E+02 0.  0.
          5    1    3    3  502    0 -0.91503576265E+02 -0.11157451490E+03  0.45707719472E+03  0.47933644633E+03  0.47000000000E+01 0. -1.
        -11    1    4    4    0    0 -0.17687964394E+02 -0.64897043812E+02  0.22313460905E+03  0.23305266387E+03  0.00000000000E+00 0.  1.
         12    1    4    4    0    0  0.16460411703E+02 -0.11573468626E+03  0.16209614880E+03  0.19985150541E+03  0.00000000000E+00 0. -1.
         -5    1    5    5    0  501  0.28329228424E+01  0.71448850773E+02  0.20557217392E+03  0.21770386404E+03  0.47000000000E+01 0.  1.
         11    1    6    6    0    0  0.91242625420E+02  0.14812505348E+03  0.16293209749E+03  0.23835502209E+03  0.00000000000E+00 0. -1.
        -12    1    6    6    0    0 -0.13444193056E+01  0.72632340726E+02  0.29268148309E+02  0.78319147646E+02  0.00000000000E+00 0.  1.
</event>
<event>
12    1  0.2625820E-002  0.2017721E+03  0.7818608E-02  0.1148252E+00
          2   -1    0    0  502    0  0.00000000000E+00  0.00000000000E+00  0.97942589628E+03  0.97942589628E+03  0.00000000000E+00 0. -1.
         -2   -1    0    0    0  501 -0.00000000000E+00 -0.00000000000E+00 -0.45449336499E+02  0.45449336499E+02  0.00000000000E+00 0.  1.
          6    2    1    2  502    0  0.38179063216E+02 -0.97674146429E+02  0.61614079219E+03  0.64824756849E+03  0.17203939812E+03 0.  0.
         24    2    3    3    0    0  0.89476119241E+02 -0.58943448364E+02  0.46873284565E+03  0.48736671932E+03  0.79596058205E+02 0.  0.
         -6    2    1    2    0  501 -0.38179063216E+02  0.97674146429E+02  0.31783576759E+03  0.37662766429E+03  0.17271636459E+03 0.  0.
        -24    2    5    5    0    0 -0.35893068700E+02  0.92193229178E+02  0.33463532203E+03  0.35819993372E+03  0.80860929243E+02 0.  0.
          5    1    3    3  502    0 -0.51297056025E+02 -0.38730698065E+02  0.14740794653E+03  0.16088084917E+03  0.47000000000E+01 0. -1.
        -11    1    4    4    0    0  0.59526197597E+01 -0.21164859863E+02  0.21201487954E+02  0.30543216374E+02  0.00000000000E+00 0.  1.
         12    1    4    4    0    0  0.83523499482E+02 -0.37778588501E+02  0.44753135770E+03  0.45682350294E+03  0.00000000000E+00 0. -1.
         -5    1    5    5    0  501 -0.22859945165E+01  0.54809172505E+01 -0.16799554436E+02  0.18427730574E+02  0.47000000000E+01 0.  1.
         13    1    6    6    0    0  0.98302906068E+01  0.18847257421E+01  0.12505663474E+03  0.12545656100E+03  0.00000000000E+00 0. -1.
        -14    1    6    6    0    0 -0.45723359307E+02  0.90308503436E+02  0.20957868728E+03  0.23274337272E+03  0.00000000000E+00 0.  1.
</event>
<event>
12    1  0.2625820E-002  0.1914234E+03  0.7818608E-02  0.1157184E+00
          2   -1    0    0  502    0  0.00000000000E+00  0.00000000000E+00  0.13518399687E+03  0.13518399687E+03  0.00000000000E+00 0.  1.
         -2   -1    0    0    0  501 -0.00000000000E+00 -0.00000000000E+00 -0.27226095830E+03  0.27226095830E+03  0.00000000000E+00 0. -1.
          6    2    1    2  502    0  0.64711224591E+02 -0.50398239832E+02 -0.56544951663E+02  0.20263923888E+03  0.17645907290E+03 0.  0.
         24    2    3    3    0    0 -0.22639672107E+02  0.14202368686E+02 -0.35251185887E+02  0.91828895335E+02  0.80471348209E+02 0.  0.
         -6    2    1    2    0  501 -0.64711224591E+02  0.50398239832E+02 -0.80532009765E+02  0.20480571629E+03  0.16950649445E+03 0.  0.
        -24    2    5    5    0    0 -0.37941062892E+01  0.27501722911E+02 -0.10551708721E+03  0.13493805650E+03  0.79395739129E+02 0.  0.
          5    1    3    3  502    0  0.87350896698E+02 -0.64600608519E+02 -0.21293765776E+02  0.11081034354E+03  0.47000000000E+01 0. -1.
        -11    1    4    4    0    0  0.11616677862E+02 -0.66064944115E+01  0.19704930764E+02  0.23809184559E+02  0.00000000000E+00 0.  1.
         12    1    4    4    0    0 -0.34256349969E+02  0.20808863098E+02 -0.54956116651E+02  0.68019710776E+02  0.00000000000E+00 0. -1.
         -5    1    5    5    0  501 -0.60917118302E+02  0.22896516922E+02  0.24985077447E+02  0.69867659789E+02  0.47000000000E+01 0.  1.
         11    1    6    6    0    0 -0.10311277327E+02 -0.15481337290E+02 -0.84733584757E+02  0.86751222643E+02  0.00000000000E+00 0. -1.
        -12    1    6    6    0    0  0.65171710375E+01  0.42983060200E+02 -0.20783502455E+02  0.48186833853E+02  0.00000000000E+00 0.  1.
</event>
<event>
12    1  0.2625820E-002  0.3522012E+03  0.7818608E-02  0.1061715E+00
         -1   -1    0    0    0  501 -0.00000000000E+00  0.00000000000E+00  0.58313160155E+03  0.58313160155E+03  0.00000000000E+00 0. -1.
          1   -1    0    0  502    0  0.00000000000E+00 -0.00000000000E+00 -0.21293582986E+03  0.21293582986E+03  0.00000000000E+00 0.  1.
          6    2    1    2  502    0 -0.21521399502E+02  0.30630849314E+03  0.17300140090E+03  0.39315475766E+03  0.17422145433E+03 0.  0.
         24    2    3    3    0    0  0.16887492742E+02  0.55493003657E+02  0.46802838001E+02  0.10972607166E+03  0.80527289110E+02 0.  0.
         -6    2    1    2    0  501  0.21521399502E+02 -0.30630849314E+03  0.19719437079E+03  0.40291267376E+03  0.17077745518E+03 0.  0.
        -24    2    5    5    0    0  0.58762318087E+02 -0.29417715337E+03  0.16533045330E+03  0.35220316124E+03  0.81973778790E+02 0.  0.
          5    1    3    3  502    0 -0.38408892244E+02  0.25081548948E+03  0.12619856290E+03  0.28342868600E+03  0.47000000000E+01 0. -1.
        -13    1    4    4    0    0  0.18604577772E+02  0.70302921824E+02  0.56369405236E+02  0.92011635013E+02  0.00000000000E+00 0.  1.
         14    1    4    4    0    0 -0.17170850301E+01 -0.14809918167E+02 -0.95665672358E+01  0.17714436649E+02  0.00000000000E+00 0. -1.
         -5    1    5    5    0  501 -0.37240918585E+02 -0.12131339772E+02  0.31863917493E+02  0.50709512518E+02  0.47000000000E+01 0.  1.
         13    1    6    6    0    0 -0.91135583396E+00 -0.18891139472E+03  0.11489802250E+03  0.22111060852E+03  0.00000000000E+00 0. -1.
        -14    1    6    6    0    0  0.59673673921E+02 -0.10526575865E+03  0.50432430794E+02  0.13109255272E+03  0.00000000000E+00 0.  1.
</event>
<event>
12    1  0.2625820E-002  0.2005285E+03  0.7818608E-02  0.1149294E+00
         -2   -1    0    0    0  501 -0.00000000000E+00  0.00000000000E+00  0.25496027304E+02  0.25496027304E+02  0.00000000000E+00 0.  1.
          2   -1    0    0  502    0  0.00000000000E+00 -0.00000000000E+00 -0.15951992248E+04  0.15951992248E+04  0.00000000000E+00 0. -1.
          6    2    1    2  502    0  0.97223780268E+02 -0.34874462253E+02 -0.87030139444E+03  0.89306500276E+03  0.17167379072E+03 0.  0.
         24    2    3    3    0    0  0.11961437247E+03 -0.51059685250E+02 -0.52582612839E+03  0.54745163643E+03  0.79344107391E+02 0.  0.
         -6    2    1    2    0  501 -0.97223780268E+02  0.34874462253E+02 -0.69940180303E+03  0.72763024932E+03  0.17208778596E+03 0.  0.
        -24    2    5    5    0    0 -0.63491035127E+02  0.53585623651E+02 -0.20654283688E+03  0.23324168132E+03  0.69564415003E+02 0.  0.
          5    1    3    3  502    0 -0.22390592197E+02  0.16185222998E+02 -0.34447526606E+03  0.34561336633E+03  0.47000000000E+01 0. -1.
        -11    1    4    4    0    0  0.34762347227E+02 -0.12310325083E+02 -0.47605842541E+02  0.60218611179E+02  0.00000000000E+00 0.  1.
         12    1    4    4    0    0  0.84852025239E+02 -0.38749360167E+02 -0.47822028584E+03  0.48723302525E+03  0.00000000000E+00 0. -1.
         -5    1    5    5    0  501 -0.33732745141E+02 -0.18711161398E+02 -0.49285896615E+03  0.49438856800E+03  0.47000000000E+01 0.  1.
         13    1    6    6    0    0 -0.48756920814E+01  0.45915137384E+02 -0.11865674277E+03  0.12732397583E+03  0.00000000000E+00 0. -1.
        -14    1    6    6    0    0 -0.58615343046E+02  0.76704862670E+01 -0.87886094108E+02  0.10591770550E+03  0.00000000000E+00 0.  1.
</event>
<event>
12    1  0.2625820E-002  0.1715286E+03  0.7818608E-02  0.1176263E+00
          2   -1    0    0  502    0  0.00000000000E+00  0.00000000000E+00  0.31713633576E+04  0.31713633576E+04  0.00000000000E+00 0. -1.
         -2   -1    0    0    0  501 -0.00000000000E+00 -0.00000000000E+00 -0.10078494604E+02  0.10078494604E+02  0.00000000000E+00 0.  1.
          6    2    1    2  502    0  0.13514615607E+02 -0.16916582985E+02  0.11256173002E+04  0.11384946700E+04  0.16937234566E+03 0.  0.
         24    2    3    3    0    0 -0.23750404273E+02 -0.11523050522E+02  0.10536166570E+04  0.10571069896E+04  0.81671691167E+02 0.  0.
         -6    2    1    2    0  501 -0.13514615607E+02  0.16916582985E+02  0.20356675628E+04  0.20429471822E+04  0.17094428178E+03 0.  0.
        -24    2    5    5    0    0  0.36135727073E+02 -0.36193944659E+02  0.14049919447E+04  0.14080773452E+04  0.77869461411E+02 0.  0.
          5    1    3    3  502    0  0.37265019881E+02 -0.53935324637E+01  0.72000643172E+02  0.81387680372E+02  0.47000000000E+01 0. -1.
        -11    1    4    4    0    0 -0.59879792825E+01 -0.32982586924E+02  0.18300814236E+03  0.18605291481E+03  0.00000000000E+00 0.  1.
         12    1    4    4    0    0 -0.17762424991E+02  0.21459536402E+02  0.87060851465E+03  0.87105407480E+03  0.00000000000E+00 0. -1.
         -5    1    5    5    0  501 -0.49650342680E+02  0.53110527644E+02  0.63067561811E+03  0.63486983702E+03  0.47000000000E+01 0.  1.
         11    1    6    6    0    0  0.47448506195E+01  0.16308208286E+02  0.85632928923E+02  0.87301029667E+02  0.00000000000E+00 0. -1.
        -12    1    6    6    0    0  0.31390876453E+02 -0.52502152945E+02  0.13193590157E+04  0.13207763155E+04  0.00000000000E+00 0.  1.
</event>
<event>
12    1  0.2625820E-002  0.2380648E+03  0.7818608E-02  0.1121089E+00
          2   -1    0    0  502    0  0.00000000000E+00  0.00000000000E+00  0.25286694690E+04  0.25286694690E+04  0.00000000000E+00 0.  1.
         -2   -1    0    0    0  501 -0.00000000000E+00 -0.00000000000E+00 -0.38494110679E+02  0.38494110679E+02  0.00000000000E+00 0. -1.
          6    2    1    2  502    0 -0.16542680644E+03 -0.13410279759E+02  0.20615117796E+04  0.20747331260E+04  0.16474484055E+03 0.  0.
         24    2    3    3    0    0 -0.11633878766E+03 -0.55180300482E+02  0.17558055402E+04  0.17622707073E+04  0.78519882089E+02 0.  0.
         -6    2    1    2    0  501  0.16542680644E+03  0.13410279759E+02  0.42866357871E+03  0.49243045374E+03  0.17660527786E+03 0.  0.
        -24    2    5    5    0    0  0.13805338592E+03 -0.28223376036E+02  0.40588149102E+03  0.43744155518E+03  0.82219420597E+02 0.  0.
          5    1    3    3  502    0 -0.49088018779E+02  0.41770020724E+02  0.30570623945E+03  0.31246241864E+03  0.47000000000E+01 0. -1.
        -11    1    4    4    0    0 -0.84045955611E+02 -0.59942555128E+02  0.91020602838E+03  0.91604140008E+03  0.00000000000E+00 0.  1.
         12    1    4    4    0    0 -0.32292832047E+02  0.47622546454E+01  0.84559951180E+03  0.84622930724E+03  0.00000000000E+00 0. -1.
         -5    1    5    5    0  501  0.27373420523E+02  0.41633655795E+02  0.22782087685E+02  0.54988898564E+02  0.47000000000E+01 0.  1.
         11    1    6    6    0    0  0.10966677957E+03 -0.97753017426E+01  0.19565574288E+03  0.22450730230E+03  0.00000000000E+00 0. -1.
        -12    1    6    6    0    0  0.28386606345E+02 -0.18448074294E+02  0.21022574814E+03  0.21293425287E+03  0.00000000000E+00 0.  1.
</event>
<event>
12    1  0.2625820E-002  0.1774959E+03  0.7818608E-02  0.1170249E+00
          2   -1    0    0  502    0  0.00000000000E+00  0.00000000000E+00  0.45179800181E+03  0.45179800181E+03  0.00000000000E+00 0.  1.
         -2   -1    0    0    0  501 -0.00000000000E+00 -0.00000000000E+00 -0.70193191000E+02  0.70193191000E+02  0.00000000000E+00 0. -1.
          6    2    1    2  502    0 -0.40162380973E+02  0.94329770993E+01  0.21239760492E+03  0.27706894277E+03  0.17306778605E+03 0.  0.
         24    2    3    3    0    0 -0.90849472058E+02 -0.15788440092E+02  0.11285592672E+03  0.16245682828E+03  0.71783420408E+02 0.  0.
         -6    2    1    2    0  501  0.40162380973E+02 -0.94329770993E+01  0.16920720589E+03  0.24492225004E+03  0.17220288075E+03 0.  0.
        -24    2    5    5    0    0 -0.29362698656E+02 -0.47016204259E+02  0.94125233368E+02  0.13580933486E+03  0.80696495240E+02 0.  0.
          5    1    3    3  502    0  0.50687091085E+02  0.25221417191E+02  0.99541678203E+02  0.11461211449E+03  0.47000000000E+01 0. -1.
        -11    1    4    4    0    0 -0.60756850922E+02 -0.50999044584E+01  0.11530088024E+03  0.13042889612E+03  0.00000000000E+00 0.  1.
         12    1    4    4    0    0 -0.30092621136E+02 -0.10688535633E+02 -0.24449535178E+01  0.32027932162E+02  0.00000000000E+00 0. -1.
         -5    1    5    5    0  501  0.69525079629E+02  0.37583227160E+02  0.75081972517E+02  0.10911291518E+03  0.47000000000E+01 0.  1.
         13    1    6    6    0    0  0.82429522801E+01 -0.47161815544E+02  0.84290795281E+02  0.96938750130E+02  0.00000000000E+00 0. -1.
        -14    1    6    6    0    0 -0.37605650936E+02  0.14561128482E+00  0.98344380870E+01  0.38870584733E+02  0.00000000000E+00 0.  1.
</event>
<event>
12    1  0.2625820E-002  0.1915025E+03  0.7818608E-02  0.1157113E+00
          1   -1    0    0  502    0  0.00000000000E+00  0.00000000000E+00  0.32708545906E+02  0.32708545906E+02  0.00000000000E+00 0.  1.
         -1   -1    0    0    0  501 -0.00000000000E+00 -0.00000000000E+00 -0.11712275631E+04  0.11712275631E+04  0.00000000000E+00 0. -1.
          6    2    1    2  502    0 -0.24678513218E+02 -0.83089173207E+02 -0.69562903406E+03  0.72169389685E+03  0.17155024921E+03 0.  0.
         24    2    3    3    0    0 -0.47577353182E+02 -0.11696893900E+03 -0.57350654870E+03  0.59282114243E+03  0.81128344510E+02 0.  0.
         -6    2    1    2    0  501  0.24678513218E+02  0.83089173207E+02 -0.44288998316E+03  0.48224221218E+03  0.16997992325E+03 0.  0.
        -24    2    5    5    0    0 -0.34405019386E+02  0.96421541086E+02 -0.29446256449E+03  0.32186327195E+03  0.80043394462E+02 0.  0.
          5    1    3    3  502    0  0.22898839963E+02  0.33879765791E+02 -0.12212248536E+03  0.12887275442E+03  0.47000000000E+01 0. -1.
        -13    1    4    4    0    0 -0.57637055123E+02 -0.66800980902E+02 -0.24603562808E+03  0.26137699106E+03  0.00000000000E+00 0.  1.
         14    1    4    4    0    0  0.10059701941E+02 -0.50167958096E+02 -0.32747092062E+03  0.33144415136E+03  0.00000000000E+00 0. -1.
         -5    1    5    5    0  501  0.59083532604E+02 -0.13332367879E+02 -0.14842741866E+03  0.16037894023E+03  0.47000000000E+01 0.  1.
         11    1    6    6    0    0  0.82320260818E+01  0.27874855328E+02 -0.17678766333E+03  0.17916096595E+03  0.00000000000E+00 0. -1.
        -12    1    6    6    0    0 -0.42637045468E+02  0.68546685758E+02 -0.11767490116E+03  0.14270230600E+03  0.00000000000E+00 0.  1.
</event>
<event>
12    1  0.2625820E-002  0.1806737E+03  0.7818608E-02  0.1167153E+00
          1   -1    0    0  502    0  0.00000000000E+00  0.00000000000E+00  0.29652813381E+03  0.29652813381E+03  0.00000000000E+00 0. -1.
         -1   -1    0    0    0  501 -0.00000000000E+00 -0.00000000000E+00 -0.12105817502E+03  0.12105817502E+03  0.00000000000E+00 0.  1.
          6    2    1    2  502    0  0.55082703404E+02 -0.55872914509E+01  0.24931454943E+02  0.18252259463E+03  0.17212669190E+03 0.  0.
         24    2    3    3    0    0  0.85492957722E+02  0.22264161248E+02 -0.20580460514E+02  0.12092785919E+03  0.79970326235E+02 0.  0.
         -6    2    1    2    0  501 -0.55082703404E+02  0.55872914509E+01  0.15053850385E+03  0.23506371420E+03  0.17183651111E+03 0.  0.
        -24    2    5    5    0    0 -0.83116782432E+02  0.24805685841E+02  0.16029333742E+03  0.19939155351E+03  0.80866037491E+02 0.  0.
          5    1    3    3  502    0 -0.30410254318E+02 -0.27851452699E+02  0.45511915458E+02  0.61594735438E+02  0.47000000000E+01 0. -1.
        -13    1    4    4    0    0  0.23708519357E+02 -0.29993522036E+02 -0.73580510147E+01  0.38933869175E+02  0.00000000000E+00 0.  1.
         14    1    4    4    0    0  0.61784438365E+02  0.52257683284E+02 -0.13222409500E+02  0.81993990019E+02  0.00000000000E+00 0. -1.
         -5    1    5    5    0  501  0.28034079029E+02 -0.19218394390E+02 -0.97548335706E+01  0.35672160684E+02  0.47000000000E+01 0.  1.
         11    1    6    6    0    0  0.16930839347E+01  0.30840945677E+02  0.25647234234E+02  0.40147367128E+02  0.00000000000E+00 0. -1.
        -12    1    6    6    0    0 -0.84809866367E+02 -0.60352598365E+01  0.13464610318E+03  0.15924418638E+03  0.00000000000E+00 0.  1.
</event>
<event>
12    1  0.2625820E-002  0.1984567E+03  0.7818608E-02  0.1151048E+00
         -2   -1    0    0    0  501 -0.00000000000E+00  0.00000000000E+00  0.51425948088E+02  0.51425948088E+02  0.00000000000E+00 0.  1.
          2   -1    0    0  502    0  0.00000000000E+00 -0.00000000000E+00 -0.78166959326E+03  0.78166959326E+03  0.00000000000E+00 0. -1.
          6    2    1    2  502    0 -0.83825253266E+02  0.55604015624E+02 -0.30638940170E+03  0.36519991201E+03  0.17140020601E+03 0.  0.
         24    2    3    3    0    0 -0.22402611933E+02  0.79597342331E+02 -0.25852031420E+03  0.28357908052E+03  0.82138469236E+02 0.  0.
         -6    2    1    2    0  501  0.83825253266E+02 -0.55604015624E+02 -0.42385424347E+03  0.46789562934E+03  0.17074958450E+03 0.  0.
        -24    2    5    5    0    0  0.10373508240E+03 -0.87987184009E+02 -0.36961266033E+03  0.40149299210E+03  0.77976869370E+02 0.  0.
          5    1    3    3  502    0 -0.61422641333E+02 -0.23993326707E+02 -0.47869087503E+02  0.81620831491E+02  0.47000000000E+01 0. -1.
        -13    1    4    4    0    0 -0.47443894458E+02  0.19988400654E+02 -0.10283805957E+03  0.11500489459E+03  0.00000000000E+00 0.  1.
         14    1    4    4    0    0  0.25041282525E+02  0.59608941678E+02 -0.15568225462E+03  0.16857418593E+03  0.00000000000E+00 0. -1.
         -5    1    5    5    0  501 -0.19909829133E+02  0.32383168385E+02 -0.54241583140E+02  0.66402637239E+02  0.47000000000E+01 0.  1.
         11    1    6    6    0    0 -0.36426489595E+01 -0.35636071325E+02 -0.11066957956E+03  0.11632263026E+03  0.00000000000E+00 0. -1.
        -12    1    6    6    0    0  0.10737773136E+03 -0.52351112684E+02 -0.25894308078E+03  0.28517036184E+03  0.00000000000E+00 0.  1.
</event>
<event>
12    1  0.2625820E-002  0.1779359E+03  0.7818608E-02  0.1169816E+00
          1   -1    0    0  502    0  0.00000000000E+00  0.00000000000E+00  0.15757906611E+03  0.15757906611E+03  0.00000000000E+00 0.  1.
         -1   -1    0    0    0  501 -0.00000000000E+00 -0.00000000000E+00 -0.25308630064E+03  0.25308630064E+03  0.00000000000E+00 0. -1.
          6    2    1    2  502    0 -0.46751183626E+02 -0.12908332689E+02 -0.14110358783E+03  0.22758291532E+03  0.17184720721E+03 0.  0.
         24    2    3    3    0    0 -0.46119779158E+02 -0.37909650726E+02 -0.17502992270E+02  0.10138996069E+03  0.80058689364E+02 0.  0.
         -6    2    1    2    0  501  0.46751183626E+02  0.12908332689E+02  0.45596353303E+02  0.18308245143E+03  0.17055162961E+03 0.  0.
        -24    2    5    5    0    0  0.49848705155E+02  0.33881485730E+02  0.89018864789E+02  0.13453276253E+03  0.80881749648E+02 0.  0.
          5    1    3    3  502    0 -0.63140446797E+00  0.25001318036E+02 -0.12360059556E+03  0.12619295463E+03  0.47000000000E+01 0. -1.
        -13    1    4    4    0    0  0.22153196324E+02 -0.19774670193E+01  0.16330157436E+00  0.22241878306E+02  0.00000000000E+00 0.  1.
         14    1    4    4    0    0 -0.68272975482E+02 -0.35932183706E+02 -0.17666293844E+02  0.79148082385E+02  0.00000000000E+00 0. -1.
         -5    1    5    5    0  501 -0.30975215288E+01 -0.20973153040E+02 -0.43422511486E+02  0.48549688895E+02  0.47000000000E+01 0.  1.
         13    1    6    6    0    0  0.69354779545E+02  0.28775217964E+02  0.85963078251E+02  0.11413916697E+03  0.00000000000E+00 0. -1.
        -14    1    6    6    0    0 -0.19506074390E+02  0.51062677658E+01  0.30557865379E+01  0.20393595563E+02  0.00000000000E+00 0.  1.
</event>
<event>
12    1  0.2625820E-002  0.1747890E+03  0.7818608E-02  0.1172944E+00
          2   -1    0    0  502    0  0.00000000000E+00  0.00000000000E+00  0.23444948345E+04  0.23444948345E+04  0.00000000000E+00 0.  1.
         -2   -1    0    0    0  501 -0.00000000000E+00 -0.00000000000E+00 -0.14181002759E+02  0.14181002759E+02  0.00000000000E+00 0. -1.
          6    2    1    2  502    0 -0.11681007194E+02 -0.23298273612E+02  0.15071514332E+04  0.15173707832E+04  0.17386602757E+03 0.  0.
         24    2    3    3    0    0 -0.71881055492E+02 -0.14303737631E+01  0.11085186042E+04  0.11135979842E+04  0.78217915960E+02 0.  0.
         -6    2    1    2    0  501  0.11681007194E+02  0.23298273612E+02  0.82316239845E+03  0.84130505400E+03  0.17180979069E+03 0.  0.
        -24    2    5    5    0    0  0.34287819516E+02 -0.94012879471E+00  0.21466478025E+03  0.23188729131E+03  0.80710653483E+02 0.  0.
          5    1    3    3  502    0  0.60200048298E+02 -0.21867899849E+02  0.39863282905E+03  0.40377279906E+03  0.47000000000E+01 0. -1.
        -11    1    4    4    0    0  0.16123476746E+02 -0.71210636222E+01  0.15037683629E+03  0.15140630417E+03  0.00000000000E+00 0.  1.
         12    1    4    4    0    0 -0.88004532237E+02  0.56906898591E+01  0.95814176790E+03  0.96219167999E+03  0.00000000000E+00 0. -1.
         -5    1    5    5    0  501 -0.22606812322E+02  0.24238402407E+02  0.60849761820E+03  0.60941776268E+03  0.47000000000E+01 0.  1.
         13    1    6    6    0    0  0.13733343210E+01  0.37079291507E+02  0.81708129690E+02  0.89738388460E+02  0.00000000000E+00 0. -1.
        -14    1    6    6    0    0  0.32914485195E+02 -0.38019420302E+02  0.13295665056E+03  0.14214890286E+03  0.00000000000E+00 0.  1.
</event>
<event>
12    1  0.2625820E-002  0.2129980E+03  0.7818608E-02  0.1139214E+00
          2   -1    0    0  502    0  0.00000000000E+00  0.00000000000E+00  0.57261412334E+03  0.57261412334E+03  0.00000000000E+00 0.  1.
         -2   -1    0    0    0  501 -0.00000000000E+00 -0.00000000000E+00 -0.11054443466E+03  0.11054443466E+03  0.00000000000E+00 0. -1.
          6    2    1    2  502    0  0.11484200581E+02 -0.12587733114E+03  0.48828334968E+02  0.21801308072E+03  0.17078790271E+03 0.  0.
         24    2    3    3    0    0  0.12185112175E+02 -0.23946222131E+02 -0.29451250054E+02  0.89404271953E+02  0.80024053888E+02 0.  0.
         -6    2    1    2    0  501 -0.11484200581E+02  0.12587733114E+03  0.41324135371E+03  0.46514547729E+03  0.17208982906E+03 0.  0.
        -24    2    5    5    0    0  0.26839370816E+02  0.10461994485E+02  0.11114207296E+03  0.13945319693E+03  0.79150670216E+02 0.  0.
          5    1    3    3  502    0 -0.70091159410E+00 -0.10193110900E+03  0.78279585022E+02  0.12860880876E+03  0.47000000000E+01 0. -1.
        -11    1    4    4    0    0 -0.25632610624E+02 -0.66811861855E+01  0.13413178384E+02  0.29691452147E+02  0.00000000000E+00 0.  1.
         12    1    4    4    0    0  0.37817722798E+02 -0.17265035945E+02 -0.42864428438E+02  0.59712819806E+02  0.00000000000E+00 0. -1.
         -5    1    5    5    0  501 -0.38323571397E+02  0.11541533665E+03  0.30209928075E+03  0.32569228036E+03  0.47000000000E+01 0.  1.
         13    1    6    6    0    0  0.10396249527E+02  0.43482808572E+02  0.43346343625E+02  0.62271519583E+02  0.00000000000E+00 0. -1.
        -14    1    6    6    0    0  0.16443121289E+02 -0.33020814087E+02  0.67795729340E+02  0.77181677343E+02  0.00000000000E+00 0.  1.
</event>
<event>
12    1  0.2625820E-002  0.2056440E+03  0.7818608E-02  0.1145063E+00
         -2   -1    0    0    0  501 -0.00000000000E+00  0.00000000000E+00  0.62565288880E+02  0.62565288880E+02  0.00000000000E+00 0.  1.
          2   -1    0    0  502    0  0.00000000000E+00 -0.00000000000E+00 -0.90729948750E+03  0.90729948750E+03  0.00000000000E+00 0. -1.
          6    2    1    2  502    0 -0.49982185731E+02 -0.10021680056E+03 -0.66673898371E+03  0.69763364812E+03  0.17207617089E+03 0.  0.
         24    2    3    3    0    0 -0.98401928938E+02 -0.63240151874E+02 -0.51219167887E+03  0.53144488944E+03  0.80069333554E+02 0.  0.
         -6    2    1    2    0  501  0.49982185731E+02  0.10021680056E+03 -0.17799521491E+03  0.27223112826E+03  0.17287528642E+03 0.  0.
        -24    2    5    5    0    0 -0.69710561780E+01  0.30493059461E+02 -0.16638975648E+02  0.87398777773E+02  0.79895359978E+02 0.  0.
          5    1    3    3  502    0  0.48419743207E+02 -0.36976648689E+02 -0.15454730484E+03  0.16618875868E+03  0.47000000000E+01 0. -1.
        -13    1    4    4    0    0 -0.29184655536E+02  0.14106490775E+02 -0.19573161218E+03  0.19839758367E+03  0.00000000000E+00 0.  1.
         14    1    4    4    0    0 -0.69217273402E+02 -0.77346642649E+02 -0.31646006669E+03  0.33304730576E+03  0.00000000000E+00 0. -1.
         -5    1    5    5    0  501  0.56953241909E+02  0.69723741102E+02 -0.16135623926E+03  0.18483235048E+03  0.47000000000E+01 0.  1.
         13    1    6    6    0    0 -0.31111337503E+02  0.26021314331E+02 -0.37457373768E+02  0.55209410161E+02  0.00000000000E+00 0. -1.
        -14    1    6    6    0    0  0.24140281325E+02  0.44717451300E+01  0.20818398120E+02  0.32189367612E+02  0.00000000000E+00 0.  1.
</event>
<event>
12    1  0.2625820E-002  0.1730082E+03  0.7818608E-02  0.1174747E+00
         -2   -1    0    0    0  501 -0.00000000000E+00  0.00000000000E+00  0.21485650052E+03  0.21485650052E+03  0.00000000000E+00 0. -1.
          2   -1    0    0  502    0  0.00000000000E+00 -0.00000000000E+00 -0.14218760433E+03  0.14218760433E+03  0.00000000000E+00 0.  1.
          6    2    1    2  502    0  0.15546520315E+02 -0.91353008621E+01  0.61582704370E+02  0.18302308906E+03  0.17140558228E+03 0.  0.
         24    2    3    3    0    0 -0.38252175633E-01 -0.29231187585E+02 -0.29873051151E+02  0.87981124570E+02  0.77419734594E+02 0.  0.
         -6    2    1    2    0  501 -0.15546520315E+02  0.91353008621E+01  0.11086191825E+02  0.17402101579E+03  0.17272886925E+03 0.  0.
        -24    2    5    5    0    0 -0.56633997689E+02 -0.37088496487E+02 -0.16689676012E+02  0.10606213799E+03  0.79922872590E+02 0.  0.
          5    1    3    3  502    0  0.15584772490E+02  0.20095886723E+02  0.91455755521E+02  0.95041964493E+02  0.47000000000E+01 0. -1.
        -11    1    4    4    0    0  0.27288896075E+02 -0.29299075799E+02 -0.42050490288E+02  0.58063443104E+02  0.00000000000E+00 0.  1.
         12    1    4    4    0    0 -0.27327148251E+02  0.67888213834E-01  0.12177439137E+02  0.29917681465E+02  0.00000000000E+00 0. -1.
         -5    1    5    5    0  501  0.41087477375E+02  0.46223797349E+02  0.27775867837E+02  0.67958877805E+02  0.47000000000E+01 0.  1.
         11    1    6    6    0    0 -0.56806912093E+02  0.46190104055E+00  0.12898858954E+02  0.58254778142E+02  0.00000000000E+00 0. -1.
        -12    1    6    6    0    0  0.17291440317E+00 -0.37550397527E+02 -0.29588534967E+02  0.47807359845E+02  0.00000000000E+00 0.  1.
</event>
<event>
12    1  0.2625820E-002  0.3727081E+03  0.7818608E-02  0.1053662E+00
          2   -1    0    0  502    0  0.00000000000E+00  0.00000000000E+00  0.10060783639E+04  0.10060783639E+04  0.00000000000E+00 0. -1.
         -2   -1    0    0    0  501 -0.00000000000E+00 -0.00000000000E+00 -0.14284782410E+03  0.14284782410E+03  0.00000000000E+00 0.  1.
          6    2    1    2  502    0 -0.31369456585E+03  0.10571175139E+03  0.32643361330E+03  0.49535296113E+03  0.17098654095E+03 0.  0.
         24    2    3    3    0    0 -0.16339358256E+03  0.36294955442E+02  0.25665787997E+03  0.31563145408E+03  0.75730844698E+02 0.  0.
         -6    2    1    2    0  501  0.31369456585E+03 -0.10571175139E+03  0.53679692649E+03  0.65357322687E+03  0.17154523476E+03 0.  0.
        -24    2    5    5    0    0  0.67438749646E+02 -0.64679019222E+02  0.18851206159E+03  0.22502912267E+03  0.79811955278E+02 0.  0.
          5    1    3    3  502    0 -0.15030098329E+03  0.69416795946E+02  0.69775733329E+02  0.17972150706E+03  0.47000000000E+01 0. -1.
        -13    1    4    4    0    0 -0.80665512094E+02  0.34983194598E+02  0.19008609887E+03  0.20943608507E+03  0.00000000000E+00 0.  1.
         14    1    4    4    0    0 -0.82728070464E+02  0.13117608442E+01  0.66571781101E+02  0.10619536901E+03  0.00000000000E+00 0. -1.
         -5    1    5    5    0  501  0.24625581620E+03 -0.41032732167E+02  0.34828486490E+03  0.42854410419E+03  0.47000000000E+01 0.  1.
         13    1    6    6    0    0  0.64793662566E+02 -0.74934718353E+01  0.10957650343E+03  0.12752011972E+03  0.00000000000E+00 0. -1.
        -14    1    6    6    0    0  0.26450870798E+01 -0.57185547386E+02  0.78935558161E+02  0.97509002957E+02  0.00000000000E+00 0.  1.
</event>
<event>
12    1  0.2625820E-002  0.2274507E+03  0.7818608E-02  0.1128447E+00
          2   -1    0    0  502    0  0.00000000000E+00  0.00000000000E+00  0.58088242002E+03  0.58088242002E+03  0.00000000000E+00 0. -1.
         -2   -1    0    0    0  501 -0.00000000000E+00 -0.00000000000E+00 -0.14466176818E+03  0.14466176818E+03  0.00000000000E+00 0.  1.
          6    2    1    2  502    0 -0.93813583224E+02 -0.11482131583E+03  0.44275685591E+03  0.49756375488E+03  0.17190443203E+03 0.  0.
         24    2    3    3    0    0 -0.12085561364E+03 -0.49370574623E+02  0.33733885277E+03  0.37048064696E+03  0.80092916011E+02 0.  0.
         -6    2    1    2    0  501  0.93813583224E+02  0.11482131583E+03 -0.65362040684E+01  0.22798043331E+03  0.17305326649E+03 0.  0.
        -24    2    5    5    0    0 -0.12116934977E+02  0.63767930578E+02  0.26480470954E+02  0.10575149377E+03  0.79176979038E+02 0.  0.
          5    1    3    3  502    0  0.27042030421E+02 -0.65450741204E+02  0.10541800314E+03  0.12708310793E+03  0.47000000000E+01 0. -1.
        -11    1    4    4    0    0  0.74979322153E+01 -0.20769670013E+01  0.67538047207E+02  0.67984708575E+02  0.00000000000E+00 0.  1.
         12    1    4    4    0    0 -0.12835354586E+03 -0.47293607622E+02  0.26980080556E+03  0.30249593838E+03  0.00000000000E+00 0. -1.
         -5    1    5    5    0  501  0.10593051820E+03  0.51053385249E+02 -0.33016675023E+02  0.12222893954E+03  0.47000000000E+01 0.  1.
         11    1    6    6    0    0 -0.28802603601E+01 -0.17666197643E+02 -0.39464610905E+01  0.18329347889E+02  0.00000000000E+00 0. -1.
        -12    1    6    6    0    0 -0.92366746172E+01  0.81434128221E+02  0.30426932045E+02  0.87422145883E+02  0.00000000000E+00 0.  1.
</event>
<event>
12    1  0.2625820E-002  0.2042666E+03  0.7818608E-02  0.1146188E+00
          3   -1    0    0  502    0  0.00000000000E+00  0.00000000000E+00  0.19962137855E+03  0.19962137855E+03  0.00000000000E+00 0. -1.
         -3   -1    0    0    0  501 -0.00000000000E+00 -0.00000000000E+00 -0.52154856533E+03  0.52154856533E+03  0.00000000000E+00 0.  1.
          6    2    1    2  502    0  0.31885794833E+02 -0.10642330524E+03 -0.44043498401E+03  0.48596145235E+03  0.17272213008E+03 0.  0.
         24    2    3    3    0    0  0.48333243885E+02 -0.92845848307E+02 -0.16801103143E+03  0.21266350897E+03  0.77727777226E+02 0.  0.
         -6    2    1    2    0  501 -0.31885794833E+02  0.10642330524E+03  0.11850779723E+03  0.23520849154E+03  0.17010676846E+03 0.  0.
        -24    2    5    5    0    0  0.75096973096E+01  0.30512851494E+02  0.12258793156E+03  0.14945804381E+03  0.79514000236E+02 0.  0.
          5    1    3    3  502    0 -0.16447449052E+02 -0.13577456936E+02 -0.27242395258E+03  0.27329794338E+03  0.47000000000E+01 0. -1.
        -13    1    4    4    0    0  0.16880298717E+02 -0.96386107522E+02 -0.13695259488E+03  0.16831886244E+03  0.00000000000E+00 0.  1.
         14    1    4    4    0    0  0.31452945168E+02  0.35402592148E+01 -0.31058436554E+02  0.44344646534E+02  0.00000000000E+00 0. -1.
         -5    1    5    5    0  501 -0.39395492142E+02  0.75910453749E+02 -0.40801343314E+01  0.85750447729E+02  0.47000000000E+01 0.  1.
         11    1    6    6    0    0  0.21306561016E+02  0.40787860782E+02  0.12393527472E+03  0.13220276642E+03  0.00000000000E+00 0. -1.
        -12    1    6    6    0    0 -0.13796863706E+02 -0.10275009288E+02 -0.13473431585E+01  0.17255277384E+02  0.00000000000E+00 0.  1.
</event>
<event>
12    1  0.2625820E-002  0.1855682E+03  0.7818608E-02  0.1162520E+00
         -2   -1    0    0    0  501 -0.00000000000E+00  0.00000000000E+00  0.81645829768E+01  0.81645829768E+01  0.00000000000E+00 0. -1.
          2   -1    0    0  502    0  0.00000000000E+00 -0.00000000000E+00 -0.43584892982E+04  0.43584892982E+04  0.00000000000E+00 0.  1.
          6    2    1    2  502    0 -0.20984626920E+02 -0.66487299464E+02 -0.17834299013E+04  0.17930646958E+04  0.17204032940E+03 0.  0.
         24    2    3    3    0    0 -0.76540081604E+01 -0.98022264419E+01 -0.15584770783E+04  0.15606496243E+04  0.81374312104E+02 0.  0.
         -6    2    1    2    0  501  0.20984626920E+02  0.66487299464E+02 -0.25668948140E+04  0.25735891854E+04  0.17190518827E+03 0.  0.
        -24    2    5    5    0    0  0.44312894086E+01  0.11117964528E+03 -0.18240125201E+04  0.18291648364E+04  0.80260673143E+02 0.  0.
          5    1    3    3  502    0 -0.13330618760E+02 -0.56685073022E+02 -0.22495282296E+03  0.23241507150E+03  0.47000000000E+01 0. -1.
        -11    1    4    4    0    0 -0.22978711274E+02 -0.41304971907E+02 -0.91214112079E+03  0.91336495778E+03  0.00000000000E+00 0.  1.
         12    1    4    4    0    0  0.15324703113E+02  0.31502745465E+02 -0.64633595751E+03  0.64728466649E+03  0.00000000000E+00 0. -1.
         -5    1    5    5    0  501  0.16553337512E+02 -0.44692345815E+02 -0.74288229390E+03  0.74442434898E+03  0.47000000000E+01 0.  1.
         13    1    6    6    0    0 -0.28077633465E+02  0.83586236668E+01 -0.36771503533E+03  0.36888015303E+03  0.00000000000E+00 0. -1.
        -14    1    6    6    0    0  0.32508922874E+02  0.10282102161E+03 -0.14562974847E+04  0.14602846834E+04  0.00000000000E+00 0.  1.
</event>
<event>
12    1  0.2625820E-002  0.2097777E+03  0.7818608E-02  0.1141742E+00
         -1   -1    0    0    0  501 -0.00000000000E+00  0.00000000000E+00  0.97953345785E+02  0.97953345785E+02  0.00000000000E+00 0.  1.
          1   -1    0    0  502    0  0.00000000000E+00 -0.00000000000E+00 -0.44934890190E+03  0.44934890190E+03  0.00000000000E+00 0. -1.
          6    2    1    2  502    0  0.11328879084E+03  0.43010081090E+02 -0.17983870384E+03  0.27665102803E+03  0.17178362758E+03 0.  0.
         24    2    3    3    0    0  0.65657139704E+02  0.43550328883E+02 -0.25776487481E+02  0.11532427090E+03  0.80173368464E+02 0.  0.
         -6    2    1    2    0  501 -0.11328879084E+03 -0.43010081090E+02 -0.17155685227E+03  0.27065121965E+03  0.17069303423E+03 0.  0.
        -24    2    5    5    0    0 -0.13159643881E+03 -0.44146447517E+02 -0.84557275796E+02  0.18161483602E+03  0.81040016279E+02 0.  0.
          5    1    3    3  502    0  0.47631651131E+02 -0.54024779291E+00 -0.15406221636E+03  0.16132675713E+03  0.47000000000E+01 0. -1.
        -11    1    4    4    0    0 -0.94055243328E+01 -0.89061164873E+01 -0.19661477977E+02  0.23544776811E+02  0.00000000000E+00 0.  1.
         12    1    4    4    0    0  0.75062664037E+02  0.52456445371E+02 -0.61150095037E+01  0.91779494085E+02  0.00000000000E+00 0. -1.
         -5    1    5    5    0  501  0.18307647973E+02  0.11363664269E+01 -0.86999576474E+02  0.89036383628E+02  0.47000000000E+01 0.  1.
         11    1    6    6    0    0 -0.56791509058E+01  0.81793641742E+01  0.11205441006E+02  0.14990552406E+02  0.00000000000E+00 0. -1.
        -12    1    6    6    0    0 -0.12591728790E+03 -0.52325811692E+02 -0.95762716802E+02  0.16662428362E+03  0.00000000000E+00 0.  1.
</event>
<event>
12    1  0.2625820E-002  0.2341561E+03  0.7818608E-02  0.1123748E+00
          2   -1    0    0  502    0  0.00000000000E+00  0.00000000000E+00  0.22813067809E+03  0.22813067809E+03  0.00000000000E+00 0. -1.
         -2   -1    0    0    0  501 -0.00000000000E+00 -0.00000000000E+00 -0.24942325466E+03  0.24942325466E+03  0.00000000000E+00 0.  1.
          6    2    1    2  502    0 -0.12242452944E+03  0.98247504900E+02 -0.56181794697E+02  0.24024150305E+03  0.17297181304E+03 0.  0.
         24    2    3    3    0    0 -0.47786561108E+01  0.34420186852E+02  0.13145860929E+02  0.89434036809E+02  0.81351388822E+02 0.  0.
         -6    2    1    2    0  501  0.12242452944E+03 -0.98247504900E+02  0.34889218132E+02  0.23731242970E+03  0.17452677193E+03 0.  0.
        -24    2    5    5    0    0  0.29676342789E+02 -0.96719787631E+02  0.57910751617E+02  0.14162209032E+03  0.80422376697E+02 0.  0.
          5    1    3    3  502    0 -0.11764587333E+03  0.63827318048E+02 -0.69327655625E+02  0.15080746624E+03  0.47000000000E+01 0. -1.
        -11    1    4    4    0    0  0.72712995116E+01  0.49904062521E+02 -0.17212385528E+02  0.53287460704E+02  0.00000000000E+00 0.  1.
         12    1    4    4    0    0 -0.12049955622E+02 -0.15483875669E+02  0.30358246457E+02  0.36146576106E+02  0.00000000000E+00 0. -1.
         -5    1    5    5    0  501  0.92748186647E+02 -0.15277172698E+01 -0.23021533485E+02  0.95690339378E+02  0.47000000000E+01 0.  1.
         13    1    6    6    0    0  0.52357015613E+02 -0.55423748961E+02  0.55761818836E+02  0.94458612486E+02  0.00000000000E+00 0. -1.
        -14    1    6    6    0    0 -0.22680672824E+02 -0.41296038670E+02  0.21489327809E+01  0.47163477836E+02  0.00000000000E+00 0.  1.
</event>
<event>
12    1  0.2625820E-002  0.1894412E+03  0.7818608E-02  0.1158966E+00
          1   -1    0    0  502    0  0.00000000000E+00  0.00000000000E+00  0.15179118474E+03  0.15179118474E+03  0.00000000000E+00 0.  1.
         -1   -1    0    0    0  501 -0.00000000000E+00 -0.00000000000E+00 -0.23686578482E+03  0.23686578482E+03  0.00000000000E+00 0. -1.
          6    2    1    2  502    0  0.28544236216E+02  0.74130037643E+02 -0.50468657098E+02  0.19478373239E+03  0.17053908980E+03 0.  0.
         24    2    3    3    0    0  0.67019814465E+02  0.77178767254E+02  0.14467453368E+01  0.12992262012E+03  0.80184640063E+02 0.  0.
         -6    2    1    2    0  501 -0.28544236216E+02 -0.74130037643E+02 -0.34605942977E+02  0.19387323717E+03  0.17343363255E+03 0.  0.
        -24    2    5    5    0    0 -0.34656011130E+02 -0.10433996926E+03  0.16840880361E+02  0.13371628086E+03  0.74219675451E+02 0.  0.
          5    1    3    3  502    0 -0.38475578249E+02 -0.30487296108E+01 -0.51915402435E+02  0.64861112262E+02  0.47000000000E+01 0. -1.
        -11    1    4    4    0    0 -0.13807823298E+02  0.31225884389E+02  0.12351588822E+02  0.36308037492E+02  0.00000000000E+00 0.  1.
         12    1    4    4    0    0  0.80827637763E+02  0.45952882865E+02 -0.10904843485E+02  0.93614582632E+02  0.00000000000E+00 0. -1.
         -5    1    5    5    0  501  0.61117749141E+01  0.30209931614E+02 -0.51446823338E+02  0.60156956309E+02  0.47000000000E+01 0.  1.
         13    1    6    6    0    0 -0.38131399369E+02 -0.28519633914E+02 -0.17071604364E+02  0.50584709270E+02  0.00000000000E+00 0. -1.
        -14    1    6    6    0    0  0.34753882393E+01 -0.75820335343E+02  0.33912484725E+02  0.83131571591E+02  0.00000000000E+00 0.  1.
</event>
<event>
12    1  0.2625820E-002  0.1988050E+03  0.7818608E-02  0.1150751E+00
         -2   -1    0    0    0  501 -0.00000000000E+00  0.00000000000E+00  0.55019061547E+02  0.55019061547E+02  0.00000000000E+00 0.  1.
          2   -1    0    0  502    0  0.00000000000E+00 -0.00000000000E+00 -0.79968898369E+03  0.79968898369E+03  0.00000000000E+00 0. -1.
          6    2    1    2  502    0 -0.75917224807E+02 -0.60291605375E+02 -0.50565285851E+03  0.54270120673E+03  0.17158462566E+03 0.  0.
         24    2    3    3    0    0  0.16265089056E+02 -0.36245298560E+02 -0.14792315086E+03  0.17247365832E+03  0.79294574002E+02 0.  0.
         -6    2    1    2    0  501  0.75917224807E+02  0.60291605375E+02 -0.23901706363E+03  0.31200683851E+03  0.17555799004E+03 0.  0.
        -24    2    5    5    0    0 -0.22301717456E+02 -0.40024579801E+01 -0.10730134288E+03  0.13550808980E+03  0.79595715627E+02 0.  0.
          5    1    3    3  502    0 -0.92182313863E+02 -0.24046306815E+02 -0.35772970766E+03  0.37022754841E+03  0.47000000000E+01 0. -1.
        -11    1    4    4    0    0  0.19960693109E+01 -0.34780959741E+02 -0.13618797222E+02  0.37405495465E+02  0.00000000000E+00 0.  1.
         12    1    4    4    0    0  0.14269019745E+02 -0.14643388192E+01 -0.13430435363E+03  0.13506816286E+03  0.00000000000E+00 0. -1.
         -5    1    5    5    0  501  0.98218942263E+02  0.64294063355E+02 -0.13171572075E+03  0.17649874871E+03  0.47000000000E+01 0.  1.
         11    1    6    6    0    0 -0.42966550614E+00 -0.39642385299E+02 -0.64209206157E+02  0.75462079749E+02  0.00000000000E+00 0. -1.
        -12    1    6    6    0    0 -0.21872051950E+02  0.35639927319E+02 -0.43092136722E+02  0.60046010051E+02  0.00000000000E+00 0.  1.
</event>
<event>
12    1  0.2625820E-002  0.2421236E+03  0.7818608E-02  0.1118386E+00
         -2   -1    0    0    0  501 -0.00000000000E+00  0.00000000000E+00  0.25673380397E+03  0.25673380397E+03  0.00000000000E+00 0. -1.
          2   -1    0    0  502    0  0.00000000000E+00 -0.00000000000E+00 -0.35451919540E+03  0.35451919540E+03  0.00000000000E+00 0.  1.
          6    2    1    2  502    0 -0.12028468669E+03 -0.12070246811E+03  0.13338077593E+03  0.27680345857E+03  0.17260426306E+03 0.  0.
         24    2    3    3    0    0 -0.92779382910E+02 -0.28678470320E+02  0.12663366329E+03  0.18040547397E+03  0.84140250805E+02 0.  0.
         -6    2    1    2    0  501  0.12028468669E+03  0.12070246811E+03 -0.23116616736E+03  0.33444954079E+03  0.17140947098E+03 0.  0.
        -24    2    5    5    0    0  0.38204617903E+02  0.44554436721E+02 -0.32810983799E+02  0.10662827483E+03  0.82754683704E+02 0.  0.
          5    1    3    3  502    0 -0.27505303781E+02 -0.92023997795E+02  0.67471126439E+01  0.96397984602E+02  0.47000000000E+01 0. -1.
        -13    1    4    4    0    0  0.12253223231E+02 -0.11784872063E+02  0.29329954964E+01  0.17251873860E+02  0.00000000000E+00 0.  1.
         14    1    4    4    0    0 -0.10503260614E+03 -0.16893598257E+02  0.12370066779E+03  0.16315360011E+03  0.00000000000E+00 0. -1.
         -5    1    5    5    0  501  0.82080068788E+02  0.76148031394E+02 -0.19835518357E+03  0.22782126596E+03  0.47000000000E+01 0.  1.
         13    1    6    6    0    0 -0.24750797205E+02  0.15001957301E+02 -0.21758195466E+02  0.36208835318E+02  0.00000000000E+00 0. -1.
        -14    1    6    6    0    0  0.62955415108E+02  0.29552479420E+02 -0.11052788332E+02  0.70419439513E+02  0.00000000000E+00 0.  1.
</event>
<event>
12    1  0.2625820E-002  0.1714593E+03  0.7818608E-02  0.1176334E+00
         -2   -1    0    0    0  501 -0.00000000000E+00  0.00000000000E+00  0.42906403657E+02  0.42906403657E+02  0.00000000000E+00 0.  1.
          2   -1    0    0  502    0  0.00000000000E+00 -0.00000000000E+00 -0.76658994066E+03  0.76658994066E+03  0.00000000000E+00 0. -1.
          6    2    1    2  502    0 -0.66130346734E+01  0.78436530871E+01 -0.49532587319E+03  0.52443994794E+03  0.17200082331E+03 0.  0.
         24    2    3    3    0    0  0.13542469534E+02  0.11533067799E+01 -0.10312937804E+03  0.13164078056E+03  0.80677741008E+02 0.  0.
         -6    2    1    2    0  501  0.66130346734E+01 -0.78436530871E+01 -0.22835766381E+03  0.28505639638E+03  0.17030757873E+03 0.  0.
        -24    2    5    5    0    0  0.15630699055E+02 -0.60700681285E+02 -0.88444837251E+02  0.13514684786E+03  0.80704955172E+02 0.  0.
          5    1    3    3  502    0 -0.20155504208E+02  0.66903463072E+01 -0.39219649515E+03  0.39279916737E+03  0.47000000000E+01 0. -1.
        -13    1    4    4    0    0 -0.30715071245E+02 -0.15284925222E+02 -0.48973947994E+02  0.59795418911E+02  0.00000000000E+00 0.  1.
         14    1    4    4    0    0  0.44257540779E+02  0.16438232002E+02 -0.54155430050E+02  0.71845361653E+02  0.00000000000E+00 0. -1.
         -5    1    5    5    0  501 -0.90176643814E+01  0.52857028197E+02 -0.13991282656E+03  0.14990954852E+03  0.47000000000E+01 0.  1.
         13    1    6    6    0    0 -0.18052026871E+02 -0.24861767801E+02 -0.79402684505E+02  0.85139705654E+02  0.00000000000E+00 0. -1.
        -14    1    6    6    0    0  0.33682725925E+02 -0.35838913484E+02 -0.90421527456E+01  0.50007142207E+02  0.00000000000E+00 0.  1.
</event>
<event>
12    1  0.2625820E-002  0.2249525E+03  0.7818608E-02  0.1130244E+00
          2   -1    0    0  502    0  0.00000000000E+00  0.00000000000E+00  0.19047297589E+04  0.19047297589E+04  0.00000000000E+00 0. -1.
         -2   -1    0    0    0  501 -0.00000000000E+00 -0.00000000000E+00 -0.26644459730E+02  0.26644459730E+02  0.00000000000E+00 0.  1.
          6    2    1    2  502    0  0.77435437556E+02  0.12203220958E+03  0.88867717552E+03  0.91679864168E+03  0.17287139707E+03 0.  0.
         24    2    3    3    0    0  0.98710398616E+02  0.34026790918E+02  0.44378763175E+03  0.46276519154E+03  0.79388885352E+02 0.  0.
         -6    2    1    2    0  501 -0.77435437556E+02 -0.12203220958E+03  0.98940812369E+03  0.10145755770E+04  0.17189257995E+03 0.  0.
        -24    2    5    5    0    0  0.22938846973E+02 -0.59164493737E+02  0.55055605587E+03  0.55999821931E+03  0.80370435813E+02 0.  0.
          5    1    3    3  502    0 -0.21274961060E+02  0.88005418660E+02  0.44488954378E+03  0.45403345014E+03  0.47000000000E+01 0. -1.
        -13    1    4    4    0    0  0.29324231228E+02 -0.38744318569E+01  0.32491086343E+02  0.43938507611E+02  0.00000000000E+00 0.  1.
         14    1    4    4    0    0  0.69386167388E+02  0.37901222774E+02  0.41129654540E+03  0.41882668393E+03  0.00000000000E+00 0. -1.
         -5    1    5    5    0  501 -0.10037428453E+03 -0.62867715841E+02  0.43885206782E+03  0.45457735769E+03  0.47000000000E+01 0.  1.
         13    1    6    6    0    0 -0.15570012790E+02  0.29820567703E+01  0.25651405288E+03  0.25700345773E+03  0.00000000000E+00 0. -1.
        -14    1    6    6    0    0  0.38508859763E+02 -0.62146550508E+02  0.29404200298E+03  0.30299476157E+03  0.00000000000E+00 0.  1.
</event>
<event>
12    1  0.2625820E-002  0.2644105E+03  0.7818608E-02  0.1104522E+00
          1   -1    0    0  502    0  0.00000000000E+00  0.00000000000E+00  0.13480113922E+03  0.13480113922E+03  0.00000000000E+00 0. -1.
         -1   -1    0    0    0  501 -0.00000000000E+00 -0.00000000000E+00 -0.75680972032E+03  0.75680972032E+03  0.00000000000E+00 0.  1.
          6    2    1    2  502    0 -0.22664882461E+02  0.19978170851E+03 -0.56151366653E+03  0.62087560501E+03  0.17251808963E+03 0.  0.
         24    2    3    3    0    0 -0.16020011337E+02  0.18984234697E+03 -0.32632791617E+03  0.38533925455E+03  0.75496190352E+02 0.  0.
         -6    2    1    2    0  501  0.22664882461E+02 -0.19978170851E+03 -0.60494914565E+02  0.27073525453E+03  0.17091376598E+03 0.  0.
        -24    2    5    5    0    0 -0.38442729714E+02 -0.53644162397E+02 -0.12062329297E+02  0.10503031203E+03  0.80810438871E+02 0.  0.
          5    1    3    3  502    0 -0.66448711238E+01  0.99393615458E+01 -0.23518575035E+03  0.23553635046E+03  0.47000000000E+01 0. -1.
        -11    1    4    4    0    0 -0.35377282492E+02  0.65102746358E+02 -0.16185720079E+03  0.17801031753E+03  0.00000000000E+00 0.  1.
         12    1    4    4    0    0  0.19357271155E+02  0.12473960061E+03 -0.16447071539E+03  0.20732893702E+03  0.00000000000E+00 0. -1.
         -5    1    5    5    0  501  0.61107612176E+02 -0.14613754612E+03 -0.48432585267E+02  0.16570494249E+03  0.47000000000E+01 0.  1.
         13    1    6    6    0    0  0.21499669485E+02 -0.35584436696E+02 -0.20020803513E+01  0.41623265714E+02  0.00000000000E+00 0. -1.
        -14    1    6    6    0    0 -0.59942399199E+02 -0.18059725701E+02 -0.10060248946E+02  0.63407046320E+02  0.00000000000E+00 0.  1.
</event>
<event>
12    1  0.2625820E-002  0.2340915E+03  0.7818608E-02  0.1123793E+00
         -2   -1    0    0    0  501 -0.00000000000E+00  0.00000000000E+00  0.18070674275E+02  0.18070674275E+02  0.00000000000E+00 0.  1.
          2   -1    0    0  502    0  0.00000000000E+00 -0.00000000000E+00 -0.36482287773E+04  0.36482287773E+04  0.00000000000E+00 0. -1.
          6    2    1    2  502    0  0.10999972560E+03  0.11397323972E+03 -0.10612454232E+04  0.10867329399E+04  0.17221148472E+03 0.  0.
         24    2    3    3    0    0  0.11136250976E+03  0.13637173272E+03 -0.10258502081E+04  0.10445611375E+04  0.87979897827E+02 0.  0.
         -6    2    1    2    0  501 -0.10999972560E+03 -0.11397323972E+03 -0.25689126799E+04  0.25795665117E+04  0.17251432521E+03 0.  0.
        -24    2    5    5    0    0 -0.14352583261E+03 -0.11520964039E+03 -0.21517816320E+04  0.21610621155E+04  0.78436913047E+02 0.  0.
          5    1    3    3  502    0 -0.13627841548E+01 -0.22398492999E+02 -0.35395215056E+02  0.42171802406E+02  0.47000000000E+01 0. -1.
        -11    1    4    4    0    0  0.44631447569E+02  0.40284541588E+02 -0.16146836776E+03  0.17229870629E+03  0.00000000000E+00 0.  1.
         12    1    4    4    0    0  0.66731062191E+02  0.96087191131E+02 -0.86438184034E+03  0.87226243120E+03  0.00000000000E+00 0. -1.
         -5    1    5    5    0  501  0.33526107005E+02  0.12364006654E+01 -0.41713104791E+03  0.41850439624E+03  0.47000000000E+01 0.  1.
         11    1    6    6    0    0 -0.63884183761E+02 -0.20770152404E+02 -0.11001901613E+04  0.11022390753E+04  0.00000000000E+00 0. -1.
        -12    1    6    6    0    0 -0.79641648848E+02 -0.94439487981E+02 -0.10515914707E+04  0.10588230401E+04  0.00000000000E+00 0.  1.
</event>
<event>
12    1  0.2625820E-002  0.1763608E+03  0.7818608E-02  0.1171372E+00
         -1   -1    0    0    0  501 -0.00000000000E+00  0.00000000000E+00  0.10354145009E+04  0.10354145009E+04  0.00000000000E+00 0. -1.
          1   -1    0    0  502    0  0.00000000000E+00 -0.00000000000E+00 -0.30104541870E+02  0.30104541870E+02  0.00000000000E+00 0.  1.
          6    2    1    2  502    0  0.43295855650E+01 -0.49874430652E+02  0.48321655385E+03  0.51498134173E+03  0.17088399652E+03 0.  0.
         24    2    3    3    0    0  0.37986542254E+02  0.28977978745E+02  0.26478509630E+03  0.28027964840E+03  0.78503716100E+02 0.  0.
         -6    2    1    2    0  501 -0.43295855650E+01  0.49874430652E+02  0.52209340513E+03  0.55053770100E+03  0.16734405395E+03 0.  0.
        -24    2    5    5    0    0  0.31001757111E+02  0.87624006790E+02  0.43910664400E+03  0.45264885180E+03  0.58628173448E+02 0.  0.
          5    1    3    3  502    0 -0.33656956689E+02 -0.78852409397E+02  0.21843145755E+03  0.23470169333E+03  0.47000000000E+01 0. -1.
        -11    1    4    4    0    0  0.56868714987E+02  0.79874140970E+00  0.18603962876E+03  0.19453902488E+03  0.00000000000E+00 0.  1.
         12    1    4    4    0    0 -0.18882172734E+02  0.28179237335E+02  0.78745467541E+02  0.85740623523E+02  0.00000000000E+00 0. -1.
         -5    1    5    5    0  501 -0.35331342676E+02 -0.37749576137E+02  0.82986761140E+02  0.97888849203E+02  0.47000000000E+01 0.  1.
         11    1    6    6    0    0  0.16024999862E+02  0.88589447165E+02  0.31418281107E+03  0.32682675769E+03  0.00000000000E+00 0. -1.
        -12    1    6    6    0    0  0.14976757249E+02 -0.96544037588E+00  0.12492383292E+03  0.12582209411E+03  0.00000000000E+00 0.  1.
</event>
<event>
12    1  0.2625820E-002  0.2176289E+03  0.7818608E-02  0.1135663E+00
          1   -1    0    0  502    0  0.00000000000E+00  0.00000000000E+00  0.12142400843E+04  0.12142400843E+04  0.00000000000E+00 0. -1.
         -1   -1    0    0    0  501 -0.00000000000E+00 -0.00000000000E+00 -0.43795259210E+02  0.43795259210E+02  0.00000000000E+00 0.  1.
          6    2    1    2  502    0  0.13202926541E+03  0.27124002169E+02  0.79534930982E+03  0.82482183191E+03  0.17199735855E+03 0.  0.
         24    2    3    3    0    0  0.13070858048E+02  0.50033293251E+02  0.35453945129E+03  0.36764423002E+03  0.82400725591E+02 0.  0.
         -6    2    1    2    0  501 -0.13202926541E+03 -0.27124002169E+02  0.37509551524E+03  0.43321351157E+03  0.16973468307E+03 0.  0.
        -24    2    5    5    0    0 -0.39662633763E+02 -0.66676736911E+02  0.17452700627E+03  0.20883474640E+03  0.84459242397E+02 0.  0.
          5    1    3    3  502    0  0.11895840736E+03 -0.22909291082E+02  0.44080985853E+03  0.45717760189E+03  0.47000000000E+01 0. -1.
        -11    1    4    4    0    0  0.13103503153E+02  0.30660029587E+02  0.34395650963E+03  0.34556883501E+03  0.00000000000E+00 0.  1.
         12    1    4    4    0    0 -0.32645104936E-01  0.19373263664E+02  0.10582941661E+02  0.22075395011E+02  0.00000000000E+00 0. -1.
         -5    1    5    5    0  501 -0.92366631642E+02  0.39552734742E+02  0.20056850897E+03  0.22437876517E+03  0.47000000000E+01 0.  1.
         11    1    6    6    0    0  0.14581712634E+02 -0.28799786152E+02  0.11631463384E+03  0.12071101056E+03  0.00000000000E+00 0. -1.
        -12    1    6    6    0    0 -0.54244346397E+02 -0.37876950759E+02  0.58212372430E+02  0.88123735842E+02  0.00000000000E+00 0.  1.
</event>
<event>
12    1  0.2625820E-002  0.1806588E+03  0.7818608E-02  0.1167167E+00
          2   -1    0    0  502    0  0.00000000000E+00  0.00000000000E+00  0.83621783248E+03  0.83621783248E+03  0.00000000000E+00 0. -1.
         -2   -1    0    0    0  501 -0.00000000000E+00 -0.00000000000E+00 -0.41475862506E+02  0.41475862506E+02  0.00000000000E+00 0.  1.
          6    2    1    2  502    0 -0.20120122717E+02  0.51970173003E+02  0.50413685214E+03  0.53556136060E+03  0.17194850120E+03 0.  0.
         24    2    3    3    0    0  0.23064308638E+02  0.46168837410E+02  0.47130435990E+03  0.48080176644E+03  0.79868736510E+02 0.  0.
         -6    2    1    2    0  501  0.20120122717E+02 -0.51970173003E+02  0.29060511784E+03  0.34213233439E+03  0.17174830858E+03 0.  0.
        -24    2    5    5    0    0  0.58629335731E+02 -0.27033443132E+02  0.86188568612E+02  0.13257800830E+03  0.77332094696E+02 0.  0.
          5    1    3    3  502    0 -0.43184431355E+02  0.58013355931E+01  0.32832492240E+02  0.54759594162E+02  0.47000000000E+01 0. -1.
        -13    1    4    4    0    0 -0.16988727942E+02  0.32477705765E+01  0.23572125282E+02  0.29237133600E+02  0.00000000000E+00 0.  1.
         14    1    4    4    0    0  0.40053036580E+02  0.42921066833E+02  0.44773223461E+03  0.45156463284E+03  0.00000000000E+00 0. -1.
         -5    1    5    5    0  501 -0.38509213014E+02 -0.24936729871E+02  0.20441654923E+03  0.20955432609E+03  0.47000000000E+01 0.  1.
         11    1    6    6    0    0  0.14791572760E+02  0.26983393521E+02  0.32016903442E+02  0.44406939285E+02  0.00000000000E+00 0. -1.
        -12    1    6    6    0    0  0.43837762971E+02 -0.54016836653E+02  0.54171665170E+02  0.88171069017E+02  0.00000000000E+00 0.  1.
</event>
<event>
12    1  0.2625820E-002  0.2058134E+03  0.7818608E-02  0.1144925E+00
          1   -1    0    0  502    0  0.00000000000E+00  0.00000000000E+00  0.20840162140E+03  0.20840162140E+03  0.00000000000E+00 0.  1.
         -1   -1    0    0    0  501 -0.00000000000E+00 -0.00000000000E+00 -0.20341207100E+03  0.20341207100E+03  0.00000000000E+00 0. -1.
          6    2    1    2  502    0 -0.63756368441E+02  0.92554481512E+02 -0.30785720760E+01  0.20468094271E+03  0.17103685023E+03 0.  0.
         24    2    3    3    0    0  0.21021434910E+02  0.17908465548E+02 -0.23411260549E+02  0.89812270471E+02  0.82192109979E+02 0.  0.
         -6    2    1    2    0  501  0.63756368441E+02 -0.92554481512E+02  0.80681224842E+01  0.20713274969E+03  0.17380355241E+03 0.  0.
        -24    2    5    5    0    0  0.10064642656E+03 -0.10518155011E+03  0.16121973962E+02  0.16704193063E+03  0.80313304513E+02 0.  0.
          5    1    3    3  502    0 -0.84777803351E+02  0.74646015965E+02  0.20332688473E+02  0.11486867223E+03  0.47000000000E+01 0. -1.
        -13    1    4    4    0    0  0.17592650593E+02  0.49989142258E+01  0.29792017681E+02  0.34957900621E+02  0.00000000000E+00 0.  1.
         14    1    4    4    0    0  0.34287843169E+01  0.12909551322E+02 -0.53203278230E+02  0.54854369850E+02  0.00000000000E+00 0. -1.
         -5    1    5    5    0  501 -0.36890058120E+02  0.12627068597E+02 -0.80538514779E+01  0.40090819063E+02  0.47000000000E+01 0.  1.
         13    1    6    6    0    0 -0.24531027166E+01 -0.48432022568E+02  0.70911749531E+01  0.49009828455E+02  0.00000000000E+00 0. -1.
        -14    1    6    6    0    0  0.10309952928E+03 -0.56749527541E+02  0.90307990090E+01  0.11803210218E+03  0.00000000000E+00 0.  1.
</event>
<event>
12    1  0.2625820E-002  0.2746732E+03  0.7818608E-02  0.1098634E+00
         -1   -1    0    0    0  501 -0.00000000000E+00  0.00000000000E+00  0.10834251844E+03  0.10834251844E+03  0.00000000000E+00 0.  1.
          1   -1    0    0  502    0  0.00000000000E+00 -0.00000000000E+00 -0.82320977003E+03  0.82320977003E+03  0.00000000000E+00 0. -1.
          6    2    1    2  502    0  0.19778664505E+03 -0.82672210631E+02 -0.54032948428E+03  0.60616008319E+03  0.17181339731E+03 0.  0.
         24    2    3    3    0    0  0.59680695342E+02  0.18299790134E+02 -0.22535658755E+03  0.24769304990E+03  0.81667543726E+02 0.  0.
         -6    2    1    2    0  501 -0.19778664505E+03  0.82672210631E+02 -0.17453776731E+03  0.32539220528E+03  0.17164615833E+03 0.  0.
        -24    2    5    5    0    0 -0.12250385107E+03 -0.14774161645E+02 -0.12355480431E+03  0.19203311464E+03  0.79909061268E+02 0.  0.
          5    1    3    3  502    0  0.13810594971E+03 -0.10097200076E+03 -0.31497289673E+03  0.35846703329E+03  0.47000000000E+01 0. -1.
        -11    1    4    4    0    0  0.73241803954E+02  0.14366939063E+01 -0.12374510158E+03  0.14380290713E+03  0.00000000000E+00 0.  1.
         12    1    4    4    0    0 -0.13561108611E+02  0.16863096228E+02 -0.10161148597E+03  0.10389014276E+03  0.00000000000E+00 0. -1.
         -5    1    5    5    0  501 -0.75282793974E+02  0.97446372276E+02 -0.50982963000E+02  0.13335909063E+03  0.47000000000E+01 0.  1.
         13    1    6    6    0    0 -0.14113346165E+02  0.25119968670E+02 -0.40795115908E+02  0.49944377541E+02  0.00000000000E+00 0. -1.
        -14    1    6    6    0    0 -0.10839050491E+03 -0.39894130316E+02 -0.82759688398E+02  0.14208873710E+03  0.00000000000E+00 0.  1.
</event>
<event>
12    1  0.2625820E-002  0.2851561E+03  0.7818608E-02  0.1092906E+00
          2   -1    0    0  502    0  0.00000000000E+00  0.00000000000E+00  0.18394299907E+04  0.18394299907E+04  0.00000000000E+00 0.  1.
         -2   -1    0    0    0  501 -0.00000000000E+00 -0.00000000000E+00 -0.75612264151E+02  0.75612264151E+02  0.00000000000E+00 0. -1.
          6    2    1    2  502    0  0.18146087673E+03  0.13793423996E+03  0.14998656575E+04  0.15268203058E+04  0.17213178449E+03 0.  0.
         24    2    3    3    0    0  0.17845981797E+03  0.14569309402E+03  0.14972557052E+04  0.15169153565E+04  0.78633121298E+02 0.  0.
         -6    2    1    2    0  501 -0.18146087673E+03 -0.13793423996E+03  0.26395206900E+03  0.38822194903E+03  0.17056284075E+03 0.  0.
        -24    2    5    5    0    0 -0.16169758347E+03 -0.11646938285E+03  0.28092054828E+03  0.35414340534E+03  0.82401283117E+02 0.  0.
          5    1    3    3  502    0  0.30010587555E+01 -0.77588540619E+01  0.26099523716E+01  0.99049493381E+01  0.47000000000E+01 0. -1.
        -11    1    4    4    0    0  0.45373270255E+02  0.63023777270E+02  0.70901359544E+03  0.71325381785E+03  0.00000000000E+00 0.  1.
         12    1    4    4    0    0  0.13308654772E+03  0.82669316750E+02  0.78824210972E+03  0.80366153861E+03  0.00000000000E+00 0. -1.
         -5    1    5    5    0  501 -0.19763293262E+02 -0.21464857107E+02 -0.16968479279E+02  0.34078543693E+02  0.47000000000E+01 0.  1.
         11    1    6    6    0    0 -0.53539786012E+02  0.53296438262E+00  0.47809562457E+02  0.71781244066E+02  0.00000000000E+00 0. -1.
        -12    1    6    6    0    0 -0.10815779745E+03 -0.11700234723E+03  0.23311098582E+03  0.28236216127E+03  0.00000000000E+00 0.  1.
</event>
<event>
12    1  0.2625820E-002  0.1974375E+03  0.7818608E-02  0.1151919E+00
         -4   -1    0    0    0  501 -0.00000000000E+00  0.00000000000E+00  0.25018129313E+03  0.25018129313E+03  0.00000000000E+00 0. -1.
          4   -1    0    0  502    0  0.00000000000E+00 -0.00000000000E+00 -0.15587404093E+03  0.15587404093E+03  0.00000000000E+00 0.  1.
          6    2    1    2  502    0  0.76074960771E+02  0.52978565099E+02  0.50083816363E+02  0.20691465884E+03  0.17807627401E+03 0.  0.
         24    2    3    3    0    0  0.99717025181E+02  0.26056463663E+02 -0.17396244495E+02  0.13036797133E+03  0.77915044873E+02 0.  0.
         -6    2    1    2    0  501 -0.76074960771E+02 -0.52978565099E+02  0.44223435839E+02  0.19914067521E+03  0.17060823026E+03 0.  0.
        -24    2    5    5    0    0 -0.11864794913E+03 -0.35706508311E+02  0.22701332375E+02  0.14818899005E+03  0.78053415764E+02 0.  0.
          5    1    3    3  502    0 -0.23642064411E+02  0.26922101436E+02  0.67480060858E+02  0.76546687509E+02  0.47000000000E+01 0. -1.
        -11    1    4    4    0    0  0.92060282916E+02  0.96066712336E+01 -0.40464775964E+02  0.10101872062E+03  0.00000000000E+00 0.  1.
         12    1    4    4    0    0  0.76567422657E+01  0.16449792430E+02  0.23068531469E+02  0.29349250710E+02  0.00000000000E+00 0. -1.
         -5    1    5    5    0  501  0.42572988358E+02 -0.17272056788E+02  0.21522103465E+02  0.50951685163E+02  0.47000000000E+01 0.  1.
         13    1    6    6    0    0 -0.89519723668E+02 -0.52463313255E+02  0.38991374436E+02  0.11084451923E+03  0.00000000000E+00 0. -1.
        -14    1    6    6    0    0 -0.29128225460E+02  0.16756804944E+02 -0.16290042061E+02  0.37344470819E+02  0.00000000000E+00 0.  1.
</event>
<event>
12    1  0.2625820E-002  0.1780740E+03  0.7818608E-02  0.1169680E+00
          1   -1    0    0  502    0  0.00000000000E+00  0.00000000000E+00  0.25764464208E+02  0.25764464208E+02  0.00000000000E+00 0. -1.
         -1   -1    0    0    0  501 -0.00000000000E+00 -0.00000000000E+00 -0.12897100768E+04  0.12897100768E+04  0.00000000000E+00 0.  1.
          6    2    1    2  502    0 -0.14827922605E+01 -0.43644913893E+02 -0.78078512353E+03  0.80140151429E+03  0.17524811208E+03 0.  0.
         24    2    3    3    0    0 -0.34656336504E+02 -0.73702922016E+02 -0.33677565775E+03  0.35511633237E+03  0.77824054711E+02 0.  0.
         -6    2    1    2    0  501  0.14827922605E+01  0.43644913893E+02 -0.48316048909E+03  0.51407302675E+03  0.17005864117E+03 0.  0.
        -24    2    5    5    0    0  0.28594448728E+02  0.26428981652E+02 -0.47048687967E+03  0.47922850616E+03  0.82376717644E+02 0.  0.
          5    1    3    3  502    0  0.33173544244E+02  0.30058008123E+02 -0.44400946579E+03  0.44628518192E+03  0.47000000000E+01 0. -1.
        -13    1    4    4    0    0  0.91474681660E+01  0.12546657403E+02 -0.37233918864E+02  0.40341783547E+02  0.00000000000E+00 0.  1.
         14    1    4    4    0    0 -0.43803804670E+02 -0.86249579419E+02 -0.29954173888E+03  0.31477454882E+03  0.00000000000E+00 0. -1.
         -5    1    5    5    0  501 -0.27111656468E+02  0.17215932241E+02 -0.12673609419E+02  0.34844520589E+02  0.47000000000E+01 0.  1.
         13    1    6    6    0    0  0.29883073101E+02 -0.23124499736E+02 -0.13852201776E+03  0.14358304200E+03  0.00000000000E+00 0. -1.
        -14    1    6    6    0    0 -0.12886243728E+01  0.49553481388E+02 -0.33196486191E+03  0.33564546416E+03  0.00000000000E+00 0.  1.
</event>
<event>
12    1  0.2625820E-002  0.1842335E+03  0.7818608E-02  0.1163768E+00
         -2   -1    0    0    0  501 -0.00000000000E+00  0.00000000000E+00  0.14001166564E+02  0.14001166564E+02  0.00000000000E+00 0. -1.
          2   -1    0    0  502    0  0.00000000000E+00 -0.00000000000E+00 -0.26723251047E+04  0.26723251047E+04  0.00000000000E+00 0.  1.
          6    2    1    2  502    0  0.36554046804E+02 -0.56033523624E+02 -0.91299405773E+03  0.93118700408E+03  0.17051431910E+03 0.  0.
         24    2    3    3    0    0  0.16835870338E+02 -0.73663460245E+02 -0.88733134705E+03  0.89403480539E+03  0.78940242487E+02 0.  0.
         -6    2    1    2    0  501 -0.36554046804E+02  0.56033523624E+02 -0.17453298804E+04  0.17551392672E+04  0.17280480794E+03 0.  0.
        -24    2    5    5    0    0 -0.87608469243E+02  0.17010721708E+02 -0.12535992525E+04  0.12592053668E+04  0.78246158904E+02 0.  0.
          5    1    3    3  502    0  0.19718176466E+02  0.17629936621E+02 -0.25662710674E+02  0.37152198690E+02  0.47000000000E+01 0. -1.
        -11    1    4    4    0    0 -0.66123448585E+00 -0.84598305253E+02 -0.59610539883E+03  0.60207886277E+03  0.00000000000E+00 0.  1.
         12    1    4    4    0    0  0.17497104824E+02  0.10934845008E+02 -0.29122594823E+03  0.29195594262E+03  0.00000000000E+00 0. -1.
         -5    1    5    5    0  501  0.51054422439E+02  0.39022801915E+02 -0.49173062789E+03  0.49593390036E+03  0.47000000000E+01 0.  1.
         13    1    6    6    0    0 -0.95491590020E+02  0.19473246562E+02 -0.12351866509E+04  0.12390253886E+04  0.00000000000E+00 0. -1.
        -14    1    6    6    0    0  0.78831207770E+01 -0.24625248537E+01 -0.18412601666E+02  0.20179978245E+02  0.00000000000E+00 0.  1.
</event>
<event>
12    1  0.2625820E-002  0.2265364E+03  0.7818608E-02  0.1129102E+00
          1   -1    0    0  502    0  0.00000000000E+00  0.00000000000E+00  0.45460075024E+03  0.45460075024E+03  0.00000000000E+00 0.  1.
         -1   -1    0    0    0  501 -0.00000000000E+00 -0.00000000000E+00 -0.11289561324E+03  0.11289561324E+03  0.00000000000E+00 0. -1.
          6    2    1    2  502    0  0.86350050054E+02 -0.12090128913E+03  0.17319006827E+03  0.28509139767E+03  0.17090597539E+03 0.  0.
         24    2    3    3    0    0  0.60682354036E+02 -0.11926685084E+03  0.19609646474E+03  0.25033085961E+03  0.79402682489E+02 0.  0.
         -6    2    1    2    0  501 -0.86350050054E+02  0.12090128913E+03  0.16851506873E+03  0.28240496581E+03  0.17111920835E+03 0.  0.
        -24    2    5    5    0    0 -0.91118264671E+02  0.17475081375E+02  0.89155049756E+02  0.15186830838E+03  0.80668727319E+02 0.  0.
          5    1    3    3  502    0  0.25667696017E+02 -0.16344382871E+01 -0.22906396472E+02  0.34760538066E+02  0.47000000000E+01 0. -1.
        -11    1    4    4    0    0  0.16162969957E+01 -0.44646238558E+02  0.17538924278E+02  0.47994925755E+02  0.00000000000E+00 0.  1.
         12    1    4    4    0    0  0.59066057041E+02 -0.74620612287E+02  0.17855754046E+03  0.20233593385E+03  0.00000000000E+00 0. -1.
         -5    1    5    5    0  501  0.47682146169E+01  0.10342620776E+03  0.79360018972E+02  0.13053665743E+03  0.47000000000E+01 0.  1.
         11    1    6    6    0    0 -0.83778351362E+02  0.41064247088E+02  0.86131582462E+02  0.12697926619E+03  0.00000000000E+00 0. -1.
        -12    1    6    6    0    0 -0.73399133081E+01 -0.23589165713E+02  0.30234672946E+01  0.24889042185E+02  0.00000000000E+00 0.  1.
</event>
<event>
12    1  0.2625820E-002  0.2057886E+03  0.7818608E-02  0.1144945E+00
         -2   -1    0    0    0  501 -0.00000000000E+00  0.00000000000E+00  0.82261258547E+02  0.82261258547E+02  0.00000000000E+00 0.  1.
          2   -1    0    0  502    0  0.00000000000E+00 -0.00000000000E+00 -0.63656577127E+03  0.63656577127E+03  0.00000000000E+00 0. -1.
          6    2    1    2  502    0  0.10253130428E+03 -0.34611938418E+02 -0.11766983505E+03  0.23520356421E+03  0.17252209104E+03 0.  0.
         24    2    3    3    0    0  0.74889120433E+02  0.22288917928E+02 -0.12689371942E+02  0.11254637765E+03  0.80003067068E+02 0.  0.
         -6    2    1    2    0  501 -0.10253130428E+03  0.34611938418E+02 -0.43663467768E+03  0.48362346561E+03  0.17757015544E+03 0.  0.
        -24    2    5    5    0    0 -0.29941485784E+02 -0.33778848972E+02 -0.11337219229E+03  0.14529329254E+03  0.78863069080E+02 0.  0.
          5    1    3    3  502    0  0.27642183843E+02 -0.56900856345E+02 -0.10498046311E+03  0.12265718656E+03  0.47000000000E+01 0. -1.
        -13    1    4    4    0    0  0.73848114723E+02  0.94061318868E+01  0.20260300185E+02  0.77152440848E+02  0.00000000000E+00 0.  1.
         14    1    4    4    0    0  0.10410057095E+01  0.12882786041E+02 -0.32949672127E+02  0.35393936801E+02  0.00000000000E+00 0. -1.
         -5    1    5    5    0  501 -0.72589818492E+02  0.68390787390E+02 -0.32326248539E+03  0.33833017307E+03  0.47000000000E+01 0.  1.
         13    1    6    6    0    0 -0.11161897917E+02 -0.22744279777E+02 -0.11990559760E+03  0.12255301940E+03  0.00000000000E+00 0. -1.
        -14    1    6    6    0    0 -0.18779587866E+02 -0.11034569195E+02  0.65334053109E+01  0.22740273145E+02  0.00000000000E+00 0.  1.
</event>
<event>
12    1  0.2625820E-002  0.2181891E+03  0.7818608E-02  0.1135240E+00
         -1   -1    0    0    0  501 -0.00000000000E+00  0.00000000000E+00  0.77896981841E+03  0.77896981841E+03  0.00000000000E+00 0. -1.
          1   -1    0    0  502    0  0.00000000000E+00 -0.00000000000E+00 -0.11595714832E+03  0.11595714832E+03  0.00000000000E+00 0.  1.
          6    2    1    2  502    0 -0.77508662671E+02 -0.11018937573E+03  0.23772770338E+02  0.21947372144E+03  0.17162248827E+03 0.  0.
         24    2    3    3    0    0 -0.61036929369E+02 -0.74938388833E+02 -0.50310330131E+02  0.13566235079E+03  0.80820017551E+02 0.  0.
         -6    2    1    2    0  501  0.77508662671E+02  0.11018937573E+03  0.63923989974E+03  0.67545324529E+03  0.17163958119E+03 0.  0.
        -24    2    5    5    0    0  0.10672024916E+03  0.82694391409E+02  0.59623968052E+03  0.61645833194E+03  0.79319256389E+02 0.  0.
          5    1    3    3  502    0 -0.16471733302E+02 -0.35250986895E+02  0.74083100469E+02  0.83811370650E+02  0.47000000000E+01 0. -1.
        -13    1    4    4    0    0 -0.71349148162E+02 -0.30351020410E+02 -0.17877154467E+02  0.79570585238E+02  0.00000000000E+00 0.  1.
         14    1    4    4    0    0  0.10312218793E+02 -0.44587368423E+02 -0.32433175664E+02  0.56091765554E+02  0.00000000000E+00 0. -1.
         -5    1    5    5    0  501 -0.29211586488E+02  0.27494984320E+02  0.43000219221E+02  0.58994913348E+02  0.47000000000E+01 0.  1.
         13    1    6    6    0    0  0.10994588792E+03  0.88104705917E+02  0.48525152453E+03  0.50529157873E+03  0.00000000000E+00 0. -1.
        -14    1    6    6    0    0 -0.32256387586E+01 -0.54103145082E+01  0.11098815599E+03  0.11116675321E+03  0.00000000000E+00 0.  1.
</event>
<event>
12    1  0.2625820E-002  0.1894738E+03  0.7818608E-02  0.1158937E+00
          2   -1    0    0  502    0  0.00000000000E+00  0.00000000000E+00  0.13993429702E+04  0.13993429702E+04  0.00000000000E+00 0.  1.
         -2   -1    0    0    0  501 -0.00000000000E+00 -0.00000000000E+00 -0.39224984469E+02  0.39224984469E+02  0.00000000000E+00 0. -1.
          6    2    1    2  502    0  0.72023148124E+02  0.33279055780E+02  0.11058080991E+04  0.11221190095E+04  0.17333404139E+03 0.  0.
         24    2    3    3    0    0  0.72781575623E+02  0.75216057042E+02  0.56112553151E+03  0.57580364565E+03  0.75718975431E+02 0.  0.
         -6    2    1    2    0  501 -0.72023148124E+02 -0.33279055780E+02  0.25430988657E+03  0.31644894517E+03  0.17079691762E+03 0.  0.
        -24    2    5    5    0    0 -0.21357073023E+02  0.97807911085E+01  0.43397260386E+02  0.95253494342E+02  0.81474643494E+02 0.  0.
          5    1    3    3  502    0 -0.75842749833E+00 -0.41937001261E+02  0.54468256761E+03  0.54631536382E+03  0.47000000000E+01 0. -1.
        -11    1    4    4    0    0  0.48530581373E+02  0.65269479223E+02  0.52447829898E+03  0.53074740541E+03  0.00000000000E+00 0.  1.
         12    1    4    4    0    0  0.24250994249E+02  0.99465778185E+01  0.36647232536E+02  0.45056240244E+02  0.00000000000E+00 0. -1.
         -5    1    5    5    0  501 -0.50666075102E+02 -0.43059846889E+02  0.21091262619E+03  0.22119545082E+03  0.47000000000E+01 0.  1.
         13    1    6    6    0    0 -0.52063641983E+02  0.17620037816E+01  0.33798930993E+02  0.62097465408E+02  0.00000000000E+00 0. -1.
        -14    1    6    6    0    0  0.30706568960E+02  0.80187873269E+01  0.95983293933E+01  0.33156028934E+02  0.00000000000E+00 0.  1.
</event>
<event>
12    1  0.2625820E-002  0.2696194E+03  0.7818608E-02  0.1101498E+00
         -1   -1    0    0    0  501 -0.00000000000E+00  0.00000000000E+00  0.25373004971E+03  0.25373004971E+03  0.00000000000E+00 0. -1.
          1   -1    0    0  502    0  0.00000000000E+00 -0.00000000000E+00 -0.29197665310E+03  0.29197665310E+03  0.00000000000E+00 0.  1.
          6    2    1    2  502    0  0.17713364747E+03  0.10881436253E+03  0.18247641920E+02  0.27001566431E+03  0.17134347954E+03 0.  0.
         24    2    3    3    0    0  0.19915041853E+03  0.11202922393E+03  0.21017233516E+01  0.24212562615E+03  0.80056014033E+02 0.  0.
         -6    2    1    2    0  501 -0.17713364747E+03 -0.10881436253E+03 -0.56494245310E+02  0.27569103851E+03  0.17203794466E+03 0.  0.
        -24    2    5    5    0    0 -0.49978679085E+02  0.16515153816E+01 -0.52900253143E+02  0.10714993686E+03  0.78626180880E+02 0.  0.
          5    1    3    3  502    0 -0.22016771067E+02 -0.32148614077E+01  0.16145918569E+02  0.27890038159E+02  0.47000000000E+01 0. -1.
        -11    1    4    4    0    0  0.13863958255E+02  0.87307413768E+01 -0.23289872688E+02  0.28475486884E+02  0.00000000000E+00 0.  1.
         12    1    4    4    0    0  0.18528646028E+03  0.10329848256E+03  0.25391596040E+02  0.21365013927E+03  0.00000000000E+00 0. -1.
         -5    1    5    5    0  501 -0.12715496838E+03 -0.11046587791E+03 -0.35939921665E+01  0.16854110165E+03  0.47000000000E+01 0.  1.
         11    1    6    6    0    0 -0.30825411872E+01 -0.23022545486E+02 -0.48744679476E+02  0.53996142807E+02  0.00000000000E+00 0. -1.
        -12    1    6    6    0    0 -0.46896137898E+02  0.24674060867E+02 -0.41555736672E+01  0.53153794050E+02  0.00000000000E+00 0.  1.
</event>
<event>
12    1  0.2625820E-002  0.2533319E+03  0.7818608E-02  0.1111217E+00
          1   -1    0    0  502    0  0.00000000000E+00  0.00000000000E+00  0.45619687494E+03  0.45619687494E+03  0.00000000000E+00 0.  1.
         -1   -1    0    0    0  501 -0.00000000000E+00 -0.00000000000E+00 -0.14604700117E+03  0.14604700117E+03  0.00000000000E+00 0. -1.
          6    2    1    2  502    0 -0.18591873756E+03 -0.17964712699E+02  0.21276500419E+03  0.33076979791E+03  0.17102983460E+03 0.  0.
         24    2    3    3    0    0 -0.58421585878E+02  0.35824872497E+02  0.59867122548E+02  0.12449644681E+03  0.84963461090E+02 0.  0.
         -6    2    1    2    0  501  0.18591873756E+03  0.17964712699E+02  0.97384869577E+02  0.27147407820E+03  0.17124793264E+03 0.  0.
        -24    2    5    5    0    0  0.15816313947E+03  0.56415078595E+02  0.21240247943E+02  0.18164703735E+03  0.65926157690E+02 0.  0.
          5    1    3    3  502    0 -0.12749715169E+03 -0.53789585196E+02  0.15289788164E+03  0.20627335110E+03  0.47000000000E+01 0. -1.
        -11    1    4    4    0    0  0.16761986710E+02 -0.11459930352E+02  0.99184227247E+01  0.22597993528E+02  0.00000000000E+00 0.  1.
         12    1    4    4    0    0 -0.75183572588E+02  0.47284802849E+02  0.49948699823E+02  0.10189845328E+03  0.00000000000E+00 0. -1.
         -5    1    5    5    0  501  0.27755598096E+02 -0.38450365896E+02  0.76144621634E+02  0.89827040845E+02  0.47000000000E+01 0.  1.
         13    1    6    6    0    0  0.67581476261E+02 -0.96628504360E+01  0.71013434445E+01  0.68637130555E+02  0.00000000000E+00 0. -1.
        -14    1    6    6    0    0  0.90581663207E+02  0.66077929031E+02  0.14138904499E+02  0.11300990680E+03  0.00000000000E+00 0.  1.
</event>
<event>
12    1  0.2625820E-002  0.1761726E+03  0.7818608E-02  0.1171559E+00
          2   -1    0    0  502    0  0.00000000000E+00  0.00000000000E+00  0.16856361416E+04  0.16856361416E+04  0.00000000000E+00 0.  1.
         -2   -1    0    0    0  501 -0.00000000000E+00 -0.00000000000E+00 -0.22779374657E+02  0.22779374657E+02  0.00000000000E+00 0. -1.
          6    2    1    2  502    0  0.47231251523E+02  0.40561662730E+02  0.43826484010E+03  0.47044808893E+03  0.15927741428E+03 0.  0.
         24    2    3    3    0    0  0.74494656462E+02 -0.13442368661E+02  0.25393366469E+03  0.27638675614E+03  0.78595049381E+02 0.  0.
         -6    2    1    2    0  501 -0.47231251523E+02 -0.40561662730E+02  0.12245919269E+04  0.12379674274E+04  0.17047558256E+03 0.  0.
        -24    2    5    5    0    0  0.54969444670E+01  0.45579161317E+01  0.31293437786E+03  0.32366024938E+03  0.82322786527E+02 0.  0.
          5    1    3    3  502    0 -0.27263404939E+02  0.54004031392E+02  0.18433117541E+03  0.19406133279E+03  0.47000000000E+01 0. -1.
        -13    1    4    4    0    0 -0.89858837985E+00  0.18521021332E+02  0.10313136810E+03  0.10478508853E+03  0.00000000000E+00 0.  1.
         14    1    4    4    0    0  0.75393244842E+02 -0.31963389994E+02  0.15080229659E+03  0.17160166761E+03  0.00000000000E+00 0. -1.
         -5    1    5    5    0  501 -0.52728195990E+02 -0.45119578862E+02  0.91165754902E+03  0.91430717800E+03  0.47000000000E+01 0.  1.
         13    1    6    6    0    0  0.40447243945E+02  0.22838358090E+01  0.23143207165E+03  0.23495105711E+03  0.00000000000E+00 0. -1.
        -14    1    6    6    0    0 -0.34950299478E+02  0.22740803227E+01  0.81502306207E+02  0.88709192264E+02  0.00000000000E+00 0.  1.
</event>
<event>
12    1  0.2625820E-002  0.1932482E+03  0.7818608E-02  0.1155564E+00
         -2   -1    0    0    0  501 -0.00000000000E+00  0.00000000000E+00  0.33819666989E+02  0.33819666989E+02  0.00000000000E+00 0. -1.
          2   -1    0    0  502    0  0.00000000000E+00 -0.00000000000E+00 -0.13340620364E+04  0.13340620364E+04  0.00000000000E+00 0.  1.
          6    2    1    2  502    0  0.73944995460E+02 -0.47995523920E+02 -0.36858417016E+03  0.41656128222E+03  0.17290916310E+03 0.  0.
         24    2    3    3    0    0 -0.15548652567E+02  0.18783219781E+02 -0.11627829894E+03  0.14061045997E+03  0.75206972469E+02 0.  0.
         -6    2    1    2    0  501 -0.73944995460E+02  0.47995523920E+02 -0.93165819921E+03  0.95132042112E+03  0.17103248471E+03 0.  0.
        -24    2    5    5    0    0 -0.35767884020E+02  0.68654750596E+02 -0.86140885367E+03  0.86860793093E+03  0.80384751013E+02 0.  0.
          5    1    3    3  502    0  0.89493648027E+02 -0.66778743701E+02 -0.25230587122E+03  0.27595082225E+03  0.47000000000E+01 0. -1.
        -11    1    4    4    0    0 -0.35144288330E+02 -0.92707954132E+01 -0.91226266951E+02  0.98200307697E+02  0.00000000000E+00 0.  1.
         12    1    4    4    0    0  0.19595635763E+02  0.28054015194E+02 -0.25052031987E+02  0.42410152277E+02  0.00000000000E+00 0. -1.
         -5    1    5    5    0  501 -0.38177111440E+02 -0.20659226676E+02 -0.70249345542E+02  0.82712490192E+02  0.47000000000E+01 0.  1.
         11    1    6    6    0    0 -0.37622547473E+02  0.50404040684E+02 -0.28286948340E+03  0.28977779079E+03  0.00000000000E+00 0. -1.
        -12    1    6    6    0    0  0.18546634529E+01  0.18250709911E+02 -0.57853937027E+03  0.57883014014E+03  0.00000000000E+00 0.  1.
</event>
<event>
12    1  0.2625820E-002  0.2129367E+03  0.7818608E-02  0.1139261E+00
          1   -1    0    0  502    0  0.00000000000E+00  0.00000000000E+00  0.67293292876E+03  0.67293292876E+03  0.00000000000E+00 0.  1.
         -1   -1    0    0    0  501 -0.00000000000E+00 -0.00000000000E+00 -0.68558204635E+02  0.68558204635E+02  0.00000000000E+00 0. -1.
          6    2    1    2  502    0 -0.74111336690E+02  0.99044735537E+02  0.35122831255E+03  0.41089745112E+03  0.17370388001E+03 0.  0.
         24    2    3    3    0    0 -0.47485094717E+02  0.13261367320E+03  0.31365061663E+03  0.35371350609E+03  0.83038030684E+02 0.  0.
         -6    2    1    2    0  501  0.74111336690E+02 -0.99044735537E+02  0.25314641158E+03  0.33059368228E+03  0.17293561579E+03 0.  0.
        -24    2    5    5    0    0 -0.20037484167E+02 -0.12261558735E+02  0.12619457135E+03  0.15022134521E+03  0.78035479901E+02 0.  0.
          5    1    3    3  502    0 -0.26626241974E+02 -0.33568937665E+02  0.37577695923E+02  0.57183945024E+02  0.47000000000E+01 0. -1.
        -13    1    4    4    0    0 -0.43413867912E+02  0.13939050281E+03  0.24948495468E+03  0.28906265552E+03  0.00000000000E+00 0.  1.
         14    1    4    4    0    0 -0.40712268047E+01 -0.67768296080E+01  0.64165661947E+02  0.64650850577E+02  0.00000000000E+00 0. -1.
         -5    1    5    5    0  501  0.94148820858E+02 -0.86783176803E+02  0.12695184023E+03  0.18037233708E+03  0.47000000000E+01 0.  1.
         11    1    6    6    0    0  0.21587044601E+02  0.11952671392E+01  0.61851489785E+01  0.22487445965E+02  0.00000000000E+00 0. -1.
        -12    1    6    6    0    0 -0.41624528769E+02 -0.13456825874E+02  0.12000942237E+03  0.12773389924E+03  0.00000000000E+00 0.  1.
</event>
<event>
12    1  0.2625820E-002  0.3741591E+03  0.7818608E-02  0.1053114E+00
          2   -1    0    0  502    0  0.00000000000E+00  0.00000000000E+00  0.17434828773E+04  0.17434828773E+04  0.00000000000E+00 0. -1.
         -2   -1    0    0    0  501 -0.00000000000E+00 -0.00000000000E+00 -0.29474192946E+03  0.29474192946E+03  0.00000000000E+00 0.  1.
          6    2    1    2  502    0 -0.58346343729E+02 -0.32726044710E+03 -0.14499024248E+03  0.40112724744E+03  0.17139778926E+03 0.  0.
         24    2    3    3    0    0  0.21290262955E+02 -0.24748178625E+03 -0.10733293920E+03  0.28218698369E+03  0.80053882496E+02 0.  0.
         -6    2    1    2    0  501  0.58346343729E+02  0.32726044710E+03  0.15937311903E+04  0.16370975593E+04  0.17206282488E+03 0.  0.
        -24    2    5    5    0    0  0.10512565470E+03  0.22564074663E+03  0.10691968208E+04  0.11007457510E+04  0.80586704778E+02 0.  0.
          5    1    3    3  502    0 -0.79636606684E+02 -0.79778660845E+02 -0.37657303276E+02  0.11894026375E+03  0.47000000000E+01 0. -1.
        -13    1    4    4    0    0 -0.25958727907E+02 -0.14157423804E+03 -0.46682566997E+02  0.15131550645E+03  0.00000000000E+00 0.  1.
         14    1    4    4    0    0  0.47248990863E+02 -0.10590754821E+03 -0.60650372204E+02  0.13087147724E+03  0.00000000000E+00 0. -1.
         -5    1    5    5    0  501 -0.46779310973E+02  0.10161970047E+03  0.52453436955E+03  0.53635180833E+03  0.47000000000E+01 0.  1.
         13    1    6    6    0    0  0.67338732687E+02  0.19866006784E+03  0.77402811520E+03  0.80194753606E+03  0.00000000000E+00 0. -1.
        -14    1    6    6    0    0  0.37786922015E+02  0.26980678783E+02  0.29516870556E+03  0.29879821493E+03  0.00000000000E+00 0.  1.
</event>
<event>
12    1  0.2625820E-002  0.2326055E+03  0.7818608E-02  0.1124819E+00
          2   -1    0    0  502    0  0.00000000000E+00  0.00000000000E+00  0.99551559460E+03  0.99551559460E+03  0.00000000000E+00 0.  1.
         -2   -1    0    0    0  501 -0.00000000000E+00 -0.00000000000E+00 -0.55762571727E+02  0.55762571727E+02  0.00000000000E+00 0. -1.
          6    2    1    2  502    0 -0.69053726461E+02  0.13081982483E+03  0.54647685091E+03  0.59260030733E+03  0.17508835474E+03 0.  0.
         24    2    3    3    0    0 -0.96160495911E+01  0.65983707574E+01  0.29087577387E+03  0.30222501970E+03  0.81211081776E+02 0.  0.
         -6    2    1    2    0  501  0.69053726461E+02 -0.13081982483E+03  0.39327617197E+03  0.45867785900E+03  0.18394832750E+03 0.  0.
        -24    2    5    5    0    0  0.11053521248E+03 -0.89904505501E+02  0.34877877464E+03  0.38521436189E+03  0.80265918406E+02 0.  0.
          5    1    3    3  502    0 -0.59437676870E+02  0.12422145407E+03  0.25560107704E+03  0.29037528763E+03  0.47000000000E+01 0. -1.
        -13    1    4    4    0    0 -0.43903614528E+02  0.15116984810E+02  0.15267309510E+03  0.15957795765E+03  0.00000000000E+00 0.  1.
         14    1    4    4    0    0  0.34287564937E+02 -0.85186140527E+01  0.13820267876E+03  0.14264706205E+03  0.00000000000E+00 0. -1.
         -5    1    5    5    0  501 -0.41481486021E+02 -0.40915319329E+02  0.44497397325E+02  0.73463497105E+02  0.47000000000E+01 0.  1.
         13    1    6    6    0    0  0.28431685741E+02 -0.30923187745E+02  0.32323200826E+02  0.53003713134E+02  0.00000000000E+00 0. -1.
        -14    1    6    6    0    0  0.82103526741E+02 -0.58981317756E+02  0.31645557382E+03  0.33221064876E+03  0.00000000000E+00 0.  1.
</event>
<event>
12    1  0.2625820E-002  0.1776603E+03  0.7818608E-02  0.1170087E+00
         -2   -1    0    0    0  501 -0.00000000000E+00  0.00000000000E+00  0.11920498600E+04  0.11920498600E+04  0.00000000000E+00 0. -1.
          2   -1    0    0  502    0  0.00000000000E+00 -0.00000000000E+00 -0.58284454278E+02  0.58284454278E+02  0.00000000000E+00 0.  1.
          6    2    1    2  502    0 -0.12223570071E+02 -0.42387336560E+02  0.10518521052E+03  0.20653868260E+03  0.17218651786E+03 0.  0.
         24    2    3    3    0    0 -0.73552243035E+02 -0.35927097172E+02  0.80556630508E+02  0.13996843569E+03  0.80006896599E+02 0.  0.
         -6    2    1    2    0  501  0.12223570071E+02  0.42387336560E+02  0.10285801952E+04  0.10437956317E+04  0.17200581613E+03 0.  0.
        -24    2    5    5    0    0 -0.45150098103E+02 -0.57817104680E+01  0.36963015527E+03  0.38058432295E+03  0.78396528362E+02 0.  0.
          5    1    3    3  502    0  0.61328672964E+02 -0.64602393874E+01  0.24628580010E+02  0.66570246911E+02  0.47000000000E+01 0. -1.
        -11    1    4    4    0    0 -0.28565442939E+02 -0.42676059184E+02  0.79281299909E+02  0.94460335978E+02  0.00000000000E+00 0.  1.
         12    1    4    4    0    0 -0.44986800095E+02  0.67489620114E+01  0.12753305988E+01  0.45508099709E+02  0.00000000000E+00 0. -1.
         -5    1    5    5    0  501  0.57373668174E+02  0.48169047028E+02  0.65895003995E+03  0.66321130874E+03  0.47000000000E+01 0.  1.
         13    1    6    6    0    0 -0.32123939537E+02  0.32773328347E+02  0.13867792461E+03  0.14607397207E+03  0.00000000000E+00 0. -1.
        -14    1    6    6    0    0 -0.13026158566E+02 -0.38555038815E+02  0.23095223065E+03  0.23451035088E+03  0.00000000000E+00 0.  1.
</event>
<event>
12    1  0.2625820E-002  0.1779352E+03  0.7818608E-02  0.1169816E+00
         -2   -1    0    0    0  501 -0.00000000000E+00  0.00000000000E+00  0.24586023230E+03  0.24586023230E+03  0.00000000000E+00 0.  1.
          2   -1    0    0  502    0  0.00000000000E+00 -0.00000000000E+00 -0.14766833909E+03  0.14766833909E+03  0.00000000000E+00 0. -1.
          6    2    1    2  502    0  0.17119325944E+02 -0.40441416813E+02 -0.21512306075E+02  0.17825341560E+03  0.17141447239E+03 0.  0.
         24    2    3    3    0    0  0.28521901204E+02  0.39652848361E+02 -0.22453606240E+02  0.97209686154E+02  0.80992045397E+02 0.  0.
         -6    2    1    2    0  501 -0.17119325944E+02  0.40441416813E+02  0.11970419929E+03  0.21527515580E+03  0.17345235041E+03 0.  0.
        -24    2    5    5    0    0  0.52982468198E+02  0.39498220738E+02  0.49392061919E+02  0.11587174629E+03  0.81359906772E+02 0.  0.
          5    1    3    3  502    0 -0.11402575259E+02 -0.80094265173E+02  0.94130016481E+00  0.81043729444E+02  0.47000000000E+01 0. -1.
        -11    1    4    4    0    0 -0.21186676376E+02  0.20598926773E+02  0.13990906022E+02  0.32694594223E+02  0.00000000000E+00 0.  1.
         12    1    4    4    0    0  0.49708577580E+02  0.19053921587E+02 -0.36444512262E+02  0.64515091931E+02  0.00000000000E+00 0. -1.
         -5    1    5    5    0  501 -0.70101794142E+02  0.94319607427E+00  0.70312137367E+02  0.99403409508E+02  0.47000000000E+01 0.  1.
         13    1    6    6    0    0  0.87911173259E+01 -0.23187274500E+02  0.25429905842E+02  0.35519199790E+02  0.00000000000E+00 0. -1.
        -14    1    6    6    0    0  0.44191350872E+02  0.62685495239E+02  0.23962156077E+02  0.80352546500E+02  0.00000000000E+00 0.  1.
</event>
<event>
12    1  0.2625820E-002  0.1795316E+03  0.7818608E-02  0.1168257E+00
          2   -1    0    0  502    0  0.00000000000E+00  0.00000000000E+00  0.11505629758E+03  0.11505629758E+03  0.00000000000E+00 0. -1.
         -2   -1    0    0    0  501 -0.00000000000E+00 -0.00000000000E+00 -0.73365408234E+03  0.73365408234E+03  0.00000000000E+00 0.  1.
          6    2    1    2  502    0 -0.16647326821E+02  0.40594470640E+02  0.24012096146E+02  0.18162739486E+03  0.17460494055E+03 0.  0.
         24    2    3    3    0    0 -0.33438871074E+02 -0.30672708758E+02  0.47144187623E+02  0.10469787858E+03  0.81731867665E+02 0.  0.
         -6    2    1    2    0  501  0.16647326821E+02 -0.40594470640E+02 -0.64260988090E+03  0.66708298507E+03  0.17357190267E+03 0.  0.
        -24    2    5    5    0    0  0.71752350338E+02  0.16638492854E+00 -0.45860949215E+03  0.47067462469E+03  0.77868533933E+02 0.  0.
          5    1    3    3  502    0  0.16791544253E+02  0.71267179399E+02 -0.23132091477E+02  0.76929516273E+02  0.47000000000E+01 0. -1.
        -13    1    4    4    0    0  0.89631273054E+01 -0.19097255945E+01 -0.18961838655E+02  0.21060295063E+02  0.00000000000E+00 0.  1.
         14    1    4    4    0    0 -0.42401998379E+02 -0.28762983164E+02  0.66106026278E+02  0.83637583521E+02  0.00000000000E+00 0. -1.
         -5    1    5    5    0  501 -0.55105023517E+02 -0.40760855569E+02 -0.18400038875E+03  0.19640836037E+03  0.47000000000E+01 0.  1.
         13    1    6    6    0    0  0.55224915019E+02  0.25198997535E+02 -0.40248694042E+03  0.40703871797E+03  0.00000000000E+00 0. -1.
        -14    1    6    6    0    0  0.16527435319E+02 -0.25032612606E+02 -0.56122551727E+02  0.63635906723E+02  0.00000000000E+00 0.  1.
</event>
<event>
12    1  0.2625820E-002  0.1744013E+03  0.7818608E-02  0.1173334E+00
         -1   -1    0    0    0  501 -0.00000000000E+00  0.00000000000E+00  0.14141696168E+04  0.14141696168E+04  0.00000000000E+00 0.  1.
          1   -1    0    0  502    0  0.00000000000E+00 -0.00000000000E+00 -0.23539584741E+02  0.23539584741E+02  0.00000000000E+00 0. -1.
          6    2    1    2  502    0 -0.81959157276E+01 -0.23627218605E+02  0.48318189307E+03  0.51360486848E+03  0.17233630102E+03 0.  0.
         24    2    3    3    0    0  0.41636403936E+02  0.13877730535E+02  0.39478501107E+03  0.40531830403E+03  0.80632134309E+02 0.  0.
         -6    2    1    2    0  501  0.81959157276E+01  0.23627218605E+02  0.90744813894E+03  0.92410433301E+03  0.17286201122E+03 0.  0.
        -24    2    5    5    0    0  0.62284914573E+02  0.25506770114E+02  0.38586305037E+03  0.39969776637E+03  0.79611587709E+02 0.  0.
          5    1    3    3  502    0 -0.49832319664E+02 -0.37504949140E+02  0.88396882002E+02  0.10828656445E+03  0.47000000000E+01 0. -1.
        -11    1    4    4    0    0 -0.12141879571E+02 -0.22173898954E+02  0.78346059473E+02  0.82323824433E+02  0.00000000000E+00 0.  1.
         12    1    4    4    0    0  0.53778283508E+02  0.36051629489E+02  0.31643895159E+03  0.32299447960E+03  0.00000000000E+00 0. -1.
         -5    1    5    5    0  501 -0.54088998845E+02 -0.18795515092E+01  0.52158508857E+03  0.52440656663E+03  0.47000000000E+01 0.  1.
         11    1    6    6    0    0  0.52615947093E+01 -0.26532930033E+02  0.10065351495E+03  0.10422480908E+03  0.00000000000E+00 0. -1.
        -12    1    6    6    0    0  0.57023319863E+02  0.52039700147E+02  0.28520953542E+03  0.29547295730E+03  0.00000000000E+00 0.  1.
</event>
<event>
12    1  0.2625820E-002  0.1850930E+03  0.7818608E-02  0.1162963E+00
          2   -1    0    0  502    0  0.00000000000E+00  0.00000000000E+00  0.23876681763E+02  0.23876681763E+02  0.00000000000E+00 0. -1.
         -2   -1    0    0    0  501 -0.00000000000E+00 -0.00000000000E+00 -0.14637727619E+04  0.14637727619E+04  0.00000000000E+00 0.  1.
          6    2    1    2  502    0  0.77292880999E+01 -0.66337252388E+02 -0.61452740499E+03  0.64173173656E+03  0.17238131360E+03 0.  0.
         24    2    3    3    0    0  0.11548777259E+02  0.27232385429E+02 -0.38915049361E+03  0.39762784925E+03  0.76123733157E+02 0.  0.
         -6    2    1    2    0  501 -0.77292880999E+01  0.66337252388E+02 -0.82536867512E+03  0.84591770707E+03  0.17286683985E+03 0.  0.
        -24    2    5    5    0    0 -0.30331036032E+00 -0.23134599327E+01 -0.18883620390E+03  0.20563359641E+03  0.81367192257E+02 0.  0.
          5    1    3    3  502    0 -0.38194891590E+01 -0.93569637816E+02 -0.22537691138E+03  0.24410388731E+03  0.47000000000E+01 0. -1.
        -11    1    4    4    0    0 -0.66034099817E+01  0.37175252573E+02 -0.87886588639E+02  0.95653838866E+02  0.00000000000E+00 0.  1.
         12    1    4    4    0    0  0.18152187241E+02 -0.99428671442E+01 -0.30126390497E+03  0.30197401038E+03  0.00000000000E+00 0. -1.
         -5    1    5    5    0  501 -0.74259777396E+01  0.68650712320E+02 -0.63653247122E+03  0.64028411066E+03  0.47000000000E+01 0.  1.
         13    1    6    6    0    0  0.29540388213E+02 -0.18166784542E+02 -0.39687520521E+02  0.52704514811E+02  0.00000000000E+00 0. -1.
        -14    1    6    6    0    0 -0.29843698573E+02  0.15853324609E+02 -0.14914868338E+03  0.15292908160E+03  0.00000000000E+00 0.  1.
</event>
<event>
12    1  0.2625820E-002  0.2048435E+03  0.7818608E-02  0.1145716E+00
         -2   -1    0    0    0  501 -0.00000000000E+00  0.00000000000E+00  0.10235497777E+03  0.10235497777E+03  0.00000000000E+00 0. -1.
          2   -1    0    0  502    0  0.00000000000E+00 -0.00000000000E+00 -0.90460180901E+03  0.90460180901E+03  0.00000000000E+00 0.  1.
          6    2    1    2  502    0 -0.53635877722E+02 -0.94712041340E+02 -0.77254033091E+03  0.79898284104E+03  0.17235962183E+03 0.  0.
         24    2    3    3    0    0 -0.55781058979E+02 -0.41842686887E+01 -0.55409927614E+03  0.56246970433E+03  0.78848752884E+02 0.  0.
         -6    2    1    2    0  501  0.53635877722E+02  0.94712041340E+02 -0.29706500332E+02  0.20797394574E+03  0.17470978161E+03 0.  0.
        -24    2    5    5    0    0  0.29773901089E+02  0.96551109739E+02 -0.79554234250E+02  0.15247923718E+03  0.81929479464E+02 0.  0.
          5    1    3    3  502    0  0.21451812573E+01 -0.90527772651E+02 -0.21844105477E+03  0.23651313670E+03  0.47000000000E+01 0. -1.
        -13    1    4    4    0    0 -0.22295304331E+01  0.28594857204E+02 -0.26977034963E+03  0.27129076321E+03  0.00000000000E+00 0.  1.
         14    1    4    4    0    0 -0.53551528546E+02 -0.32779125892E+02 -0.28432892651E+03  0.29117894113E+03  0.00000000000E+00 0. -1.
         -5    1    5    5    0  501  0.23861976632E+02 -0.18390683988E+01  0.49847733918E+02  0.55494708559E+02  0.47000000000E+01 0.  1.
         11    1    6    6    0    0  0.49561875675E+02  0.26346276514E+02 -0.44084998977E+02  0.71372214071E+02  0.00000000000E+00 0. -1.
        -12    1    6    6    0    0 -0.19787974586E+02  0.70204833225E+02 -0.35469235273E+02  0.81107023107E+02  0.00000000000E+00 0.  1.
</event>
<event>
12    1  0.2625820E-002  0.2171853E+03  0.7818608E-02  0.1135999E+00
          2   -1    0    0  502    0  0.00000000000E+00  0.00000000000E+00  0.13621512721E+04  0.13621512721E+04  0.00000000000E+00 0. -1.
         -2   -1    0    0    0  501 -0.00000000000E+00 -0.00000000000E+00 -0.36247809759E+02  0.36247809759E+02  0.00000000000E+00 0.  1.
          6    2    1    2  502    0 -0.10651677915E+03 -0.81258715015E+02  0.51755745631E+03  0.56159409224E+03  0.17196918574E+03 0.  0.
         24    2    3    3    0    0 -0.68499854998E+02 -0.10454894766E+03  0.48270743941E+03  0.50481086287E+03  0.78770696455E+02 0.  0.
         -6    2    1    2    0  501  0.10651677915E+03  0.81258715015E+02  0.80834600600E+03  0.83680498959E+03  0.16991327842E+03 0.  0.
        -24    2    5    5    0    0  0.77387115648E+02  0.11630987513E+03  0.71337277807E+03  0.73135772721E+03  0.80415495596E+02 0.  0.
          5    1    3    3  502    0 -0.38016924155E+02  0.23290232648E+02  0.34850016899E+02  0.56783229363E+02  0.47000000000E+01 0. -1.
        -13    1    4    4    0    0  0.13180319588E+02 -0.21111711917E+02  0.41282437111E+02  0.48204406628E+02  0.00000000000E+00 0.  1.
         14    1    4    4    0    0 -0.81680174586E+02 -0.83437235745E+02  0.44142500230E+03  0.45660645624E+03  0.00000000000E+00 0. -1.
         -5    1    5    5    0  501  0.29129663505E+02 -0.35051160114E+02  0.94973227926E+02  0.10544726238E+03  0.47000000000E+01 0.  1.
         13    1    6    6    0    0 -0.11650158347E+02  0.40949450666E+02  0.14414804093E+03  0.15030383030E+03  0.00000000000E+00 0. -1.
        -14    1    6    6    0    0  0.89037273995E+02  0.75360424462E+02  0.56922473714E+03  0.58105389691E+03  0.00000000000E+00 0.  1.
</event>
<event>
12    1  0.2625820E-002  0.1862187E+03  0.7818608E-02  0.1161917E+00
         -1   -1    0    0    0  501 -0.00000000000E+00  0.00000000000E+00  0.18493918270E+03  0.18493918270E+03  0.00000000000E+00 0. -1.
          1   -1    0    0  502    0  0.00000000000E+00 -0.00000000000E+00 -0.35523622680E+03  0.35523622680E+03  0.00000000000E+00 0.  1.
          6    2    1    2  502    0  0.61910682010E+02  0.44858958722E+02 -0.27105141684E+03  0.32961729919E+03  0.17127006343E+03 0.  0.
         24    2    3    3    0    0  0.13742633188E+02  0.59145275423E+02 -0.69413471021E+02  0.12176107252E+03  0.79501605327E+02 0.  0.
         -6    2    1    2    0  501 -0.61910682010E+02 -0.44858958722E+02  0.10075437274E+03  0.21055811032E+03  0.16833898975E+03 0.  0.
        -24    2    5    5    0    0 -0.12874005070E+02 -0.70220905985E+02  0.11071038507E+03  0.15426391669E+03  0.80273600811E+02 0.  0.
          5    1    3    3  502    0  0.48168048822E+02 -0.14286316701E+02 -0.20163794582E+03  0.20785622667E+03  0.47000000000E+01 0. -1.
        -13    1    4    4    0    0  0.33333676072E+02  0.79486324759E+01 -0.55465019988E+02  0.65197263447E+02  0.00000000000E+00 0.  1.
         14    1    4    4    0    0 -0.19591042883E+02  0.51196642947E+02 -0.13948451033E+02  0.56563809070E+02  0.00000000000E+00 0. -1.
         -5    1    5    5    0  501 -0.49036676940E+02  0.25361947263E+02 -0.99560123337E+01  0.56294193625E+02  0.47000000000E+01 0.  1.
         13    1    6    6    0    0 -0.27999304884E+01  0.17685631953E+02  0.11271444523E+02  0.21158134368E+02  0.00000000000E+00 0. -1.
        -14    1    6    6    0    0 -0.10074074581E+02 -0.87906537938E+02  0.99438940548E+02  0.13310578232E+03  0.00000000000E+00 0.  1.
</event>
<event>
12    1  0.2625820E-002  0.1991046E+03  0.7818608E-02  0.1150497E+00
         -1   -1    0    0    0  501 -0.00000000000E+00  0.00000000000E+00  0.44222341201E+02  0.44222341201E+02  0.00000000000E+00 0.  1.
          1   -1    0    0  502    0  0.00000000000E+00 -0.00000000000E+00 -0.13312142921E+04  0.13312142921E+04  0.00000000000E+00 0. -1.
          6    2    1    2  502    0  0.86108221272E+02 -0.49164949526E+02 -0.10375091828E+04  0.10565272825E+04  0.17318422633E+03 0.  0.
         24    2    3    3    0    0  0.50118085279E+02 -0.44598982492E+02 -0.29161534090E+03  0.30973691612E+03  0.79978487399E+02 0.  0.
         -6    2    1    2    0  501 -0.86108221272E+02  0.49164949526E+02 -0.24948276808E+03  0.31890935078E+03  0.17213281039E+03 0.  0.
        -24    2    5    5    0    0 -0.78905806613E+02  0.86872277136E+02 -0.24067118886E+03  0.27924259819E+03  0.79252057680E+02 0.  0.
          5    1    3    3  502    0  0.35990135993E+02 -0.45659670341E+01 -0.74589384187E+03  0.74679036636E+03  0.47000000000E+01 0. -1.
        -11    1    4    4    0    0  0.64436790754E+02 -0.38817194776E+02 -0.28125541571E+03  0.29114168970E+03  0.00000000000E+00 0.  1.
         12    1    4    4    0    0 -0.14318705475E+02 -0.57817877161E+01 -0.10359925186E+02  0.18595226418E+02  0.00000000000E+00 0. -1.
         -5    1    5    5    0  501 -0.72024146582E+01 -0.37707327609E+02 -0.88115792223E+01  0.39666752586E+02  0.47000000000E+01 0.  1.
         11    1    6    6    0    0 -0.78791375915E+02  0.40810183804E+02 -0.19565668009E+03  0.21483735356E+03  0.00000000000E+00 0. -1.
        -12    1    6    6    0    0 -0.11443069873E+00  0.46062093332E+02 -0.45014508767E+02  0.64405244631E+02  0.00000000000E+00 0.  1.
</event>
<event>
12    1  0.2625820E-002  0.1841919E+03  0.7818608E-02  0.1163807E+00
         -4   -1    0    0    0  501 -0.00000000000E+00  0.00000000000E+00  0.86457660456E+03  0.86457660456E+03  0.00000000000E+00 0. -1.
          4   -1    0    0  502    0  0.00000000000E+00 -0.00000000000E+00 -0.41916507878E+02  0.41916507878E+02  0.00000000000E+00 0.  1.
          6    2    1    2  502    0  0.65305080470E+02  0.14167460942E+02  0.29768469312E+03  0.35027935095E+03  0.17208711951E+03 0.  0.
         24    2    3    3    0    0  0.71350616481E+02  0.65302853994E+02  0.16211662402E+03  0.20518569744E+03  0.80398989059E+02 0.  0.
         -6    2    1    2    0  501 -0.65305080470E+02 -0.14167460942E+02  0.52497540357E+03  0.55621376149E+03  0.17119901762E+03 0.  0.
        -24    2    5    5    0    0 -0.43159277521E+00  0.24548601769E+02  0.41180307797E+03  0.42006102300E+03  0.79162288337E+02 0.  0.
          5    1    3    3  502    0 -0.60455360103E+01 -0.51135393051E+02  0.13556806910E+03  0.14509365351E+03  0.47000000000E+01 0. -1.
        -11    1    4    4    0    0  0.45441257341E+02  0.11771077416E+02  0.19806782111E+02  0.50948746303E+02  0.00000000000E+00 0.  1.
         12    1    4    4    0    0  0.25909359140E+02  0.53531776578E+02  0.14230984190E+03  0.15423695114E+03  0.00000000000E+00 0. -1.
         -5    1    5    5    0  501 -0.64873487695E+02 -0.38716062711E+02  0.11317232560E+03  0.13615273849E+03  0.47000000000E+01 0.  1.
         11    1    6    6    0    0 -0.41675150463E+01  0.53506464018E+02  0.26273878845E+03  0.26816409310E+03  0.00000000000E+00 0. -1.
        -12    1    6    6    0    0  0.37359222711E+01 -0.28957862250E+02  0.14906428952E+03  0.15189692990E+03  0.00000000000E+00 0.  1.
</event>
<event>
12    1  0.2625820E-002  0.2312956E+03  0.7818608E-02  0.1125731E+00
          3   -1    0    0  502    0  0.00000000000E+00  0.00000000000E+00  0.97312369466E+02  0.97312369466E+02  0.00000000000E+00 0.  1.
         -3   -1    0    0    0  501 -0.00000000000E+00 -0.00000000000E+00 -0.54981356259E+03  0.54981356259E+03  0.00000000000E+00 0. -1.
          6    2    1    2  502    0  0.60551402137E+02 -0.14231525712E+03 -0.22277721476E+03  0.32110154482E+03  0.17191977768E+03 0.  0.
         24    2    3    3    0    0  0.30936677653E+01 -0.14488528641E+03 -0.12475860842E+03  0.20735738682E+03  0.80193880648E+02 0.  0.
         -6    2    1    2    0  501 -0.60551402137E+02  0.14231525712E+03 -0.22972397837E+03  0.32602438724E+03  0.17204269857E+03 0.  0.
        -24    2    5    5    0    0 -0.86424826723E+02  0.14978399892E+03 -0.15186481382E+03  0.24350556692E+03  0.79545851156E+02 0.  0.
          5    1    3    3  502    0  0.57457734372E+02  0.25700292976E+01 -0.98018606339E+02  0.11374415800E+03  0.47000000000E+01 0. -1.
        -13    1    4    4    0    0  0.32382550969E+02 -0.11775134867E+03 -0.74059122719E+02  0.14282423947E+03  0.00000000000E+00 0.  1.
         14    1    4    4    0    0 -0.29288883204E+02 -0.27133937745E+02 -0.50699485702E+02  0.64533147353E+02  0.00000000000E+00 0. -1.
         -5    1    5    5    0  501  0.25873424586E+02 -0.74687418067E+01 -0.77859164545E+02  0.82518820324E+02  0.47000000000E+01 0.  1.
         11    1    6    6    0    0 -0.50338012518E+02  0.21142898747E+02 -0.28197136979E+02  0.61449297844E+02  0.00000000000E+00 0. -1.
        -12    1    6    6    0    0 -0.36086814205E+02  0.12864110018E+03 -0.12366767684E+03  0.18205626908E+03  0.00000000000E+00 0.  1.
</event>
<event>
12    1  0.2625820E-002  0.1800309E+03  0.7818608E-02  0.1167773E+00
         -2   -1    0    0    0  501 -0.00000000000E+00  0.00000000000E+00  0.61209351664E+03  0.61209351664E+03  0.00000000000E+00 0. -1.
          2   -1    0    0  502    0  0.00000000000E+00 -0.00000000000E+00 -0.13586172739E+03  0.13586172739E+03  0.00000000000E+00 0.  1.
          6    2    1    2  502    0  0.11876088212E+02  0.39555747458E+02  0.53180022559E+03  0.56244599218E+03  0.17840492019E+03 0.  0.
         24    2    3    3    0    0  0.11325522146E+02 -0.48370169213E+02  0.24627138598E+03  0.26364827098E+03  0.79955453314E+02 0.  0.
         -6    2    1    2    0  501 -0.11876088212E+02 -0.39555747458E+02 -0.55568436338E+02  0.18550925186E+03  0.17210500510E+03 0.  0.
        -24    2    5    5    0    0 -0.28679812465E+02  0.44034132041E-01 -0.95150046295E+02  0.12686369195E+03  0.78856397597E+02 0.  0.
          5    1    3    3  502    0  0.55056606534E+00  0.87925916671E+02  0.28552883961E+03  0.29879772120E+03  0.47000000000E+01 0. -1.
        -11    1    4    4    0    0 -0.19260016341E+02 -0.35583350369E+01  0.11549563324E+02  0.22737686572E+02  0.00000000000E+00 0.  1.
         12    1    4    4    0    0  0.30585538487E+02 -0.44811834176E+02  0.23472182266E+03  0.24091058441E+03  0.00000000000E+00 0. -1.
         -5    1    5    5    0  501  0.16803724254E+02 -0.39599781590E+02  0.39581609957E+02  0.58645559913E+02  0.47000000000E+01 0.  1.
         11    1    6    6    0    0  0.27480641527E+02 -0.10416027997E+01 -0.35857576417E+02  0.45188896663E+02  0.00000000000E+00 0. -1.
        -12    1    6    6    0    0 -0.56160453992E+02  0.10856369318E+01 -0.59292469878E+02  0.81674795282E+02  0.00000000000E+00 0.  1.
</event>
<event>
12    1  0.2625820E-002  0.1837796E+03  0.7818608E-02  0.1164195E+00
          2   -1    0    0  502    0  0.00000000000E+00  0.00000000000E+00  0.37194071694E+02  0.37194071694E+02  0.00000000000E+00 0.  1.
         -2   -1    0    0    0  501 -0.00000000000E+00 -0.00000000000E+00 -0.90825364645E+03  0.90825364645E+03  0.00000000000E+00 0. -1.
          6    2    1    2  502    0  0.55623915208E+02 -0.37825157531E+01 -0.43743736016E+03  0.47535010154E+03  0.17747661143E+03 0.  0.
         24    2    3    3    0    0  0.62741204283E+02 -0.54087497381E+02 -0.38597243366E+03  0.40287958588E+03  0.80469404668E+02 0.  0.
         -6    2    1    2    0  501 -0.55623915208E+02  0.37825157531E+01 -0.43362221459E+03  0.47009761660E+03  0.17278662210E+03 0.  0.
        -24    2    5    5    0    0 -0.87327928272E+02  0.26571050623E+02 -0.40067388773E+03  0.41879319175E+03  0.80721653604E+02 0.  0.
          5    1    3    3  502    0 -0.71172890757E+01  0.50304981628E+02 -0.51464926506E+02  0.72470515664E+02  0.47000000000E+01 0. -1.
        -11    1    4    4    0    0  0.10430123669E+02 -0.46039877085E+02 -0.84460373856E+02  0.96757493320E+02  0.00000000000E+00 0.  1.
         12    1    4    4    0    0  0.52311080614E+02 -0.80476202966E+01 -0.30151205980E+03  0.30612209256E+03  0.00000000000E+00 0. -1.
         -5    1    5    5    0  501  0.31704013064E+02 -0.22788534870E+02 -0.32948326860E+02  0.51304424846E+02  0.47000000000E+01 0.  1.
         13    1    6    6    0    0 -0.10854555673E+02 -0.89949160967E+01 -0.20789766512E+03  0.20837506822E+03  0.00000000000E+00 0. -1.
        -14    1    6    6    0    0 -0.76473372599E+02  0.35565966720E+02 -0.19277622261E+03  0.21041812353E+03  0.00000000000E+00 0.  1.
</event>
<event>
12    1  0.2625820E-002  0.2142075E+03  0.7818608E-02  0.1138277E+00
          1   -1    0    0  502    0  0.00000000000E+00  0.00000000000E+00  0.38197065493E+03  0.38197065493E+03  0.00000000000E+00 0.  1.
         -1   -1    0    0    0  501 -0.00000000000E+00 -0.00000000000E+00 -0.13183587467E+03  0.13183587467E+03  0.00000000000E+00 0. -1.
          6    2    1    2  502    0 -0.53740877251E+02  0.11755349469E+03  0.20251896011E+03  0.29604515595E+03  0.17297947611E+03 0.  0.
         24    2    3    3    0    0 -0.26872880924E+02  0.28178647480E+02  0.17929201174E+03  0.19975739104E+03  0.79001277839E+02 0.  0.
         -6    2    1    2    0  501  0.53740877251E+02 -0.11755349469E+03  0.47615820146E+02  0.21776137365E+03  0.16865895625E+03 0.  0.
        -24    2    5    5    0    0 -0.31991947360E+02 -0.78276536053E+02  0.39163611499E+02  0.12296513677E+03  0.80224283127E+02 0.  0.
          5    1    3    3  502    0 -0.26867996327E+02  0.89374847210E+02  0.23226948378E+02  0.96287764910E+02  0.47000000000E+01 0. -1.
        -11    1    4    4    0    0 -0.48932743365E+02  0.32625849094E+02  0.88802852834E+02  0.10651199967E+03  0.00000000000E+00 0.  1.
         12    1    4    4    0    0  0.22059862441E+02 -0.44472016134E+01  0.90489158902E+02  0.93245391370E+02  0.00000000000E+00 0. -1.
         -5    1    5    5    0  501  0.85732824611E+02 -0.39276958638E+02  0.84522086468E+01  0.94796236880E+02  0.47000000000E+01 0.  1.
         13    1    6    6    0    0  0.22557654840E+02 -0.45234645827E+02  0.54890050518E+01  0.50844371875E+02  0.00000000000E+00 0. -1.
        -14    1    6    6    0    0 -0.54549602200E+02 -0.33041890226E+02  0.33674606447E+02  0.72120764896E+02  0.00000000000E+00 0.  1.
</event>
<event>
12    1  0.2625820E-002  0.1774730E+03  0.7818608E-02  0.1170271E+00
         -2   -1    0    0    0  501 -0.00000000000E+00  0.00000000000E+00  0.17217993037E+03  0.17217993037E+03  0.00000000000E+00 0. -1.
          2   -1    0    0  502    0  0.00000000000E+00 -0.00000000000E+00 -0.22117069410E+03  0.22117069410E+03  0.00000000000E+00 0.  1.
          6    2    1    2  502    0  0.41473803978E+02  0.95993779782E+01  0.57277863947E+02  0.18655592442E+03  0.17236628082E+03 0.  0.
         24    2    3    3    0    0  0.34058006672E+02  0.42235728476E+02 -0.17850417803E+02  0.10417586529E+03  0.87121575483E+02 0.  0.
         -6    2    1    2    0  501 -0.41473803978E+02 -0.95993779782E+01 -0.10626862768E+03  0.20679470005E+03  0.17221731117E+03 0.  0.
        -24    2    5    5    0    0  0.13646903419E+02 -0.62757340253E+02 -0.67529043618E+02  0.12084758428E+03  0.76936630841E+02 0.  0.
          5    1    3    3  502    0  0.74157973060E+01 -0.32636350498E+02  0.75128281750E+02  0.82380059130E+02  0.47000000000E+01 0. -1.
        -13    1    4    4    0    0  0.46535706307E+02 -0.93280760070E+01  0.20716128246E+01  0.47506594733E+02  0.00000000000E+00 0.  1.
         14    1    4    4    0    0 -0.12477699635E+02  0.51563804483E+02 -0.19922030627E+02  0.56669270556E+02  0.00000000000E+00 0. -1.
         -5    1    5    5    0  501 -0.55120707397E+02  0.53157962275E+02 -0.38739584061E+02  0.85947115777E+02  0.47000000000E+01 0.  1.
         11    1    6    6    0    0  0.93946049091E+01 -0.60756569463E+02 -0.90043510094E+01  0.62134512724E+02  0.00000000000E+00 0. -1.
        -12    1    6    6    0    0  0.42522985098E+01 -0.20007707901E+01 -0.58524692609E+02  0.58713071554E+02  0.00000000000E+00 0.  1.
</event>
<event>
12    1  0.2625820E-002  0.1850269E+03  0.7818608E-02  0.1163025E+00
         -1   -1    0    0    0  501 -0.00000000000E+00  0.00000000000E+00  0.27958174449E+02  0.27958174449E+02  0.00000000000E+00 0.  1.
          1   -1    0    0  502    0  0.00000000000E+00 -0.00000000000E+00 -0.13172202170E+04  0.13172202170E+04  0.00000000000E+00 0. -1.
          6    2    1    2  502    0 -0.27174583491E+02  0.46980822715E+02 -0.81329071178E+03  0.83343397706E+03  0.17385268637E+03 0.  0.
         24    2    3    3    0    0  0.23791620354E+02  0.68820708770E+02 -0.32941164897E+03  0.34636563280E+03  0.78452443876E+02 0.  0.
         -6    2    1    2    0  501  0.27174583491E+02 -0.46980822715E+02 -0.47597133073E+03  0.51174441435E+03  0.17996661427E+03 0.  0.
        -24    2    5    5    0    0  0.73285549336E+01 -0.12503680705E+02 -0.46398400445E+03  0.46993144792E+03  0.73105127123E+02 0.  0.
          5    1    3    3  502    0 -0.50966203844E+02 -0.21839886054E+02 -0.48387906281E+03  0.48706834426E+03  0.47000000000E+01 0. -1.
        -11    1    4    4    0    0  0.14746271187E+02  0.21768906489E+02 -0.19406079900E+02  0.32679255511E+02  0.00000000000E+00 0.  1.
         12    1    4    4    0    0  0.90453491664E+01  0.47051802280E+02 -0.31000556907E+03  0.31368637729E+03  0.00000000000E+00 0. -1.
         -5    1    5    5    0  501  0.19846028557E+02 -0.34477142010E+02 -0.11987326288E+02  0.41812966437E+02  0.47000000000E+01 0.  1.
         11    1    6    6    0    0  0.33608341741E+02 -0.17852886091E+02 -0.14810857640E+03  0.15291957553E+03  0.00000000000E+00 0. -1.
        -12    1    6    6    0    0 -0.26279786808E+02  0.53492053859E+01 -0.31587542804E+03  0.31701187239E+03  0.00000000000E+00 0.  1.
</event>
<event>
12    1  0.2625820E-002  0.1947404E+03  0.7818608E-02  0.1154254E+00
          2   -1    0    0  502    0  0.00000000000E+00  0.00000000000E+00  0.28538139497E+03  0.28538139497E+03  0.00000000000E+00 0.  1.
         -2   -1    0    0    0  501 -0.00000000000E+00 -0.00000000000E+00 -0.15868128992E+03  0.15868128992E+03  0.00000000000E+00 0. -1.
          6    2    1    2  502    0  0.87590218441E+02 -0.11834589246E+02  0.15257951511E+03  0.24659020172E+03  0.17237782712E+03 0.  0.
         24    2    3    3    0    0  0.11166644488E+03 -0.29147683370E+02  0.16233962264E+03  0.21501873348E+03  0.80993334982E+02 0.  0.
         -6    2    1    2    0  501 -0.87590218441E+02  0.11834589246E+02 -0.25879410069E+02  0.19747248317E+03  0.17468123503E+03 0.  0.
        -24    2    5    5    0    0 -0.94056741209E+02  0.62726486351E+02 -0.34559990019E+02  0.14523032035E+03  0.84357396720E+02 0.  0.
          5    1    3    3  502    0 -0.24076226442E+02  0.17313094124E+02 -0.97601075219E+01  0.31571468237E+02  0.47000000000E+01 0. -1.
        -11    1    4    4    0    0  0.31859874767E+02 -0.47039599988E+02  0.86441460461E+02  0.10344032905E+03  0.00000000000E+00 0.  1.
         12    1    4    4    0    0  0.79806570116E+02  0.17891916619E+02  0.75898162176E+02  0.11157840443E+03  0.00000000000E+00 0. -1.
         -5    1    5    5    0  501  0.64665227687E+01 -0.50891897105E+02  0.86805799500E+01  0.52242162818E+02  0.47000000000E+01 0.  1.
         11    1    6    6    0    0 -0.10506263539E+03  0.40191455375E+02 -0.15120733615E+02  0.11349954637E+03  0.00000000000E+00 0. -1.
        -12    1    6    6    0    0  0.11005894182E+02  0.22535030976E+02 -0.19439256404E+02  0.31730773980E+02  0.00000000000E+00 0.  1.
</event>
<event>
12    1  0.2625820E-002  0.2980413E+03  0.7818608E-02  0.1086224E+00
          2   -1    0    0  502    0  0.00000000000E+00  0.00000000000E+00  0.21611483371E+04  0.21611483371E+04  0.00000000000E+00 0.  1.
         -2   -1    0    0    0  501 -0.00000000000E+00 -0.00000000000E+00 -0.42017575528E+02  0.42017575528E+02  0.00000000000E+00 0. -1.
          6    2    1    2  502    0 -0.18304216727E+03  0.15759185449E+03  0.90316341822E+03  0.95161635170E+03  0.17756658805E+03 0.  0.
         24    2    3    3    0    0 -0.11385981264E+03  0.16424328169E+03  0.78805604916E+03  0.81707180112E+03  0.81449856071E+02 0.  0.
         -6    2    1    2    0  501  0.18304216727E+03 -0.15759185449E+03  0.12159673434E+04  0.12515495609E+04  0.17163943539E+03 0.  0.
        -24    2    5    5    0    0  0.32301282085E+02 -0.46911619720E+02  0.62975500987E+03  0.63621232107E+03  0.70218744933E+02 0.  0.
          5    1    3    3  502    0 -0.69182354635E+02 -0.66514271974E+01  0.11510736907E+03  0.13454455058E+03  0.47000000000E+01 0. -1.
        -11    1    4    4    0    0 -0.65790699559E+02  0.28346252221E+02  0.25583935369E+03  0.26567969637E+03  0.00000000000E+00 0.  1.
         12    1    4    4    0    0 -0.48069113079E+02  0.13589702947E+03  0.53221669546E+03  0.55139210475E+03  0.00000000000E+00 0. -1.
         -5    1    5    5    0  501  0.15074088519E+03 -0.11068023477E+03  0.58621233349E+03  0.61533723987E+03  0.47000000000E+01 0.  1.
         13    1    6    6    0    0 -0.13970693391E+02 -0.85103642347E+00  0.32321650841E+02  0.35222061976E+02  0.00000000000E+00 0. -1.
        -14    1    6    6    0    0  0.46271975475E+02 -0.46060583296E+02  0.59743335903E+03  0.60099025909E+03  0.00000000000E+00 0.  1.
</event>
<event>
12    1  0.2625820E-002  0.2687627E+03  0.7818608E-02  0.1101990E+00
          1   -1    0    0  502    0  0.00000000000E+00  0.00000000000E+00  0.16158108572E+04  0.16158108572E+04  0.00000000000E+00 0. -1.
         -1   -1    0    0    0  501 -0.00000000000E+00 -0.00000000000E+00 -0.46963188001E+02  0.46963188001E+02  0.00000000000E+00 0.  1.
          6    2    1    2  502    0 -0.80847902022E+02 -0.18724163024E+03  0.97007657144E+03  0.10069420991E+04  0.17688421379E+03 0.  0.
         24    2    3    3    0    0 -0.31571935019E+02 -0.12744495231E+03  0.85084065255E+03  0.86466399827E+03  0.80467452603E+02 0.  0.
         -6    2    1    2    0  501  0.80847902022E+02  0.18724163024E+03  0.59877109779E+03  0.65583194615E+03  0.17318459137E+03 0.  0.
        -24    2    5    5    0    0  0.96180819835E+02  0.61047301036E+02  0.33668932991E+03  0.36450901512E+03  0.80805904228E+02 0.  0.
          5    1    3    3  502    0 -0.49275967003E+02 -0.59796677931E+02  0.11923591889E+03  0.14227810081E+03  0.47000000000E+01 0. -1.
        -13    1    4    4    0    0 -0.38726510096E+01  0.30151177860E+01  0.21169428106E+03  0.21175116764E+03  0.00000000000E+00 0.  1.
         14    1    4    4    0    0 -0.27699284010E+02 -0.13046007010E+03  0.63914637149E+03  0.65291283064E+03  0.00000000000E+00 0. -1.
         -5    1    5    5    0  501 -0.15332917813E+02  0.12619432920E+03  0.26208176788E+03  0.29132293103E+03  0.47000000000E+01 0.  1.
         13    1    6    6    0    0  0.45056471661E+02  0.58722156724E+02  0.11331061804E+03  0.13534279992E+03  0.00000000000E+00 0. -1.
        -14    1    6    6    0    0  0.51124348173E+02  0.23251443125E+01  0.22337871187E+03  0.22916621520E+03  0.00000000000E+00 0.  1.
</event>
<event>
12    1  0.2625820E-002  0.1792322E+03  0.7818608E-02  0.1168548E+00
         -2   -1    0    0    0  501 -0.00000000000E+00  0.00000000000E+00  0.13252851190E+02  0.13252851190E+02  0.00000000000E+00 0. -1.
          2   -1    0    0  502    0  0.00000000000E+00 -0.00000000000E+00 -0.28098426656E+04  0.28098426656E+04  0.00000000000E+00 0.  1.
          6    2    1    2  502    0  0.51158050337E+02  0.13742482146E+02 -0.86594926389E+03  0.88402382734E+03  0.16977631681E+03 0.  0.
         24    2    3    3    0    0 -0.19114772205E+02 -0.27871315008E+02 -0.32597529255E+03  0.33788835200E+03  0.82258509278E+02 0.  0.
         -6    2    1    2    0  501 -0.51158050337E+02 -0.13742482146E+02 -0.19306405505E+04  0.19390716894E+04  0.17268491415E+03 0.  0.
        -24    2    5    5    0    0  0.11456015732E+02 -0.24378733224E+02 -0.16058500609E+04  0.16080964589E+04  0.80586847640E+02 0.  0.
          5    1    3    3  502    0  0.70272822542E+02  0.41613797154E+02 -0.53997397134E+03  0.54613547534E+03  0.47000000000E+01 0. -1.
        -13    1    4    4    0    0 -0.14954341642E+01 -0.37184471007E+02 -0.31032518809E+03  0.31254862593E+03  0.00000000000E+00 0.  1.
         14    1    4    4    0    0 -0.17619338041E+02  0.93131559992E+01 -0.15650104452E+02  0.25339726065E+02  0.00000000000E+00 0. -1.
         -5    1    5    5    0  501 -0.62614066069E+02  0.10636251078E+02 -0.32479048958E+03  0.33097523054E+03  0.47000000000E+01 0.  1.
         13    1    6    6    0    0 -0.25877411828E+01 -0.22299798036E+02 -0.11456412848E+03  0.11674295238E+03  0.00000000000E+00 0. -1.
        -14    1    6    6    0    0  0.14043756915E+02 -0.20789351879E+01 -0.14912859324E+04  0.14913535065E+04  0.00000000000E+00 0.  1.
</event>
<event>
12    1  0.2625820E-002  0.1993222E+03  0.7818608E-02  0.1150312E+00
          2   -1    0    0  502    0  0.00000000000E+00  0.00000000000E+00  0.14651987114E+04  0.14651987114E+04  0.00000000000E+00 0.  1.
         -2   -1    0    0    0  501 -0.00000000000E+00 -0.00000000000E+00 -0.28328630860E+02  0.28328630860E+02  0.00000000000E+00 0. -1.
          6    2    1    2  502    0 -0.94689456763E+01  0.10027702708E+03  0.56413931996E+03  0.59834053186E+03  0.17208450439E+03 0.  0.
         24    2    3    3    0    0  0.44949399907E+02  0.28177170565E+02  0.39615946705E+03  0.40755513768E+03  0.79652152705E+02 0.  0.
         -6    2    1    2    0  501  0.94689456763E+01 -0.10027702708E+03  0.87273076054E+03  0.89518681036E+03  0.17191655521E+03 0.  0.
        -24    2    5    5    0    0 -0.90443603817E+01 -0.12109270283E+03  0.46659118159E+03  0.48806584253E+03  0.75866282173E+02 0.  0.
          5    1    3    3  502    0 -0.54418345583E+02  0.72099856518E+02  0.16797985291E+03  0.19078539418E+03  0.47000000000E+01 0. -1.
        -11    1    4    4    0    0  0.26210237860E+01  0.41243354265E+00  0.28929483308E+03  0.28930700011E+03  0.00000000000E+00 0.  1.
         12    1    4    4    0    0  0.42328376121E+02  0.27764737022E+02  0.10686463397E+03  0.11824813758E+03  0.00000000000E+00 0. -1.
         -5    1    5    5    0  501  0.18513306058E+02  0.20815675750E+02  0.40613957895E+03  0.40712096783E+03  0.47000000000E+01 0.  1.
         13    1    6    6    0    0  0.25936164374E+02 -0.97497175366E+02  0.33713366571E+03  0.35190551627E+03  0.00000000000E+00 0. -1.
        -14    1    6    6    0    0 -0.34980524755E+02 -0.23595527467E+02  0.12945751587E+03  0.13616032625E+03  0.00000000000E+00 0.  1.
</event>
<event>
12    1  0.2625820E-002  0.3662640E+03  0.7818608E-02  0.1056131E+00
         -1   -1    0    0    0  501 -0.00000000000E+00  0.00000000000E+00  0.12347915779E+03  0.12347915779E+03  0.00000000000E+00 0.  1.
          1   -1    0    0  502    0  0.00000000000E+00 -0.00000000000E+00 -0.11861699943E+04  0.11861699943E+04  0.00000000000E+00 0. -1.
          6    2    1    2  502    0  0.31657687838E+03  0.55127648898E+02 -0.72352116819E+03  0.81173082934E+03  0.17934347184E+03 0.  0.
         24    2    3    3    0    0  0.19614742184E+03 -0.21806000611E+02 -0.32309712535E+03  0.38654434730E+03  0.77945283783E+02 0.  0.
         -6    2    1    2    0  501 -0.31657687838E+03 -0.55127648898E+02 -0.33916966828E+03  0.49791832271E+03  0.17212383509E+03 0.  0.
        -24    2    5    5    0    0 -0.15844246598E+03 -0.55337418528E+02 -0.10082812236E+03  0.21184959163E+03  0.80917824357E+02 0.  0.
          5    1    3    3  502    0  0.12042945654E+03  0.76933649509E+02 -0.40042404283E+03  0.42518648204E+03  0.47000000000E+01 0. -1.
        -13    1    4    4    0    0  0.77615942712E+02 -0.34073917427E+02 -0.83685615363E+02  0.11911569431E+03  0.00000000000E+00 0.  1.
         14    1    4    4    0    0  0.11853147913E+03  0.12267916815E+02 -0.23941150999E+03  0.26742865299E+03  0.00000000000E+00 0. -1.
         -5    1    5    5    0  501 -0.15813441239E+03  0.20976962999E+00 -0.23834154592E+03  0.28606873108E+03  0.47000000000E+01 0.  1.
         11    1    6    6    0    0 -0.13171202651E+03 -0.11302349190E+02 -0.87857745235E+02  0.15872865029E+03  0.00000000000E+00 0. -1.
        -12    1    6    6    0    0 -0.26730439471E+02 -0.44035069338E+02 -0.12970377124E+02  0.53120941338E+02  0.00000000000E+00 0.  1.
</event>
<event>
12    1  0.2625820E-002  0.1816928E+03  0.7818608E-02  0.1166175E+00
         -2   -1    0    0    0  501 -0.00000000000E+00  0.00000000000E+00  0.51526347774E+02  0.51526347774E+02  0.00000000000E+00 0. -1.
          2   -1    0    0  502    0  0.00000000000E+00 -0.00000000000E+00 -0.65796429131E+03  0.65796429131E+03  0.00000000000E+00 0.  1.
          6    2    1    2  502    0  0.67663564882E+02 -0.38902019835E+02 -0.34737742095E+03  0.38882953011E+03  0.15628693401E+03 0.  0.
         24    2    3    3    0    0  0.48813840343E+02 -0.71427483518E+02 -0.16485251576E+03  0.20241427077E+03  0.79438710002E+02 0.  0.
         -6    2    1    2    0  501 -0.67663564882E+02  0.38902019835E+02 -0.25906052258E+03  0.32066110897E+03  0.17210307169E+03 0.  0.
        -24    2    5    5    0    0 -0.10790887014E+02  0.23626043708E+02 -0.38844369639E+02  0.92658694612E+02  0.80013220475E+02 0.  0.
          5    1    3    3  502    0  0.18849724538E+02  0.32525463683E+02 -0.18252490519E+03  0.18641525935E+03  0.47000000000E+01 0. -1.
        -11    1    4    4    0    0 -0.15241115748E+01  0.35825714774E+01 -0.74661834771E+02  0.74763275114E+02  0.00000000000E+00 0.  1.
         12    1    4    4    0    0  0.50337951918E+02 -0.75010054996E+02 -0.90190680992E+02  0.12765099565E+03  0.00000000000E+00 0. -1.
         -5    1    5    5    0  501 -0.56872677868E+02  0.15275976127E+02 -0.22021615294E+03  0.22800241435E+03  0.47000000000E+01 0.  1.
         11    1    6    6    0    0  0.92819801528E+01 -0.23543606511E+02  0.42830570390E+01  0.25667121784E+02  0.00000000000E+00 0. -1.
        -12    1    6    6    0    0 -0.20072867167E+02  0.47169650219E+02 -0.43127426678E+02  0.66991572828E+02  0.00000000000E+00 0.  1.
</event>
<event>
12    1  0.2625820E-002  0.1722740E+03  0.7818608E-02  0.1175497E+00
         -2   -1    0    0    0  501 -0.00000000000E+00  0.00000000000E+00  0.34582697091E+02  0.34582697091E+02  0.00000000000E+00 0.  1.
          2   -1    0    0  502    0  0.00000000000E+00 -0.00000000000E+00 -0.10838574430E+04  0.10838574430E+04  0.00000000000E+00 0. -1.
          6    2    1    2  502    0  0.14437553101E+01 -0.19129484539E+02 -0.27014629400E+03  0.32055400567E+03  0.17148710967E+03 0.  0.
         24    2    3    3    0    0 -0.24028093145E+02 -0.58641939388E+02 -0.25782886574E+03  0.27172923541E+03  0.57834479804E+02 0.  0.
         -6    2    1    2    0  501 -0.14437553101E+01  0.19129484539E+02 -0.77912845191E+03  0.79788613442E+03  0.17091845225E+03 0.  0.
        -24    2    5    5    0    0 -0.43125379823E+02 -0.34753106510E+02 -0.30933098037E+03  0.32315205549E+03  0.75326082798E+02 0.  0.
          5    1    3    3  502    0  0.25471848455E+02  0.39512454849E+02 -0.12317428262E+02  0.48824770259E+02  0.47000000000E+01 0. -1.
        -11    1    4    4    0    0 -0.15872484271E+02 -0.68785165722E+02 -0.23582638931E+03  0.24616543355E+03  0.00000000000E+00 0.  1.
         12    1    4    4    0    0 -0.81556088740E+01  0.10143226335E+02 -0.22002476427E+02  0.25563801859E+02  0.00000000000E+00 0. -1.
         -5    1    5    5    0  501  0.41681624513E+02  0.53882591049E+02 -0.46979747154E+03  0.47473407893E+03  0.47000000000E+01 0.  1.
         11    1    6    6    0    0 -0.22902485382E+02 -0.50435611782E+02 -0.27390334292E+03  0.27944823498E+03  0.00000000000E+00 0. -1.
        -12    1    6    6    0    0 -0.20222894441E+02  0.15682505272E+02 -0.35427637457E+02  0.43703820508E+02  0.00000000000E+00 0.  1.
</event>
<event>
12    1  0.2625820E-002  0.1870597E+03  0.7818608E-02  0.1161140E+00
         -2   -1    0    0    0  501 -0.00000000000E+00  0.00000000000E+00  0.14923817252E+03  0.14923817252E+03  0.00000000000E+00 0. -1.
          2   -1    0    0  502    0  0.00000000000E+00 -0.00000000000E+00 -0.24417204690E+03  0.24417204690E+03  0.00000000000E+00 0.  1.
          6    2    1    2  502    0  0.64562426614E+02 -0.25649106792E+01 -0.86606446894E+02  0.20585097624E+03  0.17521147815E+03 0.  0.
         24    2    3    3    0    0  0.10403752373E+03 -0.30712922682E+02 -0.48766109305E+02  0.14416973905E+03  0.81484294674E+02 0.  0.
         -6    2    1    2    0  501 -0.64562426614E+02  0.25649106792E+01 -0.83274274859E+01  0.18755924318E+03  0.17588131782E+03 0.  0.
        -24    2    5    5    0    0 -0.52750863197E+02 -0.51229410936E+02  0.37786699344E+02  0.11557351709E+03  0.80760739791E+02 0.  0.
          5    1    3    3  502    0 -0.39475097113E+02  0.28148012003E+02 -0.37840337589E+02  0.61681237185E+02  0.47000000000E+01 0. -1.
        -13    1    4    4    0    0  0.61283719919E+00 -0.26761039355E+02  0.54682929261E+01  0.27320889889E+02  0.00000000000E+00 0.  1.
         14    1    4    4    0    0  0.10342468653E+03 -0.39518833269E+01 -0.54234402231E+02  0.11684884916E+03  0.00000000000E+00 0. -1.
         -5    1    5    5    0  501 -0.11811563417E+02  0.53794321616E+02 -0.46114126830E+02  0.71985726097E+02  0.47000000000E+01 0.  1.
         13    1    6    6    0    0 -0.48000773197E+02 -0.24754966789E+02 -0.15238288131E+02  0.56116735769E+02  0.00000000000E+00 0. -1.
        -14    1    6    6    0    0 -0.47500900000E+01 -0.26474444148E+02  0.53024987475E+02  0.59456781318E+02  0.00000000000E+00 0.  1.
</event>
<event>
12    1  0.2625820E-002  0.2105042E+03  0.7818608E-02  0.1141167E+00
         -2   -1    0    0    0  501 -0.00000000000E+00  0.00000000000E+00  0.42369722979E+02  0.42369722979E+02  0.00000000000E+00 0. -1.
          2   -1    0    0  502    0  0.00000000000E+00 -0.00000000000E+00 -0.19973081760E+04  0.19973081760E+04  0.00000000000E+00 0.  1.
          6    2    1    2  502    0 -0.45670981300E+02  0.11282218139E+03 -0.16820942714E+04  0.16952523493E+04  0.17211829290E+03 0.  0.
         24    2    3    3    0    0 -0.67321473573E+02  0.78888827163E+01 -0.82458115496E+03  0.83105875069E+03  0.78295279020E+02 0.  0.
         -6    2    1    2    0  501  0.45670981300E+02 -0.11282218139E+03 -0.27284418166E+03  0.34442554973E+03  0.17137773687E+03 0.  0.
        -24    2    5    5    0    0  0.43934442827E+02 -0.86421406929E+02 -0.69458167457E+02  0.13927200423E+03  0.71926068247E+02 0.  0.
          5    1    3    3  502    0  0.21650492273E+02  0.10493329867E+03 -0.85751311644E+03  0.86419359860E+03  0.47000000000E+01 0. -1.
        -11    1    4    4    0    0 -0.46201356459E+02  0.26710351719E+02 -0.73897163382E+03  0.74089613564E+03  0.00000000000E+00 0.  1.
         12    1    4    4    0    0 -0.21120117114E+02 -0.18821469002E+02 -0.85609521144E+02  0.90162615051E+02  0.00000000000E+00 0. -1.
         -5    1    5    5    0  501  0.17365384727E+01 -0.26400774456E+02 -0.20338601421E+03  0.20515354550E+03  0.47000000000E+01 0.  1.
         13    1    6    6    0    0 -0.78795714401E+01 -0.62570736649E+02 -0.43441228495E+02  0.76578881319E+02  0.00000000000E+00 0. -1.
        -14    1    6    6    0    0  0.51814014267E+02 -0.23850670280E+02 -0.26016938962E+02  0.62693122911E+02  0.00000000000E+00 0.  1.
</event>
<event>
12    1  0.2625820E-002  0.4880631E+03  0.7818608E-02  0.1016942E+00
         -1   -1    0    0    0  501 -0.00000000000E+00  0.00000000000E+00  0.36652988795E+03  0.36652988795E+03  0.00000000000E+00 0. -1.
          1   -1    0    0  502    0  0.00000000000E+00 -0.00000000000E+00 -0.65473793436E+03  0.65473793436E+03  0.00000000000E+00 0.  1.
          6    2    1    2  502    0 -0.44566195066E+03  0.99463067122E+02 -0.10015276648E+03  0.49813289024E+03  0.17204163368E+03 0.  0.
         24    2    3    3    0    0 -0.31801936478E+03  0.84749693817E+02 -0.56797708165E+01  0.33858242802E+03  0.79290439477E+02 0.  0.
         -6    2    1    2    0  501  0.44566195066E+03 -0.99463067122E+02 -0.18805527993E+03  0.52313493207E+03  0.17262066172E+03 0.  0.
        -24    2    5    5    0    0  0.13836324727E+03 -0.39070854362E+02 -0.11723059053E+03  0.20201511160E+03  0.79976084578E+02 0.  0.
          5    1    3    3  502    0 -0.12764258589E+03  0.14713373304E+02 -0.94472995663E+02  0.15955046222E+03  0.47000000000E+01 0. -1.
        -13    1    4    4    0    0 -0.12592000755E+03  0.35267644658E+01 -0.27319805073E+02  0.12889785925E+03  0.00000000000E+00 0.  1.
         14    1    4    4    0    0 -0.19209935723E+03  0.81222929352E+02  0.21640034257E+02  0.20968456877E+03  0.00000000000E+00 0. -1.
         -5    1    5    5    0  501  0.30729870339E+03 -0.60392212760E+02 -0.70824689401E+02  0.32111982047E+03  0.47000000000E+01 0.  1.
         11    1    6    6    0    0  0.75779372876E+02 -0.39473491645E+02 -0.22292235573E+02  0.88304097657E+02  0.00000000000E+00 0. -1.
        -12    1    6    6    0    0  0.62583874397E+02  0.40263728347E+00 -0.94938354956E+02  0.11371101395E+03  0.00000000000E+00 0.  1.
</event>
<event>
12    1  0.2625820E-002  0.1780416E+03  0.7818608E-02  0.1169712E+00
         -2   -1    0    0    0  501 -0.00000000000E+00  0.00000000000E+00  0.45843862619E+02  0.45843862619E+02  0.00000000000E+00 0.  1.
          2   -1    0    0  502    0  0.00000000000E+00 -0.00000000000E+00 -0.13097362468E+04  0.13097362468E+04  0.00000000000E+00 0. -1.
          6    2    1    2  502    0  0.53585013473E+01 -0.46291588521E+02 -0.10978754717E+04  0.11122386183E+04  0.17196676399E+03 0.  0.
         24    2    3    3    0    0  0.16174549803E+02 -0.20651003429E+02 -0.10673783954E+04  0.10706863840E+04  0.79903779753E+02 0.  0.
         -6    2    1    2    0  501 -0.53585013473E+01  0.46291588521E+02 -0.16601691240E+03  0.24334149106E+03  0.17170277041E+03 0.  0.
        -24    2    5    5    0    0 -0.12866074104E+02  0.55063007851E+02 -0.24432178915E+02  0.10120905915E+03  0.80304866546E+02 0.  0.
          5    1    3    3  502    0 -0.10816048456E+02 -0.25640585093E+02 -0.30497076384E+02  0.41552234309E+02  0.47000000000E+01 0. -1.
        -13    1    4    4    0    0 -0.15812115659E+02  0.20338557102E+02 -0.18598039639E+03  0.18775619230E+03  0.00000000000E+00 0.  1.
         14    1    4    4    0    0  0.31986665462E+02 -0.40989560530E+02 -0.88139799898E+03  0.88293019171E+03  0.00000000000E+00 0. -1.
         -5    1    5    5    0  501  0.75075727569E+01 -0.87714193299E+01 -0.14158473348E+03  0.14213243191E+03  0.47000000000E+01 0.  1.
         11    1    6    6    0    0  0.21197489162E+01  0.40061339132E+02 -0.52474171022E+02  0.66052576429E+02  0.00000000000E+00 0. -1.
        -12    1    6    6    0    0 -0.14985823020E+02  0.15001668719E+02  0.28041992107E+02  0.35156482721E+02  0.00000000000E+00 0.  1.
</event>
<event>
12    1  0.2625820E-002  0.1885714E+03  0.7818608E-02  0.1159756E+00
          2   -1    0    0  502    0  0.00000000000E+00  0.00000000000E+00  0.97400240927E+03  0.97400240927E+03  0.00000000000E+00 0. -1.
         -2   -1    0    0    0  501 -0.00000000000E+00 -0.00000000000E+00 -0.60992693730E+02  0.60992693730E+02  0.00000000000E+00 0.  1.
          6    2    1    2  502    0  0.69327671438E+02 -0.28806079535E+02  0.12815971345E+03  0.22773406873E+03  0.17263191380E+03 0.  0.
         24    2    3    3    0    0  0.96196669731E+02  0.38405790101E+01  0.34050133433E+02  0.12445555966E+03  0.71142290020E+02 0.  0.
         -6    2    1    2    0  501 -0.69327671438E+02  0.28806079535E+02  0.78485000209E+03  0.80726103427E+03  0.17333417272E+03 0.  0.
        -24    2    5    5    0    0 -0.96442705812E+02  0.36209946326E+02  0.75434869555E+03  0.76551822612E+03  0.79773706908E+02 0.  0.
          5    1    3    3  502    0 -0.26868998294E+02 -0.32646658545E+02  0.94109580021E+02  0.10327850907E+03  0.47000000000E+01 0. -1.
        -13    1    4    4    0    0 -0.62175690216E+01 -0.85907355136E+01  0.16785806649E+02  0.19855029742E+02  0.00000000000E+00 0.  1.
         14    1    4    4    0    0  0.10241423875E+03  0.12431314524E+02  0.17264326785E+02  0.10460052992E+03  0.00000000000E+00 0. -1.
         -5    1    5    5    0  501  0.27115034375E+02 -0.74038667905E+01  0.30501306531E+02  0.41742808156E+02  0.47000000000E+01 0.  1.
         13    1    6    6    0    0 -0.76686533433E+02  0.53679157037E+01  0.29990106725E+03  0.30959697846E+03  0.00000000000E+00 0. -1.
        -14    1    6    6    0    0 -0.19756172379E+02  0.30842030622E+02  0.45444762830E+03  0.45592124766E+03  0.00000000000E+00 0.  1.
</event>
<event>
12    1  0.2625820E-002  0.1779789E+03  0.7818608E-02  0.1169773E+00
         -4   -1    0    0    0  501 -0.00000000000E+00  0.00000000000E+00  0.20514008485E+03  0.20514008485E+03  0.00000000000E+00 0.  1.
          4   -1    0    0  502    0  0.00000000000E+00 -0.00000000000E+00 -0.15460804886E+03  0.15460804886E+03  0.00000000000E+00 0. -1.
          6    2    1    2  502    0  0.46581342066E+02 -0.17720552183E+02  0.18832154849E+02  0.17801995923E+03  0.16986057938E+03 0.  0.
         24    2    3    3    0    0 -0.29922327802E+02  0.16174264296E+02  0.34118068657E+02  0.92829471210E+02  0.79349326334E+02 0.  0.
         -6    2    1    2    0  501 -0.46581342066E+02  0.17720552183E+02  0.31699881142E+02  0.18172817448E+03  0.17186159413E+03 0.  0.
        -24    2    5    5    0    0 -0.22881609622E+02  0.16926268666E+02 -0.48865250904E+02  0.97614330752E+02  0.79565559085E+02 0.  0.
          5    1    3    3  502    0  0.76503669869E+02 -0.33894816479E+02 -0.15285913808E+02  0.85190488016E+02  0.47000000000E+01 0. -1.
        -11    1    4    4    0    0 -0.37121983736E+02 -0.24343868500E+02  0.11443560982E+02  0.45843436804E+02  0.00000000000E+00 0.  1.
         12    1    4    4    0    0  0.71996559343E+01  0.40518132796E+02  0.22674507675E+02  0.46986034406E+02  0.00000000000E+00 0. -1.
         -5    1    5    5    0  501 -0.23699732445E+02  0.79428351752E+00  0.80565132046E+02  0.84113843723E+02  0.47000000000E+01 0.  1.
         13    1    6    6    0    0 -0.76176738007E+01  0.42880331577E+02 -0.42079143185E+01  0.43754523574E+02  0.00000000000E+00 0. -1.
        -14    1    6    6    0    0 -0.15263935821E+02 -0.25954062912E+02 -0.44657336585E+02  0.53859807178E+02  0.00000000000E+00 0.  1.
</event>
<event>
12    1  0.2625820E-002  0.2072568E+03  0.7818608E-02  0.1143757E+00
         -2   -1    0    0    0  501 -0.00000000000E+00  0.00000000000E+00  0.19877921475E+04  0.19877921475E+04  0.00000000000E+00 0. -1.
          2   -1    0    0  502    0  0.00000000000E+00 -0.00000000000E+00 -0.24043655780E+02  0.24043655780E+02  0.00000000000E+00 0.  1.
          6    2    1    2  502    0 -0.10833239926E+03 -0.40204515820E+02  0.66403248765E+03  0.69578003509E+03  0.17268005311E+03 0.  0.
         24    2    3    3    0    0 -0.56980861512E+02 -0.73874690254E+02  0.26900709808E+03  0.29598282464E+03  0.80850016841E+02 0.  0.
         -6    2    1    2    0  501  0.10833239926E+03  0.40204515820E+02  0.12997160041E+04  0.13160557682E+04  0.17143156637E+03 0.  0.
        -24    2    5    5    0    0  0.37733678910E+02 -0.46865376240E+02  0.58247953558E+03  0.59009737603E+03  0.72885594050E+02 0.  0.
          5    1    3    3  502    0 -0.51351537749E+02  0.33670174434E+02  0.39502538957E+03  0.39979721045E+03  0.47000000000E+01 0. -1.
        -11    1    4    4    0    0 -0.72374344120E+02 -0.74082629140E+02  0.25475962079E+03  0.27500681085E+03  0.00000000000E+00 0.  1.
         12    1    4    4    0    0  0.15393482608E+02  0.20793888582E+00  0.14247477293E+02  0.20976013792E+02  0.00000000000E+00 0. -1.
         -5    1    5    5    0  501  0.70598720351E+02  0.87069892060E+02  0.71723646850E+03  0.72595839217E+03  0.47000000000E+01 0.  1.
         11    1    6    6    0    0  0.57735120719E+02 -0.43060357909E+02  0.39473840793E+03  0.40125546636E+03  0.00000000000E+00 0. -1.
        -12    1    6    6    0    0 -0.20001441809E+02 -0.38050183304E+01  0.18774112765E+03  0.18884190967E+03  0.00000000000E+00 0.  1.
</event>
<event>
12    1  0.2625820E-002  0.2044740E+03  0.7818608E-02  0.1146018E+00
         -2   -1    0    0    0  501 -0.00000000000E+00  0.00000000000E+00  0.25571242387E+02  0.25571242387E+02  0.00000000000E+00 0. -1.
          2   -1    0    0  502    0  0.00000000000E+00 -0.00000000000E+00 -0.18529763632E+04  0.18529763632E+04  0.00000000000E+00 0.  1.
          6    2    1    2  502    0 -0.10547954747E+03  0.58617725474E+01 -0.60382070426E+03  0.63848840377E+03  0.17862727550E+03 0.  0.
         24    2    3    3    0    0 -0.11546535079E+03 -0.10255080727E+02 -0.60245047695E+03  0.61890686271E+03  0.81619321415E+02 0.  0.
         -6    2    1    2    0  501  0.10547954747E+03 -0.58617725474E+01 -0.12235844166E+04  0.12400592019E+04  0.17154505022E+03 0.  0.
        -24    2    5    5    0    0  0.85617148778E+02  0.29928133982E+02 -0.11431065539E+04  0.11496478714E+04  0.82290007065E+02 0.  0.
          5    1    3    3  502    0  0.99858033174E+01  0.16116853275E+02 -0.13702273105E+01  0.19581541059E+02  0.47000000000E+01 0. -1.
        -13    1    4    4    0    0 -0.12026173977E+03 -0.27342487502E+02 -0.50407369995E+03  0.51894199354E+03  0.00000000000E+00 0.  1.
         14    1    4    4    0    0  0.47963889779E+01  0.17087406774E+02 -0.98376776994E+02  0.99964869175E+02  0.00000000000E+00 0. -1.
         -5    1    5    5    0  501  0.19862398694E+02 -0.35789906530E+02 -0.80477862684E+02  0.90411330448E+02  0.47000000000E+01 0.  1.
         11    1    6    6    0    0  0.24674663230E+02 -0.16393737838E+02 -0.11707819382E+03  0.12076794738E+03  0.00000000000E+00 0. -1.
        -12    1    6    6    0    0  0.60942485548E+02  0.46321871820E+02 -0.10260283601E+04  0.10288799240E+04  0.00000000000E+00 0.  1.
</event>
<event>
12    1  0.2625820E-002  0.2265613E+03  0.7818608E-02  0.1129084E+00
         -2   -1    0    0    0  501 -0.00000000000E+00  0.00000000000E+00  0.38942629894E+02  0.38942629894E+02  0.00000000000E+00 0. -1.
          2   -1    0    0  502    0  0.00000000000E+00 -0.00000000000E+00 -0.13411927036E+04  0.13411927036E+04  0.00000000000E+00 0.  1.
          6    2    1    2  502    0 -0.14283176375E+03 -0.36221972043E+02 -0.55963961567E+03  0.60363696913E+03  0.17166288791E+03 0.  0.
         24    2    3    3    0    0 -0.69058515510E+02  0.14555047163E+02 -0.44842690144E+03  0.46076935335E+03  0.78998627097E+02 0.  0.
         -6    2    1    2    0  501  0.14283176375E+03  0.36221972043E+02 -0.74261045806E+03  0.77649836438E+03  0.17252963070E+03 0.  0.
        -24    2    5    5    0    0  0.10760737916E+03  0.68482886418E+02 -0.34322203764E+03  0.37423635495E+03  0.77344867064E+02 0.  0.
          5    1    3    3  502    0 -0.73773248244E+02 -0.50777019206E+02 -0.11121271422E+03  0.14286761579E+03  0.47000000000E+01 0. -1.
        -11    1    4    4    0    0 -0.81529745821E+02  0.89493519430E+01 -0.27938839490E+03  0.29117875190E+03  0.00000000000E+00 0.  1.
         12    1    4    4    0    0  0.12471230311E+02  0.56056952200E+01 -0.16903850654E+03  0.16959060144E+03  0.00000000000E+00 0. -1.
         -5    1    5    5    0  501  0.35224384594E+02 -0.32260914375E+02 -0.39938842042E+03  0.40226200943E+03  0.47000000000E+01 0.  1.
         13    1    6    6    0    0  0.87084503349E+02  0.13136960106E+02 -0.17407993497E+03  0.19509001565E+03  0.00000000000E+00 0. -1.
        -14    1    6    6    0    0  0.20522875812E+02  0.55345926312E+02 -0.16914210266E+03  0.17914633930E+03  0.00000000000E+00 0.  1.
</event>
<event>
12    1  0.2625820E-002  0.1797793E+03  0.7818608E-02  0.1168017E+00
          2   -1    0    0  502    0  0.00000000000E+00  0.00000000000E+00  0.54598213137E+03  0.54598213137E+03  0.00000000000E+00 0. -1.
         -2   -1    0    0    0  501 -0.00000000000E+00 -0.00000000000E+00 -0.62321333628E+02  0.62321333628E+02  0.00000000000E+00 0.  1.
          6    2    1    2  502    0 -0.20651492362E+02  0.49561297542E+02  0.30863357680E+03  0.35667712636E+03  0.17053176065E+03 0.  0.
         24    2    3    3    0    0  0.34958511584E+02  0.69296255534E+02  0.22138391962E+03  0.25124215216E+03  0.89931699610E+02 0.  0.
         -6    2    1    2    0  501  0.20651492362E+02 -0.49561297542E+02  0.17502722095E+03  0.25162633864E+03  0.17262236204E+03 0.  0.
        -24    2    5    5    0    0 -0.14502096034E+02 -0.93826190567E+02  0.97443246521E+02  0.15551953025E+03  0.75349009089E+02 0.  0.
          5    1    3    3  502    0 -0.55610003946E+02 -0.19734957992E+02  0.87249657183E+02  0.10543497420E+03  0.47000000000E+01 0. -1.
        -11    1    4    4    0    0  0.33177752182E+02  0.90559699613E+02  0.16742433646E+03  0.19321679759E+03  0.00000000000E+00 0.  1.
         12    1    4    4    0    0  0.17807594016E+01 -0.21263444079E+02  0.53959583157E+02  0.58025354567E+02  0.00000000000E+00 0. -1.
         -5    1    5    5    0  501  0.35153588396E+02  0.44264893026E+02  0.77583974426E+02  0.96106808393E+02  0.47000000000E+01 0.  1.
         13    1    6    6    0    0  0.88652643811E+01 -0.70033010656E+02  0.23494718006E+02  0.74399040775E+02  0.00000000000E+00 0. -1.
        -14    1    6    6    0    0 -0.23367360415E+02 -0.23793179911E+02  0.73948528514E+02  0.81120489474E+02  0.00000000000E+00 0.  1.
</event>
<event>
12    1  0.2625820E-002  0.1911847E+03  0.7818608E-02  0.1157397E+00
          2   -1    0    0  502    0  0.00000000000E+00  0.00000000000E+00  0.20689991354E+04  0.20689991354E+04  0.00000000000E+00 0. -1.
         -2   -1    0    0    0  501 -0.00000000000E+00 -0.00000000000E+00 -0.17810626015E+02  0.17810626015E+02  0.00000000000E+00 0.  1.
          6    2    1    2  502    0  0.14947380409E+02 -0.83408109749E+02  0.93152419701E+03  0.95093533971E+03  0.17134863216E+03 0.  0.
         24    2    3    3    0    0  0.51278838022E+02 -0.58945593979E+02  0.34044571557E+03  0.35821765758E+03  0.79451259734E+02 0.  0.
         -6    2    1    2    0  501 -0.14947380409E+02  0.83408109749E+02  0.11196643124E+04  0.11358744217E+04  0.17141234647E+03 0.  0.
        -24    2    5    5    0    0  0.45463062381E+02  0.12532286911E+02  0.68994579188E+03  0.69615530600E+03  0.79894092896E+02 0.  0.
          5    1    3    3  502    0 -0.36331457614E+02 -0.24462515770E+02  0.59107848144E+03  0.59271768213E+03  0.47000000000E+01 0. -1.
        -13    1    4    4    0    0  0.51000240768E+02 -0.53972227252E+02  0.34411193776E+03  0.35203274220E+03  0.00000000000E+00 0.  1.
         14    1    4    4    0    0  0.27859725448E+00 -0.49733667273E+01 -0.36662221928E+01  0.61849153754E+01  0.00000000000E+00 0. -1.
         -5    1    5    5    0  501 -0.60410442790E+02  0.70875822838E+02  0.42971852053E+03  0.43971911574E+03  0.47000000000E+01 0.  1.
         11    1    6    6    0    0  0.30175092539E+02  0.24413748471E+02  0.12522101807E+03  0.13109870590E+03  0.00000000000E+00 0. -1.
        -12    1    6    6    0    0  0.15287969843E+02 -0.11881461560E+02  0.56472477381E+03  0.56505660009E+03  0.00000000000E+00 0.  1.
</event>
<event>
12    1  0.2625820E-002  0.1774969E+03  0.7818608E-02  0.1170248E+00
          4   -1    0    0  502    0  0.00000000000E+00  0.00000000000E+00  0.54470751208E+03  0.54470751208E+03  0.00000000000E+00 0. -1.
         -4   -1    0    0    0  501 -0.00000000000E+00 -0.00000000000E+00 -0.63809162637E+02  0.63809162637E+02  0.00000000000E+00 0.  1.
          6    2    1    2  502    0 -0.37283895910E+02 -0.80745154003E+01  0.33380529459E+03  0.37817249425E+03  0.17358909533E+03 0.  0.
         24    2    3    3    0    0  0.45403299303E+02 -0.74977020353E+01  0.18503275010E+03  0.20789958108E+03  0.82870031256E+02 0.  0.
         -6    2    1    2    0  501  0.37283895910E+02  0.80745154003E+01  0.14709305485E+03  0.23034418047E+03  0.17310917941E+03 0.  0.
        -24    2    5    5    0    0  0.24512820187E+02 -0.88849477065E-01  0.17757636800E+03  0.19597757921E+03  0.79202012818E+02 0.  0.
          5    1    3    3  502    0 -0.82687195213E+02 -0.57681336500E+00  0.14877254449E+03  0.17027291317E+03  0.47000000000E+01 0. -1.
        -11    1    4    4    0    0  0.10041570211E+02 -0.37572132691E+02  0.13106647488E+03  0.13671473631E+03  0.00000000000E+00 0.  1.
         12    1    4    4    0    0  0.35361729092E+02  0.30074430656E+02  0.53966275221E+02  0.71184844770E+02  0.00000000000E+00 0. -1.
         -5    1    5    5    0  501  0.12771075723E+02  0.81633648773E+01 -0.30483313146E+02  0.34366601252E+02  0.47000000000E+01 0.  1.
         11    1    6    6    0    0  0.30150829189E+02 -0.60636893322E+01  0.16901336268E+02  0.35092677252E+02  0.00000000000E+00 0. -1.
        -12    1    6    6    0    0 -0.56380090019E+01  0.59748398551E+01  0.16067503173E+03  0.16088490196E+03  0.00000000000E+00 0.  1.
</event>
<event>
12    1  0.2625820E-002  0.2216351E+03  0.7818608E-02  0.1132670E+00
         -1   -1    0    0    0  501 -0.00000000000E+00  0.00000000000E+00  0.25000234238E+02  0.25000234238E+02  0.00000000000E+00 0.  1.
          1   -1    0    0  502    0  0.00000000000E+00 -0.00000000000E+00 -0.21401462191E+04  0.21401462191E+04  0.00000000000E+00 0. -1.
          6    2    1    2  502    0  0.93861905833E+01  0.13840342438E+03 -0.74742122653E+03  0.77956810764E+03  0.17275513343E+03 0.  0.
         24    2    3    3    0    0  0.16642919015E+02  0.87793667529E+02 -0.69764316830E+03  0.70805620179E+03  0.81565187501E+02 0.  0.
         -6    2    1    2    0  501 -0.93861905833E+01 -0.13840342438E+03 -0.13677247583E+04  0.13855783457E+04  0.17295296777E+03 0.  0.
        -24    2    5    5    0    0  0.28681100635E+02 -0.33365700019E+02 -0.79318169169E+03  0.80025461679E+03  0.96614596132E+02 0.  0.
          5    1    3    3  502    0 -0.72567284318E+01  0.50609756855E+02 -0.49778058231E+02  0.71511905846E+02  0.47000000000E+01 0. -1.
        -11    1    4    4    0    0  0.43777638719E+02  0.42409893126E+02 -0.25102959084E+03  0.25832331711E+03  0.00000000000E+00 0.  1.
         12    1    4    4    0    0 -0.27134719704E+02  0.45383774403E+02 -0.44661357746E+03  0.44973288468E+03  0.00000000000E+00 0. -1.
         -5    1    5    5    0  501 -0.38067291218E+02 -0.10503772436E+03 -0.57454306660E+03  0.58532372887E+03  0.47000000000E+01 0.  1.
         13    1    6    6    0    0 -0.10631571321E+02 -0.58168897067E+02 -0.40336906148E+03  0.40768032900E+03  0.00000000000E+00 0. -1.
        -14    1    6    6    0    0  0.39312671956E+02  0.24803197047E+02 -0.38981263021E+03  0.39257428779E+03  0.00000000000E+00 0.  1.
</event>
<event>
12    1  0.2625820E-002  0.1745918E+03  0.7818608E-02  0.1173142E+00
          2   -1    0    0  502    0  0.00000000000E+00  0.00000000000E+00  0.11444326824E+04  0.11444326824E+04  0.00000000000E+00 0.  1.
         -2   -1    0    0    0  501 -0.00000000000E+00 -0.00000000000E+00 -0.26894132404E+02  0.26894132404E+02  0.00000000000E+00 0. -1.
          6    2    1    2  502    0 -0.60956147993E+01 -0.14489929196E+02  0.49571106627E+03  0.52494162381E+03  0.17200910621E+03 0.  0.
         24    2    3    3    0    0 -0.82268205860E+01  0.40338950775E+02  0.42913274055E+03  0.43853843190E+03  0.80412285821E+02 0.  0.
         -6    2    1    2    0  501  0.60956147993E+01  0.14489929196E+02  0.62182748376E+03  0.64638519103E+03  0.17577622437E+03 0.  0.
        -24    2    5    5    0    0 -0.53572310641E+02  0.47819770843E+02  0.34842106453E+03  0.36452653896E+03  0.79533869806E+02 0.  0.
          5    1    3    3  502    0  0.21312057867E+01 -0.54828879971E+02  0.66578325712E+02  0.86403191906E+02  0.47000000000E+01 0. -1.
        -11    1    4    4    0    0 -0.59277603643E+01  0.50056654200E+02  0.13290922635E+03  0.14214664759E+03  0.00000000000E+00 0.  1.
         12    1    4    4    0    0 -0.22990602217E+01 -0.97177034244E+01  0.29622351421E+03  0.29639178431E+03  0.00000000000E+00 0. -1.
         -5    1    5    5    0  501  0.59667925441E+02 -0.33329841647E+02  0.27340641923E+03  0.28185865207E+03  0.47000000000E+01 0.  1.
         13    1    6    6    0    0 -0.19608148902E+02 -0.14025710945E+02  0.18445255907E+03  0.18602136065E+03  0.00000000000E+00 0. -1.
        -14    1    6    6    0    0 -0.33964161740E+02  0.61845481788E+02  0.16396850547E+03  0.17850517832E+03  0.00000000000E+00 0.  1.
</event>
<event>
12    1  0.2625820E-002  0.2023740E+03  0.7818608E-02  0.1147751E+00
          1   -1    0    0  502    0  0.00000000000E+00  0.00000000000E+00  0.72374768556E+02  0.72374768556E+02  0.00000000000E+00 0. -1.
         -1   -1    0    0    0  501 -0.00000000000E+00 -0.00000000000E+00 -0.66374964909E+03  0.66374964909E+03  0.00000000000E+00 0.  1.
          6    2    1    2  502    0  0.69258805431E+02 -0.79204338332E+02 -0.43763371541E+03  0.48236760057E+03  0.17345063816E+03 0.  0.
         24    2    3    3    0    0  0.74308248356E+02 -0.53906872337E+02 -0.14926159408E+03  0.19280581266E+03  0.80420092444E+02 0.  0.
         -6    2    1    2    0  501 -0.69258805431E+02  0.79204338332E+02 -0.15374116512E+03  0.25375681707E+03  0.17229645097E+03 0.  0.
        -24    2    5    5    0    0 -0.90228556872E+02  0.15427142649E+01 -0.75368968176E+02  0.14134974620E+03  0.78458249687E+02 0.  0.
          5    1    3    3  502    0 -0.50494429252E+01 -0.25297465995E+02 -0.28837212133E+03  0.28956178791E+03  0.47000000000E+01 0. -1.
        -11    1    4    4    0    0  0.72011611535E+02 -0.72417198110E+02 -0.11504252542E+03  0.15383336905E+03  0.00000000000E+00 0.  1.
         12    1    4    4    0    0  0.22966368211E+01  0.18510325773E+02 -0.34219068663E+02  0.38972443612E+02  0.00000000000E+00 0. -1.
         -5    1    5    5    0  501  0.20969751441E+02  0.77661624068E+02 -0.78372196949E+02  0.11240707088E+03  0.47000000000E+01 0.  1.
         13    1    6    6    0    0 -0.95506587802E+02  0.86920920756E+01 -0.38359776958E+02  0.10328859214E+03  0.00000000000E+00 0. -1.
        -14    1    6    6    0    0  0.52780309297E+01 -0.71493778107E+01 -0.37009191218E+02  0.38061154057E+02  0.00000000000E+00 0.  1.
</event>
<event>
12    1  0.2625820E-002  0.2381337E+03  0.7818608E-02  0.1121042E+00
         -2   -1    0    0    0  501 -0.00000000000E+00  0.00000000000E+00  0.12966186473E+03  0.12966186473E+03  0.00000000000E+00 0.  1.
          2   -1    0    0  502    0  0.00000000000E+00 -0.00000000000E+00 -0.48262677429E+03  0.48262677429E+03  0.00000000000E+00 0. -1.
          6    2    1    2  502    0 -0.74865704653E+02  0.14737001248E+03 -0.26983733798E+03  0.35948530895E+03  0.17057169773E+03 0.  0.
         24    2    3    3    0    0 -0.10918014559E+03  0.86718135356E+02 -0.23659076020E+03  0.28213186048E+03  0.64675031456E+02 0.  0.
         -6    2    1    2    0  501  0.74865704653E+02 -0.14737001248E+03 -0.83127571580E+02  0.25280333007E+03  0.17226879064E+03 0.  0.
        -24    2    5    5    0    0  0.30259510208E+02 -0.23788583053E+02 -0.83464314345E+02  0.12133361615E+03  0.79208711631E+02 0.  0.
          5    1    3    3  502    0  0.34314440939E+02  0.60651877124E+02 -0.33246577781E+02  0.77353448467E+02  0.47000000000E+01 0. -1.
        -11    1    4    4    0    0 -0.10813697572E+03  0.54685750292E+02 -0.17769448007E+03  0.21508013634E+03  0.00000000000E+00 0.  1.
         12    1    4    4    0    0 -0.10431698751E+01  0.32032385064E+02 -0.58896280133E+02  0.67051724138E+02  0.00000000000E+00 0. -1.
         -5    1    5    5    0  501  0.44606194445E+02 -0.12358142943E+03  0.33674276451E+00  0.13146971392E+03  0.47000000000E+01 0.  1.
         11    1    6    6    0    0  0.51364920195E+02 -0.14940867574E+02 -0.25995082323E+02  0.59475447501E+02  0.00000000000E+00 0. -1.
        -12    1    6    6    0    0 -0.21105409987E+02 -0.88477154791E+01 -0.57469232022E+02  0.61858168653E+02  0.00000000000E+00 0.  1.
</event>
<event>
12    1  0.2625820E-002  0.2772345E+03  0.7818608E-02  0.1097209E+00
         -2   -1    0    0    0  501 -0.00000000000E+00  0.00000000000E+00  0.18428006369E+03  0.18428006369E+03  0.00000000000E+00 0. -1.
          2   -1    0    0  502    0  0.00000000000E+00 -0.00000000000E+00 -0.44499054228E+03  0.44499054228E+03  0.00000000000E+00 0.  1.
          6    2    1    2  502    0 -0.18641396608E+03  0.11212530774E+03 -0.20925532736E+03  0.34752032176E+03  0.17222174840E+03 0.  0.
         24    2    3    3    0    0 -0.10904424232E+03 -0.59281985624E+01 -0.87247932051E+02  0.16089074475E+03  0.79673331656E+02 0.  0.
         -6    2    1    2    0  501  0.18641396608E+03 -0.11212530774E+03 -0.51455151230E+02  0.28175028421E+03  0.17150317395E+03 0.  0.
        -24    2    5    5    0    0  0.97498695197E+02 -0.95953108266E+01  0.20614006235E+02  0.12801551546E+03  0.79780758273E+02 0.  0.
          5    1    3    3  502    0 -0.77369723764E+02  0.11805350630E+03 -0.12200739531E+03  0.18662957701E+03  0.47000000000E+01 0. -1.
        -11    1    4    4    0    0 -0.54467953244E+02  0.35196285129E+02 -0.56277274705E+02  0.85864242067E+02  0.00000000000E+00 0.  1.
         12    1    4    4    0    0 -0.54576289075E+02 -0.41124483692E+02 -0.30970657347E+02  0.75026502681E+02  0.00000000000E+00 0. -1.
         -5    1    5    5    0  501  0.88915270886E+02 -0.10252999691E+03 -0.72069157465E+02  0.15373476874E+03  0.47000000000E+01 0.  1.
         11    1    6    6    0    0 -0.10421988731E+02  0.31676891339E+00  0.16554612935E+02  0.19564595602E+02  0.00000000000E+00 0. -1.
        -12    1    6    6    0    0  0.10792068393E+03 -0.99120797400E+01  0.40593933004E+01  0.10845091986E+03  0.00000000000E+00 0.  1.
</event>
<event>
12    1  0.2625820E-002  0.1824115E+03  0.7818608E-02  0.1165489E+00
          2   -1    0    0  502    0  0.00000000000E+00  0.00000000000E+00  0.14359904607E+04  0.14359904607E+04  0.00000000000E+00 0. -1.
         -2   -1    0    0    0  501 -0.00000000000E+00 -0.00000000000E+00 -0.23284801942E+02  0.23284801942E+02  0.00000000000E+00 0.  1.
          6    2    1    2  502    0 -0.89532995216E+01  0.60464974757E+02  0.75734770895E+03  0.77901056015E+03  0.17188870185E+03 0.  0.
         24    2    3    3    0    0 -0.71490425550E+02  0.28634772929E+02  0.40562880954E+03  0.42032918611E+03  0.78810293738E+02 0.  0.
         -6    2    1    2    0  501  0.89532995216E+01 -0.60464974757E+02  0.65535794983E+03  0.68026470252E+03  0.17184251028E+03 0.  0.
        -24    2    5    5    0    0 -0.48992694489E+02 -0.33597832853E+02  0.53196848522E+03  0.54124444675E+03  0.80162231681E+02 0.  0.
          5    1    3    3  502    0  0.62537126029E+02  0.31830201828E+02  0.35171889941E+03  0.35868137404E+03  0.47000000000E+01 0. -1.
        -11    1    4    4    0    0  0.92975909155E+00 -0.11291148999E+02  0.17421785253E+03  0.17458583745E+03  0.00000000000E+00 0.  1.
         12    1    4    4    0    0 -0.72420184642E+02  0.39925921929E+02  0.23141095700E+03  0.24574334865E+03  0.00000000000E+00 0. -1.
         -5    1    5    5    0  501  0.57945994011E+02 -0.26867141904E+02  0.12338946461E+03  0.13902025577E+03  0.47000000000E+01 0.  1.
         13    1    6    6    0    0  0.17268353936E+02 -0.27589792455E+02  0.14605973854E+03  0.14964237341E+03  0.00000000000E+00 0. -1.
        -14    1    6    6    0    0 -0.66261048425E+02 -0.60080403980E+01  0.38590874667E+03  0.39160207334E+03  0.00000000000E+00 0.  1.
</event>
<event>
12    1  0.2625820E-002  0.1936400E+03  0.7818608E-02  0.1155219E+00
         -2   -1    0    0    0  501 -0.00000000000E+00  0.00000000000E+00  0.14594924740E+03  0.14594924740E+03  0.00000000000E+00 0.  1.
          2   -1    0    0  502    0  0.00000000000E+00 -0.00000000000E+00 -0.44122403254E+03  0.44122403254E+03  0.00000000000E+00 0. -1.
          6    2    1    2  502    0 -0.36173416251E+02 -0.80658780971E+02 -0.33783298916E+03  0.38990157611E+03  0.17342939629E+03 0.  0.
         24    2    3    3    0    0 -0.68308761442E+02 -0.25730293298E+02 -0.13051420197E+03  0.17298456735E+03  0.86957281133E+02 0.  0.
         -6    2    1    2    0  501  0.36173416251E+02  0.80658780971E+02  0.42558204019E+02  0.19727170382E+03  0.17114487842E+03 0.  0.
        -24    2    5    5    0    0  0.25377647945E+02 -0.24389733492E+02  0.24758358344E+02  0.90077191324E+02  0.79133052349E+02 0.  0.
          5    1    3    3  502    0  0.32135345191E+02 -0.54928487673E+02 -0.20731878719E+03  0.21691700876E+03  0.47000000000E+01 0. -1.
        -11    1    4    4    0    0  0.12930693785E+02 -0.10504397651E+02  0.20277378172E+01  0.16782637827E+02  0.00000000000E+00 0.  1.
         12    1    4    4    0    0 -0.81239455227E+02 -0.15225895647E+02 -0.13254193979E+03  0.15620192952E+03  0.00000000000E+00 0. -1.
         -5    1    5    5    0  501  0.10795768306E+02  0.10504851446E+03  0.17799845675E+02  0.10719451250E+03  0.47000000000E+01 0.  1.
         13    1    6    6    0    0 -0.16335363435E+02  0.19167842223E+02  0.84135705996E+00  0.25198376054E+02  0.00000000000E+00 0. -1.
        -14    1    6    6    0    0  0.41713011380E+02 -0.43557575714E+02  0.23917001284E+02  0.64878815271E+02  0.00000000000E+00 0.  1.
</event>
<event>
12    1  0.2625820E-002  0.1739267E+03  0.7818608E-02  0.1173814E+00
         -2   -1    0    0    0  501 -0.00000000000E+00  0.00000000000E+00  0.61685015838E+02  0.61685015838E+02  0.00000000000E+00 0. -1.
          2   -1    0    0  502    0  0.00000000000E+00 -0.00000000000E+00 -0.50775464547E+03  0.50775464547E+03  0.00000000000E+00 0.  1.
          6    2    1    2  502    0 -0.14995926878E+02 -0.12392140979E+02 -0.16964612161E+03  0.24252082795E+03  0.17221527932E+03 0.  0.
         24    2    3    3    0    0  0.52193388389E+02 -0.18932462555E+02 -0.86807510158E+02  0.13555585499E+03  0.88075297744E+02 0.  0.
         -6    2    1    2    0  501  0.14995926878E+02  0.12392140979E+02 -0.27642350803E+03  0.32691883336E+03  0.17345755918E+03 0.  0.
        -24    2    5    5    0    0 -0.19899577881E+02 -0.85691036333E+01 -0.50253567654E+02  0.97066702731E+02  0.80169202193E+02 0.  0.
          5    1    3    3  502    0 -0.67189315267E+02  0.65403215763E+01 -0.82838611449E+02  0.10696497295E+03  0.47000000000E+01 0. -1.
        -13    1    4    4    0    0 -0.10022431044E+02  0.19709826508E+02 -0.47592883154E+02  0.52478651964E+02  0.00000000000E+00 0.  1.
         14    1    4    4    0    0  0.62215819433E+02 -0.38642289064E+02 -0.39214627004E+02  0.83077203027E+02  0.00000000000E+00 0. -1.
         -5    1    5    5    0  501  0.34895504759E+02  0.20961244612E+02 -0.22616994037E+03  0.22985213063E+03  0.47000000000E+01 0.  1.
         11    1    6    6    0    0 -0.48856853831E+02  0.78069958425E+01 -0.34066048036E+02  0.60070267014E+02  0.00000000000E+00 0. -1.
        -12    1    6    6    0    0  0.28957275949E+02 -0.16376099476E+02 -0.16187519618E+02  0.36996435718E+02  0.00000000000E+00 0.  1.
</event>
<event>
12    1  0.2625820E-002  0.1746278E+03  0.7818608E-02  0.1173106E+00
         -2   -1    0    0    0  501 -0.00000000000E+00  0.00000000000E+00  0.17680225175E+02  0.17680225175E+02  0.00000000000E+00 0. -1.
          2   -1    0    0  502    0  0.00000000000E+00 -0.00000000000E+00 -0.18477660598E+04  0.18477660598E+04  0.00000000000E+00 0.  1.
          6    2    1    2  502    0 -0.19064011162E+02 -0.26384707554E+02 -0.67715690008E+03  0.69945006162E+03  0.17213172880E+03 0.  0.
         24    2    3    3    0    0 -0.23239665906E+02 -0.83416966568E+02 -0.48484590378E+03  0.49876193551E+03  0.78673029217E+02 0.  0.
         -6    2    1    2    0  501  0.19064011162E+02  0.26384707554E+02 -0.11529289345E+04  0.11659962233E+04  0.17100431412E+03 0.  0.
        -24    2    5    5    0    0  0.35595657117E+02  0.79536228957E+02 -0.82849728400E+03  0.83679056510E+03  0.78851998930E+02 0.  0.
          5    1    3    3  502    0  0.41756547446E+01  0.57032259014E+02 -0.19231099631E+03  0.20068812611E+03  0.47000000000E+01 0. -1.
        -11    1    4    4    0    0  0.26726398561E+02 -0.48947614431E+02 -0.25581079767E+03  0.26181927649E+03  0.00000000000E+00 0.  1.
         12    1    4    4    0    0 -0.49966064467E+02 -0.34469352138E+02 -0.22903510611E+03  0.23694265902E+03  0.00000000000E+00 0. -1.
         -5    1    5    5    0  501 -0.16531645955E+02 -0.53151521403E+02 -0.32443165050E+03  0.32920565820E+03  0.47000000000E+01 0.  1.
         13    1    6    6    0    0  0.94516951218E+01 -0.10562188053E+02 -0.34914676253E+02  0.37681944947E+02  0.00000000000E+00 0. -1.
        -14    1    6    6    0    0  0.26143961995E+02  0.90098417010E+02 -0.79358260774E+03  0.79910862016E+03  0.00000000000E+00 0.  1.
</event>
<event>
12    1  0.2625820E-002  0.1801517E+03  0.7818608E-02  0.1167656E+00
         -2   -1    0    0    0  501 -0.00000000000E+00  0.00000000000E+00  0.18241132309E+02  0.18241132309E+02  0.00000000000E+00 0.  1.
          2   -1    0    0  502    0  0.00000000000E+00 -0.00000000000E+00 -0.20363281435E+04  0.20363281435E+04  0.00000000000E+00 0. -1.
          6    2    1    2  502    0  0.42061175562E+02 -0.34069801254E+02 -0.64541624617E+03  0.67016469132E+03  0.17212986035E+03 0.  0.
         24    2    3    3    0    0  0.84538021067E+02  0.12383988128E+02 -0.40480689282E+03  0.42141343429E+03  0.80128783600E+02 0.  0.
         -6    2    1    2    0  501 -0.42061175562E+02  0.34069801254E+02 -0.13726707650E+04  0.13844045845E+04  0.17152588891E+03 0.  0.
        -24    2    5    5    0    0 -0.13217774750E+02  0.87289593128E+02 -0.87717150472E+03  0.88519932112E+03  0.79710769542E+02 0.  0.
          5    1    3    3  502    0 -0.42476845505E+02 -0.46453789382E+02 -0.24060935336E+03  0.24875125703E+03  0.47000000000E+01 0. -1.
        -11    1    4    4    0    0 -0.98308082228E+01 -0.14772757685E+02 -0.43007926845E+02  0.46524842090E+02  0.00000000000E+00 0.  1.
         12    1    4    4    0    0  0.94368829289E+02  0.27156745814E+02 -0.36179896597E+03  0.37488859220E+03  0.00000000000E+00 0. -1.
         -5    1    5    5    0  501 -0.28843400811E+02 -0.53219791874E+02 -0.49549926032E+03  0.49920526339E+03  0.47000000000E+01 0.  1.
         11    1    6    6    0    0  0.26167209788E+02  0.94241620771E+01 -0.32356055097E+03  0.32475370336E+03  0.00000000000E+00 0. -1.
        -12    1    6    6    0    0 -0.39384984538E+02  0.77865431051E+02 -0.55361095375E+03  0.56044561776E+03  0.00000000000E+00 0.  1.
</event>
<event>
12    1  0.2625820E-002  0.3057771E+03  0.7818608E-02  0.1082388E+00
         -2   -1    0    0    0  501 -0.00000000000E+00  0.00000000000E+00  0.18183093461E+03  0.18183093461E+03  0.00000000000E+00 0.  1.
          2   -1    0    0  502    0  0.00000000000E+00 -0.00000000000E+00 -0.53584319913E+03  0.53584319913E+03  0.00000000000E+00 0. -1.
          6    2    1    2  502    0  0.24897159031E+03 -0.40740309679E+02 -0.10542208309E+03  0.32430121401E+03  0.17438702987E+03 0.  0.
         24    2    3    3    0    0  0.25497669179E+03 -0.16311269365E+01 -0.91518582267E+02  0.28209947525E+03  0.78668221690E+02 0.  0.
         -6    2    1    2    0  501 -0.24897159031E+03  0.40740309679E+02 -0.24859018143E+03  0.39337291973E+03  0.17116819232E+03 0.  0.
        -24    2    5    5    0    0 -0.11505174194E+03  0.50588018517E+02 -0.20304502527E+03  0.25149989761E+03  0.78923160525E+02 0.  0.
          5    1    3    3  502    0 -0.60051014812E+01 -0.39109182743E+02 -0.13903500824E+02  0.42201738753E+02  0.47000000000E+01 0. -1.
        -11    1    4    4    0    0  0.15519367792E+03  0.35821164877E+02 -0.42877740587E+02  0.16494463967E+03  0.00000000000E+00 0.  1.
         12    1    4    4    0    0  0.99783013879E+02 -0.37452291814E+02 -0.48640841680E+02  0.11715483558E+03  0.00000000000E+00 0. -1.
         -5    1    5    5    0  501 -0.13391984837E+03 -0.98477088375E+01 -0.45545156154E+02  0.14187302213E+03  0.47000000000E+01 0.  1.
         11    1    6    6    0    0  0.11594546126E+02  0.76393082021E+01 -0.12322561447E+02  0.18564429706E+02  0.00000000000E+00 0. -1.
        -12    1    6    6    0    0 -0.12664628807E+03  0.42948710315E+02 -0.19072246383E+03  0.23293546790E+03  0.00000000000E+00 0.  1.
</event>
<event>
12    1  0.2625820E-002  0.2684003E+03  0.7818608E-02  0.1102199E+00
          2   -1    0    0  502    0  0.00000000000E+00  0.00000000000E+00  0.98933371970E+03  0.98933371970E+03  0.00000000000E+00 0. -1.
         -2   -1    0    0    0  501 -0.00000000000E+00 -0.00000000000E+00 -0.97432680504E+02  0.97432680504E+02  0.00000000000E+00 0.  1.
          6    2    1    2  502    0  0.34653613512E+01  0.20593066927E+03  0.71914930132E+03  0.76762160510E+03  0.17218525418E+03 0.  0.
         24    2    3    3    0    0  0.56313592118E+02  0.74107267747E+02  0.26974110678E+03  0.29628291583E+03  0.79750822794E+02 0.  0.
         -6    2    1    2    0  501 -0.34653613512E+01 -0.20593066927E+03  0.17275173788E+03  0.31914479510E+03  0.17201973150E+03 0.  0.
        -24    2    5    5    0    0 -0.50043411110E+02 -0.11717583001E+03  0.15835507866E+03  0.21777275749E+03  0.78192869460E+02 0.  0.
          5    1    3    3  502    0 -0.52848230767E+02  0.13182340152E+03  0.44940819454E+03  0.47133868927E+03  0.47000000000E+01 0. -1.
        -11    1    4    4    0    0  0.85271868901E+01 -0.16357569427E+02  0.25444805335E+02  0.31428030679E+02  0.00000000000E+00 0.  1.
         12    1    4    4    0    0  0.47786405228E+02  0.90464837173E+02  0.24429630144E+03  0.26485488515E+03  0.00000000000E+00 0. -1.
         -5    1    5    5    0  501  0.46578049759E+02 -0.88754839263E+02  0.14396659213E+02  0.10137203761E+03  0.47000000000E+01 0.  1.
         13    1    6    6    0    0 -0.58008354403E+02 -0.40159197242E+02  0.60131480929E+02  0.92701269152E+02  0.00000000000E+00 0. -1.
        -14    1    6    6    0    0  0.79649432923E+01 -0.77016632766E+02  0.98223597734E+02  0.12507148834E+03  0.00000000000E+00 0.  1.
</event>
<event>
12    1  0.2625820E-002  0.2416068E+03  0.7818608E-02  0.1118727E+00
         -1   -1    0    0    0  501 -0.00000000000E+00  0.00000000000E+00  0.16488866222E+03  0.16488866222E+03  0.00000000000E+00 0.  1.
          1   -1    0    0  502    0  0.00000000000E+00 -0.00000000000E+00 -0.42145761902E+03  0.42145761902E+03  0.00000000000E+00 0. -1.
          6    2    1    2  502    0  0.11853632921E+03 -0.12182683756E+03 -0.10877936596E+02  0.24155211512E+03  0.17127888114E+03 0.  0.
         24    2    3    3    0    0  0.99788650701E+02 -0.10504729053E+03  0.51703401485E+02  0.17393893206E+03  0.81171437742E+02 0.  0.
         -6    2    1    2    0  501 -0.11853632921E+03  0.12182683756E+03 -0.24569102021E+03  0.34479416612E+03  0.17212292087E+03 0.  0.
        -24    2    5    5    0    0 -0.15064713322E+02  0.13431337637E+02 -0.13753972241E+03  0.15993001894E+03  0.79076477533E+02 0.  0.
          5    1    3    3  502    0  0.18747678506E+02 -0.16779547028E+02 -0.62581338081E+02  0.67613183062E+02  0.47000000000E+01 0. -1.
        -13    1    4    4    0    0  0.88713496874E+02 -0.10401293445E+03  0.17318377551E+02  0.13779949660E+03  0.00000000000E+00 0.  1.
         14    1    4    4    0    0  0.11075153827E+02 -0.10343560771E+01  0.34385023934E+02  0.36139435465E+02  0.00000000000E+00 0. -1.
         -5    1    5    5    0  501 -0.10347161588E+03  0.10839549992E+03 -0.10815129780E+03  0.18486414718E+03  0.47000000000E+01 0.  1.
         11    1    6    6    0    0  0.56147431685E+01  0.16835146191E+02 -0.13783245435E+03  0.13897025927E+03  0.00000000000E+00 0. -1.
        -12    1    6    6    0    0 -0.20679456491E+02 -0.34038085545E+01  0.29273194397E+00  0.20959759670E+02  0.00000000000E+00 0.  1.
</event>
<event>
12    1  0.2625820E-002  0.2576593E+03  0.7818608E-02  0.1108558E+00
         -2   -1    0    0    0  501 -0.00000000000E+00  0.00000000000E+00  0.53705293533E+02  0.53705293533E+02  0.00000000000E+00 0.  1.
          2   -1    0    0  502    0  0.00000000000E+00 -0.00000000000E+00 -0.12858034061E+04  0.12858034061E+04  0.00000000000E+00 0. -1.
          6    2    1    2  502    0 -0.57617074858E+02 -0.18343448676E+03 -0.74824138889E+03  0.79144582814E+03  0.17191097864E+03 0.  0.
         24    2    3    3    0    0 -0.62320609419E+02 -0.67816090432E+02 -0.53560733109E+03  0.54931968469E+03  0.79962631151E+02 0.  0.
         -6    2    1    2    0  501  0.57617074858E+02  0.18343448676E+03 -0.48385672371E+03  0.54806287153E+03  0.17113633110E+03 0.  0.
        -24    2    5    5    0    0  0.67649850531E+02  0.10796859566E+03 -0.18411299117E+03  0.23876665024E+03  0.82934913173E+02 0.  0.
          5    1    3    3  502    0  0.47035345611E+01 -0.11561839633E+03 -0.21263405780E+03  0.24212614345E+03  0.47000000000E+01 0. -1.
        -11    1    4    4    0    0  0.10839527391E+02  0.94031581474E+01 -0.42098189960E+02  0.44476649324E+02  0.00000000000E+00 0.  1.
         12    1    4    4    0    0 -0.73160136810E+02 -0.77219248579E+02 -0.49350914113E+03  0.50484303536E+03  0.00000000000E+00 0. -1.
         -5    1    5    5    0  501 -0.10032775673E+02  0.75465891102E+02 -0.29974373254E+03  0.30929622129E+03  0.47000000000E+01 0.  1.
         11    1    6    6    0    0  0.18918814672E+02  0.88585337450E+02 -0.74614200691E+02  0.11735656140E+03  0.00000000000E+00 0. -1.
        -12    1    6    6    0    0  0.48731035859E+02  0.19383258212E+02 -0.10949879048E+03  0.12141008884E+03  0.00000000000E+00 0.  1.
</event>
<event>
12    1  0.2625820E-002  0.1974879E+03  0.7818608E-02  0.1151876E+00
         -2   -1    0    0    0  501 -0.00000000000E+00  0.00000000000E+00  0.81415784506E+02  0.81415784506E+02  0.00000000000E+00 0. -1.
          2   -1    0    0  502    0  0.00000000000E+00 -0.00000000000E+00 -0.52972426280E+03  0.52972426280E+03  0.00000000000E+00 0.  1.
          6    2    1    2  502    0 -0.46344849880E+02  0.82683016222E+02 -0.31772183146E+03  0.37361494529E+03  0.17221103007E+03 0.  0.
         24    2    3    3    0    0 -0.34268576006E+02  0.77525544779E+02 -0.33275730003E+03  0.35310662460E+03  0.82294120199E+02 0.  0.
         -6    2    1    2    0  501  0.46344849880E+02 -0.82683016222E+02 -0.13058664684E+03  0.23752510202E+03  0.17430139264E+03 0.  0.
        -24    2    5    5    0    0  0.54866825195E+02 -0.50462104809E+02 -0.72772855136E+01  0.10970452548E+03  0.80158165511E+02 0.  0.
          5    1    3    3  502    0 -0.12076273874E+02  0.51574714427E+01  0.15035468571E+02  0.20508320689E+02  0.47000000000E+01 0. -1.
        -11    1    4    4    0    0 -0.28084920012E+02 -0.96863011740E+01 -0.65773842945E+02  0.72171916825E+02  0.00000000000E+00 0.  1.
         12    1    4    4    0    0 -0.61836559937E+01  0.87211845953E+02 -0.26698345708E+03  0.28093470777E+03  0.00000000000E+00 0. -1.
         -5    1    5    5    0  501 -0.85219753156E+01 -0.32220911413E+02 -0.12330936133E+03  0.12782057654E+03  0.47000000000E+01 0.  1.
         11    1    6    6    0    0  0.27007695463E+02 -0.64920467921E+02 -0.23801094574E+02  0.74233246408E+02  0.00000000000E+00 0. -1.
        -12    1    6    6    0    0  0.27859129732E+02  0.14458363112E+02  0.16523809060E+02  0.35471279075E+02  0.00000000000E+00 0.  1.
</event>
<event>
12    1  0.2625820E-002  0.1708523E+03  0.7818608E-02  0.1176962E+00
          2   -1    0    0  502    0  0.00000000000E+00  0.00000000000E+00  0.52739206017E+03  0.52739206017E+03  0.00000000000E+00 0. -1.
         -2   -1    0    0    0  501 -0.00000000000E+00 -0.00000000000E+00 -0.77408182283E+02  0.77408182283E+02  0.00000000000E+00 0.  1.
          6    2    1    2  502    0 -0.13672159184E+02 -0.14885166007E+00  0.64634621017E+02  0.18372806151E+03  0.17143924947E+03 0.  0.
         24    2    3    3    0    0  0.53129135796E+02 -0.14046857193E+02  0.62868739587E+02  0.11531186528E+03  0.79525647377E+02 0.  0.
         -6    2    1    2    0  501  0.13672159184E+02  0.14885166007E+00  0.38534925687E+03  0.42107218095E+03  0.16917677648E+03 0.  0.
        -24    2    5    5    0    0 -0.58760745797E+01  0.63756894494E+02  0.23320005897E+03  0.25494095276E+03  0.80704101765E+02 0.  0.
          5    1    3    3  502    0 -0.66801294979E+02  0.13898005532E+02  0.17658814300E+01  0.68416196225E+02  0.47000000000E+01 0. -1.
        -11    1    4    4    0    0 -0.11892487335E+02 -0.18381776078E+02 -0.36457115635E+01  0.22194867866E+02  0.00000000000E+00 0.  1.
         12    1    4    4    0    0  0.65021623130E+02  0.43349188856E+01  0.66514451150E+02  0.93116997418E+02  0.00000000000E+00 0. -1.
         -5    1    5    5    0  501  0.19548233764E+02 -0.63608042834E+02  0.15214919790E+03  0.16613122819E+03  0.47000000000E+01 0.  1.
         13    1    6    6    0    0 -0.25778884230E+02  0.35541967615E+02  0.20697949630E+03  0.21158519377E+03  0.00000000000E+00 0. -1.
        -14    1    6    6    0    0  0.19902809650E+02  0.28214926879E+02  0.26220562672E+02  0.43355758990E+02  0.00000000000E+00 0.  1.
</event>
<event>
12    1  0.2625820E-002  0.1771927E+03  0.7818608E-02  0.1170548E+00
          1   -1    0    0  502    0  0.00000000000E+00  0.00000000000E+00  0.15874715968E+04  0.15874715968E+04  0.00000000000E+00 0. -1.
         -1   -1    0    0    0  501 -0.00000000000E+00 -0.00000000000E+00 -0.42725892286E+02  0.42725892286E+02  0.00000000000E+00 0.  1.
          6    2    1    2  502    0  0.10568585686E+02  0.47863426742E+02  0.13618874716E+04  0.13728867307E+04  0.16636672558E+03 0.  0.
         24    2    3    3    0    0  0.51672671324E+02  0.51244205592E+02  0.82716140788E+03  0.83655192039E+03  0.10162227732E+03 0.  0.
         -6    2    1    2    0  501 -0.10568585686E+02 -0.47863426742E+02  0.18285823290E+03  0.25731075838E+03  0.17426729589E+03 0.  0.
        -24    2    5    5    0    0  0.22731585698E+02 -0.29515517477E+02  0.19761630095E+03  0.21625667502E+03  0.79541538391E+02 0.  0.
          5    1    3    3  502    0 -0.41104085638E+02 -0.33807788501E+01  0.53472606373E+03  0.53633481032E+03  0.47000000000E+01 0. -1.
        -11    1    4    4    0    0  0.36805613825E+01  0.52877099506E+02  0.18081025041E+03  0.18841942797E+03  0.00000000000E+00 0.  1.
         12    1    4    4    0    0  0.47992109941E+02 -0.16328939135E+01  0.64635115748E+03  0.64813249242E+03  0.00000000000E+00 0. -1.
         -5    1    5    5    0  501 -0.33300171384E+02 -0.18347909265E+02 -0.14758068045E+02  0.41054083366E+02  0.47000000000E+01 0.  1.
         11    1    6    6    0    0  0.52411926092E+01  0.18392315721E+02  0.95088848721E+01  0.21358049280E+02  0.00000000000E+00 0. -1.
        -12    1    6    6    0    0  0.17490393088E+02 -0.47907833198E+02  0.18810741608E+03  0.19489862574E+03  0.00000000000E+00 0.  1.
</event>
<event>
12    1  0.2625820E-002  0.2711642E+03  0.7818608E-02  0.1100615E+00
         -3   -1    0    0    0  501 -0.00000000000E+00  0.00000000000E+00  0.16307552084E+03  0.16307552084E+03  0.00000000000E+00 0. -1.
          3   -1    0    0  502    0  0.00000000000E+00 -0.00000000000E+00 -0.50883965577E+03  0.50883965577E+03  0.00000000000E+00 0.  1.
          6    2    1    2  502    0 -0.20006988271E+03  0.66177150011E+02 -0.60215584058E+02  0.27897098250E+03  0.17260219976E+03 0.  0.
         24    2    3    3    0    0 -0.66913748169E+02 -0.26363899660E+02 -0.18495793685E+01  0.10656714686E+03  0.78616988920E+02 0.  0.
         -6    2    1    2    0  501  0.20006988271E+03 -0.66177150011E+02 -0.28554855087E+03  0.39294419410E+03  0.16870030119E+03 0.  0.
        -24    2    5    5    0    0  0.67069425762E+02 -0.55400945345E+02 -0.65767579179E+02  0.13578468397E+03  0.80898289916E+02 0.  0.
          5    1    3    3  502    0 -0.13315613454E+03  0.92541049671E+02 -0.58366004690E+02  0.17240383564E+03  0.47000000000E+01 0. -1.
        -11    1    4    4    0    0 -0.31780813210E+02 -0.27752486846E+02 -0.37533653836E+02  0.56471194291E+02  0.00000000000E+00 0.  1.
         12    1    4    4    0    0 -0.35132934959E+02  0.13885871863E+01  0.35684074467E+02  0.50095952569E+02  0.00000000000E+00 0. -1.
         -5    1    5    5    0  501  0.13300045695E+03 -0.10776204665E+02 -0.21978097169E+03  0.25715951014E+03  0.47000000000E+01 0.  1.
         11    1    6    6    0    0  0.27688739079E+02 -0.66549722593E+02 -0.20889298759E+02  0.75045950268E+02  0.00000000000E+00 0. -1.
        -12    1    6    6    0    0  0.39380686683E+02  0.11148777247E+02 -0.44878280421E+02  0.60738733698E+02  0.00000000000E+00 0.  1.
</event>
<event>
12    1  0.3813394E-002  0.1742391E+03  0.7818608E-02  0.1173498E+00
          2   -1    0    0  502    0  0.00000000000E+00  0.00000000000E+00  0.62081414479E+03  0.62081414479E+03  0.00000000000E+00 0.  1.
         -2   -1    0    0    0  501 -0.00000000000E+00 -0.00000000000E+00 -0.57588063745E+02  0.57588063745E+02  0.00000000000E+00 0. -1.
          6    2    1    2  502    0 -0.57679406654E+01  0.49078253681E+02  0.40651521713E+03  0.44045988723E+03  0.16219847834E+03 0.  0.
         24    2    3    3    0    0  0.24986592696E+01  0.43909187458E+02  0.41589317636E+03  0.42613885237E+03  0.81810313040E+02 0.  0.
         -6    2    1    2    0  501  0.57679406654E+01 -0.49078253681E+02  0.15671086391E+03  0.23794232130E+03  0.17209389668E+03 0.  0.
        -24    2    5    5    0    0 -0.53301131708E+02  0.10466811174E+02  0.89886131170E+02  0.13059985549E+03  0.77628866416E+02 0.  0.
          5    1    3    3  502    0 -0.82665999350E+01  0.51690662225E+01 -0.93779592265E+01  0.14321034856E+02  0.47000000000E+01 0. -1.
        -13    1    4    4    0    0  0.22001013487E+02 -0.80368797788E+01  0.25244559250E+03  0.25352990593E+03  0.00000000000E+00 0.  1.
         14    1    4    4    0    0 -0.19502354218E+02  0.51946067237E+02  0.16344758386E+03  0.17260894644E+03  0.00000000000E+00 0. -1.
         -5    1    5    5    0  501  0.59069072374E+02 -0.59545064855E+02  0.66824732739E+02  0.10734246581E+03  0.47000000000E+01 0.  1.
         13    1    6    6    0    0 -0.40416255001E+01 -0.75068024517E+01 -0.12754049199E+02  0.15341205647E+02  0.00000000000E+00 0. -1.
        -14    1    6    6    0    0 -0.49259506208E+02  0.17973613626E+02  0.10264018037E+03  0.11525864985E+03  0.00000000000E+00 0.  1.
</event>
<event>
12    1  0.2625820E-002  0.2353311E+03  0.7818608E-02  0.1122943E+00
          2   -1    0    0  502    0  0.00000000000E+00  0.00000000000E+00  0.13189026705E+04  0.13189026705E+04  0.00000000000E+00 0. -1.
         -2   -1    0    0    0  501 -0.00000000000E+00 -0.00000000000E+00 -0.52362208483E+02  0.52362208483E+02  0.00000000000E+00 0.  1.
          6    2    1    2  502    0 -0.77091320363E+02 -0.13823169679E+03  0.32338505140E+03  0.39865020879E+03  0.17115204885E+03 0.  0.
         24    2    3    3    0    0 -0.69373444893E+02 -0.13584653562E+03  0.33942785181E+03  0.38008367868E+03  0.77365238419E+02 0.  0.
         -6    2    1    2    0  501  0.77091320363E+02  0.13823169679E+03  0.94315541057E+03  0.97261467015E+03  0.17716121028E+03 0.  0.
        -24    2    5    5    0    0  0.15247994052E+02  0.11859525533E+03  0.82786530349E+03  0.84023610076E+03  0.79614121806E+02 0.  0.
          5    1    3    3  502    0 -0.77178754704E+01 -0.23851611698E+01 -0.16042800406E+02  0.18566530114E+02  0.47000000000E+01 0. -1.
        -11    1    4    4    0    0 -0.63607629936E+02 -0.71339429461E+02  0.13332724039E+03  0.16404693783E+03  0.00000000000E+00 0.  1.
         12    1    4    4    0    0 -0.57658149574E+01 -0.64507106159E+02  0.20610061142E+03  0.21603674085E+03  0.00000000000E+00 0. -1.
         -5    1    5    5    0  501  0.61843326311E+02  0.19636441456E+02  0.11529010708E+03  0.13237856938E+03  0.47000000000E+01 0.  1.
         13    1    6    6    0    0  0.35304762375E+02  0.11111440890E+03  0.58996870151E+03  0.60137833921E+03  0.00000000000E+00 0. -1.
        -14    1    6    6    0    0 -0.20056768323E+02  0.74808464296E+01  0.23789660199E+03  0.23885776155E+03  0.00000000000E+00 0.  1.
</event>
<event>
12    1  0.2625820E-002  0.1817869E+03  0.7818608E-02  0.1166085E+00
          1   -1    0    0  502    0  0.00000000000E+00  0.00000000000E+00  0.71670423479E+03  0.71670423479E+03  0.00000000000E+00 0.  1.
         -1   -1    0    0    0  501 -0.00000000000E+00 -0.00000000000E+00 -0.46143343272E+02  0.46143343272E+02  0.00000000000E+00 0. -1.
          6    2    1    2  502    0 -0.61934565616E+01 -0.64176622327E+02  0.34683969132E+03  0.39190524990E+03  0.17068964721E+03 0.  0.
         24    2    3    3    0    0 -0.33627211978E+02  0.13909996358E+02  0.10859252842E+03  0.13964758087E+03  0.79905145200E+02 0.  0.
         -6    2    1    2    0  501  0.61934565616E+01  0.64176622327E+02  0.32372120019E+03  0.37094232816E+03  0.16925069456E+03 0.  0.
        -24    2    5    5    0    0 -0.54421683225E+02  0.48481702741E+02  0.25865913824E+03  0.28052281933E+03  0.80475507217E+02 0.  0.
          5    1    3    3  502    0  0.27433755417E+02 -0.78086618685E+02  0.23824716290E+03  0.25225766903E+03  0.47000000000E+01 0. -1.
        -13    1    4    4    0    0 -0.70494932116E+01 -0.32961567807E+02  0.37129285775E+02  0.50147224938E+02  0.00000000000E+00 0.  1.
         14    1    4    4    0    0 -0.26577718767E+02  0.46871564165E+02  0.71463242648E+02  0.89500355932E+02  0.00000000000E+00 0. -1.
         -5    1    5    5    0  501  0.60615139787E+02  0.15694919586E+02  0.65062061951E+02  0.90419508832E+02  0.47000000000E+01 0.  1.
         11    1    6    6    0    0 -0.10345943235E+02  0.39717775231E+02  0.40061622782E+02  0.57353934744E+02  0.00000000000E+00 0. -1.
        -12    1    6    6    0    0 -0.44075739990E+02  0.87639275105E+01  0.21859751546E+03  0.22316888458E+03  0.00000000000E+00 0.  1.
</event>
<event>
12    1  0.2625820E-002  0.2406920E+03  0.7818608E-02  0.1119333E+00
         -1   -1    0    0    0  501 -0.00000000000E+00  0.00000000000E+00  0.38104116527E+03  0.38104116527E+03  0.00000000000E+00 0.  1.
          1   -1    0    0  502    0  0.00000000000E+00 -0.00000000000E+00 -0.16170540971E+03  0.16170540971E+03  0.00000000000E+00 0. -1.
          6    2    1    2  502    0 -0.15881087105E+03 -0.58011231573E+02  0.43575518423E+02  0.24519781841E+03  0.17215385153E+03 0.  0.
         24    2    3    3    0    0 -0.64865200183E+02 -0.94807548333E+02  0.35689767147E+02  0.14388625405E+03  0.78952702352E+02 0.  0.
         -6    2    1    2    0  501  0.15881087105E+03  0.58011231573E+02  0.17576023713E+03  0.29754875658E+03  0.17046232966E+03 0.  0.
        -24    2    5    5    0    0  0.10735095393E+03  0.52586875556E+02  0.33326158539E+02  0.14593377231E+03  0.76788190941E+02 0.  0.
          5    1    3    3  502    0 -0.93945670863E+02  0.36796316760E+02  0.78857512758E+01  0.10131156437E+03  0.47000000000E+01 0. -1.
        -13    1    4    4    0    0 -0.10924510755E+02 -0.73247462290E+02  0.42520224109E+02  0.85396165754E+02  0.00000000000E+00 0.  1.
         14    1    4    4    0    0 -0.53940689427E+02 -0.21560086042E+02 -0.68304569618E+01  0.58490088292E+02  0.00000000000E+00 0. -1.
         -5    1    5    5    0  501  0.51459917112E+02  0.54243560170E+01  0.14243407860E+03  0.15161498426E+03  0.47000000000E+01 0.  1.
         11    1    6    6    0    0  0.57649891654E+02 -0.13672809775E+02  0.13823629843E+02  0.60840352374E+02  0.00000000000E+00 0. -1.
        -12    1    6    6    0    0  0.49701062279E+02  0.66259685331E+02  0.19502528696E+02  0.85093419941E+02  0.00000000000E+00 0.  1.
</event>
<event>
12    1  0.2625820E-002  0.2071770E+03  0.7818608E-02  0.1143821E+00
         -1   -1    0    0    0  501 -0.00000000000E+00  0.00000000000E+00  0.12809416325E+03  0.12809416325E+03  0.00000000000E+00 0.  1.
          1   -1    0    0  502    0  0.00000000000E+00 -0.00000000000E+00 -0.35889922273E+03  0.35889922273E+03  0.00000000000E+00 0. -1.
          6    2    1    2  502    0  0.10502602555E+03 -0.49093392956E+02 -0.17833524036E+03  0.27366745968E+03  0.17219115325E+03 0.  0.
         24    2    3    3    0    0  0.10401143667E+03 -0.39977315209E+02 -0.52274588372E+02  0.14718619528E+03  0.80712940737E+02 0.  0.
         -6    2    1    2    0  501 -0.10502602555E+03  0.49093392956E+02 -0.52469819127E+02  0.21332592630E+03  0.17121402290E+03 0.  0.
        -24    2    5    5    0    0 -0.13054608398E+03  0.70076884221E+02 -0.25211922497E+02  0.17023691127E+03  0.79949453884E+02 0.  0.
          5    1    3    3  502    0  0.10145888843E+01 -0.91160777465E+01 -0.12606065199E+03  0.12648126440E+03  0.47000000000E+01 0. -1.
        -11    1    4    4    0    0  0.74541424531E+02 -0.49343492598E+02 -0.68167125331E+02  0.11241868710E+03  0.00000000000E+00 0.  1.
         12    1    4    4    0    0  0.29470012137E+02  0.93661773889E+01  0.15892536958E+02  0.34767508183E+02  0.00000000000E+00 0. -1.
         -5    1    5    5    0  501  0.25520058432E+02 -0.20983491265E+02 -0.27257896630E+02  0.43089015035E+02  0.47000000000E+01 0.  1.
         13    1    6    6    0    0  0.28672896124E+01  0.22358495179E+02 -0.17137930844E+02  0.28316644046E+02  0.00000000000E+00 0. -1.
        -14    1    6    6    0    0 -0.13341337360E+03  0.47718389042E+02 -0.80739916528E+01  0.14192026722E+03  0.00000000000E+00 0.  1.
</event>
<event>
12    1  0.2625820E-002  0.1933365E+03  0.7818608E-02  0.1155486E+00
          1   -1    0    0  502    0  0.00000000000E+00  0.00000000000E+00  0.49430150446E+03  0.49430150446E+03  0.00000000000E+00 0. -1.
         -1   -1    0    0    0  501 -0.00000000000E+00 -0.00000000000E+00 -0.87868431362E+02  0.87868431362E+02  0.00000000000E+00 0.  1.
          6    2    1    2  502    0 -0.36747484363E+02 -0.78106233699E+02  0.31172722337E+03  0.36671666871E+03  0.17278973341E+03 0.  0.
         24    2    3    3    0    0  0.17500458754E+02 -0.86643547225E+02  0.12548390730E+03  0.17248899861E+03  0.78694811247E+02 0.  0.
         -6    2    1    2    0  501  0.36747484363E+02  0.78106233699E+02  0.94705849728E+02  0.21545326711E+03  0.17320493926E+03 0.  0.
        -24    2    5    5    0    0 -0.10575414267E+02 -0.72247960934E+01  0.17368052530E+01  0.80597141511E+02  0.79554042397E+02 0.  0.
          5    1    3    3  502    0 -0.54247943118E+02  0.85373135260E+01  0.18624331606E+03  0.19422767010E+03  0.47000000000E+01 0. -1.
        -11    1    4    4    0    0 -0.66177389568E+01 -0.39784401893E+02  0.11060275384E+03  0.11772664210E+03  0.00000000000E+00 0.  1.
         12    1    4    4    0    0  0.24118197711E+02 -0.46859145332E+02  0.14881153461E+02  0.54762356509E+02  0.00000000000E+00 0. -1.
         -5    1    5    5    0  501  0.47322898630E+02  0.85331029793E+02  0.92969044475E+02  0.13485612560E+03  0.47000000000E+01 0.  1.
         13    1    6    6    0    0  0.13676839119E+02 -0.20724053572E+02  0.31361632822E+02  0.40001179208E+02  0.00000000000E+00 0. -1.
        -14    1    6    6    0    0 -0.24252253386E+02  0.13499257479E+02 -0.29624827569E+02  0.40595962303E+02  0.00000000000E+00 0.  1.
</event>
<event>
12    1  0.2700621E-002  0.2023330E+03  0.7818608E-02  0.1147785E+00
         -1   -1    0    0    0  501 -0.00000000000E+00  0.00000000000E+00  0.67053978734E+02  0.67053978734E+02  0.00000000000E+00 0. -1.
          1   -1    0    0  502    0  0.00000000000E+00 -0.00000000000E+00 -0.74716170887E+03  0.74716170887E+03  0.00000000000E+00 0.  1.
          6    2    1    2  502    0 -0.26994023702E+02 -0.92272266949E+02 -0.15840188633E+03  0.25250301203E+03  0.17153356793E+03 0.  0.
         24    2    3    3    0    0 -0.11058650086E+02 -0.13146298223E+03 -0.12499256632E+03  0.19839089730E+03  0.79567562839E+02 0.  0.
         -6    2    1    2    0  501  0.26994023702E+02  0.92272266949E+02 -0.52170584380E+03  0.56171267558E+03  0.18466535647E+03 0.  0.
        -24    2    5    5    0    0  0.42721516487E+02 -0.90375242218E+01 -0.18299913891E+03  0.20779835013E+03  0.88230746680E+02 0.  0.
          5    1    3    3  502    0 -0.15935373616E+02  0.39190715285E+02 -0.33409320017E+02  0.54112114733E+02  0.47000000000E+01 0. -1.
        -13    1    4    4    0    0  0.82792197004E+01 -0.17628899053E+02 -0.65831298618E+02  0.68651900472E+02  0.00000000000E+00 0.  1.
         14    1    4    4    0    0 -0.19337869786E+02 -0.11383408318E+03 -0.59161267699E+02  0.12973899682E+03  0.00000000000E+00 0. -1.
         -5    1    5    5    0  501 -0.15727492786E+02  0.10130979117E+03 -0.33870670490E+03  0.35391432545E+03  0.47000000000E+01 0.  1.
         13    1    6    6    0    0  0.18396295121E+02  0.32162653363E+02 -0.30565704635E+02  0.48032512378E+02  0.00000000000E+00 0. -1.
        -14    1    6    6    0    0  0.24325221367E+02 -0.41200177585E+02 -0.15243343427E+03  0.15976583775E+03  0.00000000000E+00 0.  1.
</event>
<event>
12    1  0.2625820E-002  0.2193077E+03  0.7818608E-02  0.1134400E+00
          2   -1    0    0  502    0  0.00000000000E+00  0.00000000000E+00  0.88958374911E+03  0.88958374911E+03  0.00000000000E+00 0. -1.
         -2   -1    0    0    0  501 -0.00000000000E+00 -0.00000000000E+00 -0.62186234245E+02  0.62186234245E+02  0.00000000000E+00 0.  1.
          6    2    1    2  502    0 -0.11707603404E+03  0.60041758041E+02  0.24174870212E+03  0.32640981694E+03  0.17546829674E+03 0.  0.
         24    2    3    3    0    0  0.15501054686E+02  0.69527353560E+01  0.90268710965E+02  0.11817099610E+03  0.74345954253E+02 0.  0.
         -6    2    1    2    0  501  0.11707603404E+03 -0.60041758041E+02  0.58564881274E+03  0.62536016642E+03  0.17543943518E+03 0.  0.
        -24    2    5    5    0    0  0.14545576131E+03 -0.19737593062E+02  0.49248382862E+03  0.51985358415E+03  0.78488702532E+02 0.  0.
          5    1    3    3  502    0 -0.13257708873E+03  0.53089022685E+02  0.15147999116E+03  0.20823882084E+03  0.47000000000E+01 0. -1.
        -13    1    4    4    0    0 -0.18510835270E+02 -0.56598710034E+01 -0.15772835063E+01  0.19420941929E+02  0.00000000000E+00 0.  1.
         14    1    4    4    0    0  0.34011889956E+02  0.12612606359E+02  0.91845994472E+02  0.98750054167E+02  0.00000000000E+00 0. -1.
         -5    1    5    5    0  501 -0.28379727269E+02 -0.40304164979E+02  0.93164984124E+02  0.10550658227E+03  0.47000000000E+01 0.  1.
         13    1    6    6    0    0  0.83208372328E+02 -0.35001805313E+02  0.37820986110E+03  0.38883345874E+03  0.00000000000E+00 0. -1.
        -14    1    6    6    0    0  0.62247388982E+02  0.15264212251E+02  0.11427396752E+03  0.13102012541E+03  0.00000000000E+00 0.  1.
</event>
<event>
12    1  0.2625820E-002  0.3771885E+03  0.7818608E-02  0.1051978E+00
         -1   -1    0    0    0  501 -0.00000000000E+00  0.00000000000E+00  0.29970184192E+03  0.29970184192E+03  0.00000000000E+00 0.  1.
          1   -1    0    0  502    0  0.00000000000E+00 -0.00000000000E+00 -0.48295270660E+03  0.48295270660E+03  0.00000000000E+00 0. -1.
          6    2    1    2  502    0 -0.23805072321E+03  0.23595427020E+03 -0.40360182593E+02  0.37874929051E+03  0.17169599960E+03 0.  0.
         24    2    3    3    0    0 -0.12063951069E+03  0.42547638190E+02 -0.20670351585E+02  0.15159010057E+03  0.78664490719E+02 0.  0.
         -6    2    1    2    0  501  0.23805072321E+03 -0.23595427020E+03 -0.14289068208E+03  0.40390525801E+03  0.17429614445E+03 0.  0.
        -24    2    5    5    0    0  0.19236698370E+03 -0.25208100446E+03 -0.10982824014E+03  0.34506402518E+03  0.80355770856E+02 0.  0.
          5    1    3    3  502    0 -0.11741121252E+03  0.19340663201E+03 -0.19689831008E+02  0.22715918995E+03  0.47000000000E+01 0. -1.
        -11    1    4    4    0    0 -0.36516785713E+02 -0.15438401325E+02  0.16396033041E+02  0.42902794475E+02  0.00000000000E+00 0.  1.
         12    1    4    4    0    0 -0.84122724979E+02  0.57986039516E+02 -0.37066384626E+02  0.10868730609E+03  0.00000000000E+00 0. -1.
         -5    1    5    5    0  501  0.45683739516E+02  0.16126734262E+02 -0.33062441939E+02  0.58841232831E+02  0.47000000000E+01 0.  1.
         11    1    6    6    0    0  0.99965504843E+02 -0.18591541520E+03 -0.91000572684E+02  0.22986680490E+03  0.00000000000E+00 0. -1.
        -12    1    6    6    0    0  0.92401478854E+02 -0.66165589268E+02 -0.18827667460E+02  0.11519722028E+03  0.00000000000E+00 0.  1.
</event>
<event>
12    1  0.2625820E-002  0.2177776E+03  0.7818608E-02  0.1135551E+00
         -1   -1    0    0    0  501 -0.00000000000E+00  0.00000000000E+00  0.40236929122E+02  0.40236929122E+02  0.00000000000E+00 0.  1.
          1   -1    0    0  502    0  0.00000000000E+00 -0.00000000000E+00 -0.14712136835E+04  0.14712136835E+04  0.00000000000E+00 0. -1.
          6    2    1    2  502    0 -0.11632840436E+03  0.65848687214E+02 -0.37785459766E+03  0.43599624055E+03  0.17161083163E+03 0.  0.
         24    2    3    3    0    0 -0.94931540946E+02  0.82487980852E+02 -0.17140656066E+03  0.22772340546E+03  0.81617865106E+02 0.  0.
         -6    2    1    2    0  501  0.11632840436E+03 -0.65848687214E+02 -0.10531221568E+04  0.10754543721E+04  0.17224250975E+03 0.  0.
        -24    2    5    5    0    0  0.98616437181E+02  0.91781672247E+01 -0.82230074200E+03  0.83205478669E+03  0.79543807654E+02 0.  0.
          5    1    3    3  502    0 -0.21396863416E+02 -0.16639293638E+02 -0.20644803700E+03  0.20827283509E+03  0.47000000000E+01 0. -1.
        -13    1    4    4    0    0 -0.97165372694E+02  0.43908549340E+02 -0.14845180605E+03  0.18277584380E+03  0.00000000000E+00 0.  1.
         14    1    4    4    0    0  0.22338317481E+01  0.38579431512E+02 -0.22954754610E+02  0.44947561661E+02  0.00000000000E+00 0. -1.
         -5    1    5    5    0  501  0.17711967181E+02 -0.75026854439E+02 -0.23082141477E+03  0.24339958542E+03  0.47000000000E+01 0.  1.
         11    1    6    6    0    0  0.53810987539E+02 -0.33092261099E+02 -0.49427434942E+03  0.49829494541E+03  0.00000000000E+00 0. -1.
        -12    1    6    6    0    0  0.44805449642E+02  0.42270428324E+02 -0.32802639258E+03  0.33375984129E+03  0.00000000000E+00 0.  1.
</event>
<event>
12    1  0.2625820E-002  0.1957260E+03  0.7818608E-02  0.1153396E+00
          3   -1    0    0  502    0  0.00000000000E+00  0.00000000000E+00  0.43975241656E+02  0.43975241656E+02  0.00000000000E+00 0. -1.
         -3   -1    0    0    0  501 -0.00000000000E+00 -0.00000000000E+00 -0.14270881958E+04  0.14270881958E+04  0.00000000000E+00 0.  1.
          6    2    1    2  502    0 -0.61193277158E+02 -0.71864987573E+02 -0.11498698505E+04  0.11663490087E+04  0.17105596578E+03 0.  0.
         24    2    3    3    0    0  0.94684110334E+01 -0.90264794734E+02 -0.77919913398E+03  0.78852564103E+03  0.79900013713E+02 0.  0.
         -6    2    1    2    0  501  0.61193277158E+02  0.71864987573E+02 -0.23324310368E+03  0.30471442878E+03  0.17187013726E+03 0.  0.
        -24    2    5    5    0    0 -0.23279956127E+01  0.82849200834E+02 -0.10061573097E+03  0.15717556940E+03  0.87813578987E+02 0.  0.
          5    1    3    3  502    0 -0.70661688191E+02  0.18399807161E+02 -0.37067071648E+03  0.37782336764E+03  0.47000000000E+01 0. -1.
        -13    1    4    4    0    0  0.12403742500E+02 -0.95327804237E+02 -0.77584969222E+03  0.78178257080E+03  0.00000000000E+00 0.  1.
         14    1    4    4    0    0 -0.29353314664E+01  0.50630095038E+01 -0.33494417637E+01  0.67430702340E+01  0.00000000000E+00 0. -1.
         -5    1    5    5    0  501  0.63521272770E+02 -0.10984213261E+02 -0.13262737271E+03  0.14753885938E+03  0.47000000000E+01 0.  1.
         13    1    6    6    0    0 -0.17779351379E+02  0.33244516336E+02  0.63765156447E+01  0.38235626759E+02  0.00000000000E+00 0. -1.
        -14    1    6    6    0    0  0.15451355766E+02  0.49604684498E+02 -0.10699224662E+03  0.11893994264E+03  0.00000000000E+00 0.  1.
</event>
<event>
12    1  0.2625820E-002  0.3273551E+03  0.7818608E-02  0.1072313E+00
         -1   -1    0    0    0  501 -0.00000000000E+00  0.00000000000E+00  0.22075357922E+03  0.22075357922E+03  0.00000000000E+00 0. -1.
          1   -1    0    0  502    0  0.00000000000E+00 -0.00000000000E+00 -0.49482116965E+03  0.49482116965E+03  0.00000000000E+00 0.  1.
          6    2    1    2  502    0  0.88419324550E+01 -0.27894751425E+03 -0.87752900160E+02  0.33890743230E+03  0.17107828824E+03 0.  0.
         24    2    3    3    0    0  0.21334222906E+02 -0.17639402695E+03  0.12647419356E+02  0.19477003522E+03  0.78774409501E+02 0.  0.
         -6    2    1    2    0  501 -0.88419324550E+01  0.27894751425E+03 -0.18631469027E+03  0.37666731657E+03  0.17109999442E+03 0.  0.
        -24    2    5    5    0    0 -0.39825343576E+02  0.79521941102E+02 -0.35806874162E+02  0.12486337757E+03  0.79993335431E+02 0.  0.
          5    1    3    3  502    0 -0.12492290451E+02 -0.10255348729E+03 -0.10040031952E+03  0.14413739708E+03  0.47000000000E+01 0. -1.
        -13    1    4    4    0    0  0.50893602380E+02 -0.10205713334E+03  0.12908612585E+02  0.11477129217E+03  0.00000000000E+00 0.  1.
         14    1    4    4    0    0 -0.29559379475E+02 -0.74336893616E+02 -0.26119322962E+00  0.79998743048E+02  0.00000000000E+00 0. -1.
         -5    1    5    5    0  501  0.30983411121E+02  0.19942557314E+03 -0.15050781610E+03  0.25180393900E+03  0.47000000000E+01 0.  1.
         11    1    6    6    0    0 -0.32314901561E+02 -0.66927660748E+01 -0.78898304132E+01  0.33930744239E+02  0.00000000000E+00 0. -1.
        -12    1    6    6    0    0 -0.75104420150E+01  0.86214707177E+02 -0.27917043749E+02  0.90932633331E+02  0.00000000000E+00 0.  1.
</event>
<event>
12    1  0.2625820E-002  0.2208015E+03  0.7818608E-02  0.1133287E+00
         -2   -1    0    0    0  501 -0.00000000000E+00  0.00000000000E+00  0.20216681773E+02  0.20216681773E+02  0.00000000000E+00 0. -1.
          2   -1    0    0  502    0  0.00000000000E+00 -0.00000000000E+00 -0.24628839787E+04  0.24628839787E+04  0.00000000000E+00 0.  1.
          6    2    1    2  502    0 -0.47411807145E+02 -0.13095858715E+03 -0.10456797790E+04  0.10688740497E+04  0.17218450277E+03 0.  0.
         24    2    3    3    0    0 -0.66547280806E+02 -0.64333015015E+02 -0.37465939851E+03  0.39426633095E+03  0.80678357867E+02 0.  0.
         -6    2    1    2    0  501  0.47411807145E+02  0.13095858715E+03 -0.13969875179E+04  0.14142266107E+04  0.17048387095E+03 0.  0.
        -24    2    5    5    0    0 -0.37286900484E+02  0.63620148873E+02 -0.55322781953E+03  0.56354402893E+03  0.77993691730E+02 0.  0.
          5    1    3    3  502    0  0.19135473661E+02 -0.66625572136E+02 -0.67102038047E+03  0.67460771877E+03  0.47000000000E+01 0. -1.
        -11    1    4    4    0    0  0.52180897832E+01  0.35128761205E+01  0.51481883996E+00  0.63114022262E+01  0.00000000000E+00 0.  1.
         12    1    4    4    0    0 -0.71765370589E+02 -0.67845891135E+02 -0.37517421735E+03  0.38795492873E+03  0.00000000000E+00 0. -1.
         -5    1    5    5    0  501  0.84698707629E+02  0.67338438278E+02 -0.84375969841E+03  0.85068258181E+03  0.47000000000E+01 0.  1.
         13    1    6    6    0    0 -0.75245975913E+01  0.14371502026E+02 -0.14519047943E+02  0.21770677356E+02  0.00000000000E+00 0. -1.
        -14    1    6    6    0    0 -0.29762302893E+02  0.49248646847E+02 -0.53870877158E+03  0.54177335157E+03  0.00000000000E+00 0.  1.
</event>
<event>
12    1  0.2625820E-002  0.2139524E+03  0.7818608E-02  0.1138474E+00
          1   -1    0    0  502    0  0.00000000000E+00  0.00000000000E+00  0.15895836213E+04  0.15895836213E+04  0.00000000000E+00 0. -1.
         -1   -1    0    0    0  501 -0.00000000000E+00 -0.00000000000E+00 -0.29856404539E+02  0.29856404539E+02  0.00000000000E+00 0.  1.
          6    2    1    2  502    0 -0.34829614968E+02 -0.12207322025E+03  0.62546448344E+03  0.66087087821E+03  0.17155035542E+03 0.  0.
         24    2    3    3    0    0 -0.62348225909E+02 -0.61271598528E+02  0.21318535450E+03  0.24319842125E+03  0.77820091637E+02 0.  0.
         -6    2    1    2    0  501  0.34829614968E+02  0.12207322025E+03  0.93426273331E+03  0.95856914761E+03  0.17289587250E+03 0.  0.
        -24    2    5    5    0    0  0.57311589710E+02  0.13325180044E+03  0.90356009536E+03  0.91862992103E+03  0.80121315783E+02 0.  0.
          5    1    3    3  502    0  0.27518610941E+02 -0.60801621719E+02  0.41227912894E+03  0.41767245697E+03  0.47000000000E+01 0. -1.
        -13    1    4    4    0    0 -0.73505349633E+02 -0.32405940406E+02  0.11520547054E+03  0.14044743444E+03  0.00000000000E+00 0.  1.
         14    1    4    4    0    0  0.11157123724E+02 -0.28865658122E+02  0.97979883960E+02  0.10275098681E+03  0.00000000000E+00 0. -1.
         -5    1    5    5    0  501 -0.22481974742E+02 -0.11178580189E+02  0.30702637946E+02  0.39939226584E+02  0.47000000000E+01 0.  1.
         13    1    6    6    0    0 -0.16102459555E+01  0.78151325621E+02  0.57612139227E+03  0.58140010425E+03  0.00000000000E+00 0. -1.
        -14    1    6    6    0    0  0.58921835665E+02  0.55100474814E+02  0.32743870310E+03  0.33722981678E+03  0.00000000000E+00 0.  1.
</event>
<event>
12    1  0.2625820E-002  0.2130786E+03  0.7818608E-02  0.1139151E+00
          2   -1    0    0  502    0  0.00000000000E+00  0.00000000000E+00  0.75948280015E+03  0.75948280015E+03  0.00000000000E+00 0. -1.
         -2   -1    0    0    0  501 -0.00000000000E+00 -0.00000000000E+00 -0.59830632544E+02  0.59830632544E+02  0.00000000000E+00 0.  1.
          6    2    1    2  502    0 -0.11319391738E+03 -0.67213122447E+02  0.36536573006E+03  0.42499598933E+03  0.17262389025E+03 0.  0.
         24    2    3    3    0    0 -0.13036337064E+03 -0.87746393910E+02  0.35577607060E+03  0.39617833969E+03  0.75409723377E+02 0.  0.
         -6    2    1    2    0  501  0.11319391738E+03  0.67213122447E+02  0.33428643755E+03  0.39431744337E+03  0.16250648310E+03 0.  0.
        -24    2    5    5    0    0  0.67776986076E+02  0.79693210437E+02  0.31836515745E+03  0.34437720502E+03  0.79338251983E+02 0.  0.
          5    1    3    3  502    0  0.17169453257E+02  0.20533271463E+02  0.95896594548E+01  0.28817649637E+02  0.47000000000E+01 0. -1.
        -11    1    4    4    0    0 -0.22947050652E+02 -0.52067358007E+02  0.80856533961E+02  0.98870399957E+02  0.00000000000E+00 0.  1.
         12    1    4    4    0    0 -0.10741631999E+03 -0.35679035903E+02  0.27491953664E+03  0.29730793974E+03  0.00000000000E+00 0. -1.
         -5    1    5    5    0  501  0.45416931309E+02 -0.12480087990E+02  0.15921280096E+02  0.49940238342E+02  0.47000000000E+01 0.  1.
         11    1    6    6    0    0  0.60641256074E+02  0.76579922281E+02  0.17197989104E+03  0.19778505848E+03  0.00000000000E+00 0. -1.
        -12    1    6    6    0    0  0.71357300020E+01  0.31132881561E+01  0.14638526642E+03  0.14659214655E+03  0.00000000000E+00 0.  1.
</event>
<event>
12    1  0.2625820E-002  0.1736083E+03  0.7818608E-02  0.1174136E+00
         -2   -1    0    0    0  501 -0.00000000000E+00  0.00000000000E+00  0.65475778652E+02  0.65475778652E+02  0.00000000000E+00 0.  1.
          2   -1    0    0  502    0  0.00000000000E+00 -0.00000000000E+00 -0.46895191754E+03  0.46895191754E+03  0.00000000000E+00 0. -1.
          6    2    1    2  502    0 -0.23724560922E+02 -0.98926215011E+00 -0.16562344910E+03  0.24002661823E+03  0.17209827754E+03 0.  0.
         24    2    3    3    0    0 -0.78230339163E+01  0.53576612616E+02 -0.15396603958E+03  0.18181769754E+03  0.80127900991E+02 0.  0.
         -6    2    1    2    0  501  0.23724560922E+02  0.98926215011E+00 -0.23785268979E+03  0.29440107797E+03  0.17185534394E+03 0.  0.
        -24    2    5    5    0    0  0.64846610689E+02  0.15704509707E+02 -0.22558498606E+03  0.24879243797E+03  0.80977630951E+02 0.  0.
          5    1    3    3  502    0 -0.15901527006E+02 -0.54565874766E+02 -0.11657409522E+02  0.58208920681E+02  0.47000000000E+01 0. -1.
        -13    1    4    4    0    0 -0.20158441954E+02  0.23152256731E+01 -0.13329214989E+01  0.20334692810E+02  0.00000000000E+00 0.  1.
         14    1    4    4    0    0  0.12335408038E+02  0.51261386943E+02 -0.15263311808E+03  0.16148300473E+03  0.00000000000E+00 0. -1.
         -5    1    5    5    0  501 -0.41122049766E+02 -0.14715247557E+02 -0.12267703731E+02  0.45608639998E+02  0.47000000000E+01 0.  1.
         11    1    6    6    0    0  0.40297356892E+02  0.81465499885E+01 -0.28462795729E+02  0.50003739759E+02  0.00000000000E+00 0. -1.
        -12    1    6    6    0    0  0.24549253796E+02  0.75579597184E+01 -0.19712219033E+03  0.19878869821E+03  0.00000000000E+00 0.  1.
</event>
<event>
12    1  0.2625820E-002  0.2343817E+03  0.7818608E-02  0.1123593E+00
         -3   -1    0    0    0  501 -0.00000000000E+00  0.00000000000E+00  0.64511840417E+02  0.64511840417E+02  0.00000000000E+00 0.  1.
          3   -1    0    0  502    0  0.00000000000E+00 -0.00000000000E+00 -0.15349786071E+04  0.15349786071E+04  0.00000000000E+00 0. -1.
          6    2    1    2  502    0  0.89951240897E+02 -0.13161678873E+03 -0.12683409288E+04  0.12897598404E+04  0.17139874414E+03 0.  0.
         24    2    3    3    0    0  0.62391957616E+02 -0.85844027175E+02 -0.11717471775E+04  0.11792740830E+04  0.80211978989E+02 0.  0.
         -6    2    1    2    0  501 -0.89951240897E+02  0.13161678873E+03 -0.20212583789E+03  0.30973060710E+03  0.17223237157E+03 0.  0.
        -24    2    5    5    0    0  0.16753038213E+02  0.61859012151E+02 -0.12880064224E+03  0.16258909395E+03  0.75752269649E+02 0.  0.
          5    1    3    3  502    0  0.27559283281E+02 -0.45772761556E+02 -0.96593751319E+02  0.11048575740E+03  0.47000000000E+01 0. -1.
        -13    1    4    4    0    0 -0.40950249332E+01  0.13145482591E+02 -0.12622946793E+03  0.12697815369E+03  0.00000000000E+00 0.  1.
         14    1    4    4    0    0  0.66486982549E+02 -0.98989509766E+02 -0.10455177096E+04  0.10522959293E+04  0.00000000000E+00 0. -1.
         -5    1    5    5    0  501 -0.10670427911E+03  0.69757776580E+02 -0.73325195647E+02  0.14714151314E+03  0.47000000000E+01 0.  1.
         13    1    6    6    0    0  0.78164290077E+01 -0.16678520997E+02 -0.37823474733E+02  0.42069999595E+02  0.00000000000E+00 0. -1.
        -14    1    6    6    0    0  0.89366092054E+01  0.78537533148E+02 -0.90977167511E+02  0.12051909436E+03  0.00000000000E+00 0.  1.
</event>
<event>
12    1  0.2625820E-002  0.3091699E+03  0.7818608E-02  0.1080744E+00
         -1   -1    0    0    0  501 -0.00000000000E+00  0.00000000000E+00  0.66706176445E+02  0.66706176445E+02  0.00000000000E+00 0.  1.
          1   -1    0    0  502    0  0.00000000000E+00 -0.00000000000E+00 -0.16856252005E+04  0.16856252005E+04  0.00000000000E+00 0. -1.
          6    2    1    2  502    0 -0.90652961502E+02 -0.24059921798E+03 -0.47255730801E+03  0.56528033644E+03  0.17356700806E+03 0.  0.
         24    2    3    3    0    0 -0.50428135650E+02 -0.97797395862E+02 -0.11346852241E+03  0.17672243475E+03  0.79046732161E+02 0.  0.
         -6    2    1    2    0  501  0.90652961502E+02  0.24059921798E+03 -0.11463617160E+04  0.11870510405E+04  0.16982062782E+03 0.  0.
        -24    2    5    5    0    0  0.81282106493E+02  0.67195515480E+02 -0.50747173178E+03  0.52496406816E+03  0.83292833793E+02 0.  0.
          5    1    3    3  502    0 -0.40224825852E+02 -0.14280182212E+03 -0.35908878560E+03  0.38855790168E+03  0.47000000000E+01 0. -1.
        -11    1    4    4    0    0 -0.46656367329E+02 -0.11162694099E+03 -0.10401720882E+03  0.15955240612E+03  0.00000000000E+00 0.  1.
         12    1    4    4    0    0 -0.37717683214E+01  0.13829545130E+02 -0.94513135843E+01  0.17170028633E+02  0.00000000000E+00 0. -1.
         -5    1    5    5    0  501  0.93708550096E+01  0.17340370250E+03 -0.63888998425E+03  0.66208697234E+03  0.47000000000E+01 0.  1.
         11    1    6    6    0    0  0.14603861698E+02  0.12410296572E+02 -0.29518915110E+03  0.29581062044E+03  0.00000000000E+00 0. -1.
        -12    1    6    6    0    0  0.66678244794E+02  0.54785218908E+02 -0.21228258068E+03  0.22915344771E+03  0.00000000000E+00 0.  1.
</event>
<event>
12    1  0.2625820E-002  0.2042737E+03  0.7818608E-02  0.1146183E+00
          2   -1    0    0  502    0  0.00000000000E+00  0.00000000000E+00  0.78848183545E+02  0.78848183545E+02  0.00000000000E+00 0. -1.
         -2   -1    0    0    0  501 -0.00000000000E+00 -0.00000000000E+00 -0.53865775145E+03  0.53865775145E+03  0.00000000000E+00 0.  1.
          6    2    1    2  502    0 -0.91792956240E+02 -0.63906317543E+02 -0.27159250218E+03  0.34028956517E+03  0.17182705459E+03 0.  0.
         24    2    3    3    0    0 -0.71056297692E+02  0.18787269165E+02 -0.10036943822E+03  0.14895826632E+03  0.81930348780E+02 0.  0.
         -6    2    1    2    0  501  0.91792956240E+02  0.63906317543E+02 -0.18821706572E+03  0.27721636982E+03  0.17003907677E+03 0.  0.
        -24    2    5    5    0    0  0.38094239412E+02  0.10405342499E+03 -0.12828207636E+03  0.18716285587E+03  0.79343286884E+02 0.  0.
          5    1    3    3  502    0 -0.20736658548E+02 -0.82693586707E+02 -0.17122306395E+03  0.19133129885E+03  0.47000000000E+01 0. -1.
        -11    1    4    4    0    0 -0.67736227720E+02 -0.15070591634E+02 -0.89487198377E+02  0.11323991324E+03  0.00000000000E+00 0.  1.
         12    1    4    4    0    0 -0.33200699725E+01  0.33857860798E+02 -0.10882239848E+02  0.35718353078E+02  0.00000000000E+00 0. -1.
         -5    1    5    5    0  501  0.53698716828E+02 -0.40147107445E+02 -0.59934989366E+02  0.90053513954E+02  0.47000000000E+01 0.  1.
         13    1    6    6    0    0 -0.16987484885E+02  0.39255321561E+02 -0.14614245194E+02  0.45201007469E+02  0.00000000000E+00 0. -1.
        -14    1    6    6    0    0  0.55081724297E+02  0.64798103426E+02 -0.11366783116E+03  0.14196184840E+03  0.00000000000E+00 0.  1.
</event>
<event>
12    1  0.2625820E-002  0.1843988E+03  0.7818608E-02  0.1163612E+00
          1   -1    0    0  502    0  0.00000000000E+00  0.00000000000E+00  0.68900835630E+02  0.68900835630E+02  0.00000000000E+00 0.  1.
         -1   -1    0    0    0  501 -0.00000000000E+00 -0.00000000000E+00 -0.56241726189E+03  0.56241726189E+03  0.00000000000E+00 0. -1.
          6    2    1    2  502    0 -0.60598933061E+01 -0.66666347448E+02 -0.13642283221E+03  0.22948572015E+03  0.17196331706E+03 0.  0.
         24    2    3    3    0    0 -0.25920311737E+02 -0.10385899146E+03 -0.69370985521E+02  0.15013983725E+03  0.79190178865E+02 0.  0.
         -6    2    1    2    0  501  0.60598933061E+01  0.66666347448E+02 -0.35709359405E+03  0.40183237737E+03  0.17167498480E+03 0.  0.
        -24    2    5    5    0    0 -0.26470387790E+02  0.56705114521E+02 -0.35259059162E+03  0.36719406938E+03  0.81210885046E+02 0.  0.
          5    1    3    3  502    0  0.19860418431E+02  0.37192644011E+02 -0.67051846693E+02  0.79345882903E+02  0.47000000000E+01 0. -1.
        -11    1    4    4    0    0 -0.27045811473E+02 -0.22063899106E+02  0.98468027146E+01  0.36266390580E+02  0.00000000000E+00 0.  1.
         12    1    4    4    0    0  0.11254997359E+01 -0.81795092352E+02 -0.79217788236E+02  0.11387344667E+03  0.00000000000E+00 0. -1.
         -5    1    5    5    0  501  0.32530281096E+02  0.99612329270E+01 -0.45030024324E+01  0.34638307991E+02  0.47000000000E+01 0.  1.
         11    1    6    6    0    0 -0.26354181851E+02  0.24582876054E+02 -0.43728492940E+02  0.56666055014E+02  0.00000000000E+00 0. -1.
        -12    1    6    6    0    0 -0.11620593912E+00  0.32122238467E+02 -0.30886209868E+03  0.31052801437E+03  0.00000000000E+00 0.  1.
</event>
<event>
12    1  0.2625820E-002  0.2385118E+03  0.7818608E-02  0.1120788E+00
          4   -1    0    0  502    0  0.00000000000E+00  0.00000000000E+00  0.37051232050E+03  0.37051232050E+03  0.00000000000E+00 0. -1.
         -4   -1    0    0    0  501 -0.00000000000E+00 -0.00000000000E+00 -0.16049527615E+03  0.16049527615E+03  0.00000000000E+00 0.  1.
          6    2    1    2  502    0  0.16506559878E+03 -0.55302331266E+00  0.16056636408E+03  0.28808705954E+03  0.17310586028E+03 0.  0.
         24    2    3    3    0    0  0.16848463999E+03  0.23571297349E+02  0.17820766820E+03  0.25764074119E+03  0.75353158806E+02 0.  0.
         -6    2    1    2    0  501 -0.16506559878E+03  0.55302331266E+00  0.49450680272E+02  0.24292053711E+03  0.17122517290E+03 0.  0.
        -24    2    5    5    0    0 -0.18909835795E+03  0.19431647597E+02  0.50088911959E+02  0.21199363445E+03  0.79351269924E+02 0.  0.
          5    1    3    3  502    0 -0.34190412095E+01 -0.24124320662E+02 -0.17641304119E+02  0.30446318352E+02  0.47000000000E+01 0. -1.
        -13    1    4    4    0    0  0.68807709474E+02  0.28145867012E+02  0.32720709685E+02  0.81223983866E+02  0.00000000000E+00 0.  1.
         14    1    4    4    0    0  0.99676930515E+02 -0.45745696627E+01  0.14548695852E+03  0.17641675732E+03  0.00000000000E+00 0. -1.
         -5    1    5    5    0  501  0.24032759173E+02 -0.18878624284E+02 -0.63823168722E+00  0.30926902658E+02  0.47000000000E+01 0.  1.
         11    1    6    6    0    0 -0.79787203283E+02  0.47540122957E+02  0.17447682116E+02  0.94501231260E+02  0.00000000000E+00 0. -1.
        -12    1    6    6    0    0 -0.10931115467E+03 -0.28108475360E+02  0.32641229843E+02  0.11749240319E+03  0.00000000000E+00 0.  1.
</event>
<event>
12    1  0.2625820E-002  0.2252811E+03  0.7818608E-02  0.1130006E+00
         -2   -1    0    0    0  501 -0.00000000000E+00  0.00000000000E+00  0.44474579645E+02  0.44474579645E+02  0.00000000000E+00 0. -1.
          2   -1    0    0  502    0  0.00000000000E+00 -0.00000000000E+00 -0.12064959975E+04  0.12064959975E+04  0.00000000000E+00 0.  1.
          6    2    1    2  502    0 -0.79988067742E+02  0.12121435231E+03 -0.72722343329E+03  0.76139511052E+03  0.17256182141E+03 0.  0.
         24    2    3    3    0    0 -0.80260901160E+02  0.94393450291E+02 -0.30937051600E+03  0.34265582921E+03  0.79692944533E+02 0.  0.
         -6    2    1    2    0  501  0.79988067742E+02 -0.12121435231E+03 -0.43479798454E+03  0.48957546660E+03  0.17188321603E+03 0.  0.
        -24    2    5    5    0    0  0.85539880829E+02 -0.94208919274E+02 -0.19687326275E+03  0.25001257448E+03  0.86918433780E+02 0.  0.
          5    1    3    3  502    0  0.27283341779E+00  0.26820902017E+02 -0.41785291729E+03  0.41873928131E+03  0.47000000000E+01 0. -1.
        -13    1    4    4    0    0 -0.84091878367E+02  0.42790036022E+02 -0.22012335281E+03  0.23949263379E+03  0.00000000000E+00 0.  1.
         14    1    4    4    0    0  0.38309772073E+01  0.51603414269E+02 -0.89247163197E+02  0.10316319542E+03  0.00000000000E+00 0. -1.
         -5    1    5    5    0  501 -0.55518130871E+01 -0.27005433034E+02 -0.23792472179E+03  0.23956289212E+03  0.47000000000E+01 0.  1.
         13    1    6    6    0    0  0.60373005509E+02 -0.48291220000E+02 -0.17849556045E+03  0.19451891123E+03  0.00000000000E+00 0. -1.
        -14    1    6    6    0    0  0.25166875320E+02 -0.45917699274E+02 -0.18377702299E+02  0.55493663258E+02  0.00000000000E+00 0.  1.
</event>
<event>
12    1  0.2625820E-002  0.1758208E+03  0.7818608E-02  0.1171910E+00
         -1   -1    0    0    0  501 -0.00000000000E+00  0.00000000000E+00  0.14771062231E+02  0.14771062231E+02  0.00000000000E+00 0. -1.
          1   -1    0    0  502    0  0.00000000000E+00 -0.00000000000E+00 -0.20984921275E+04  0.20984921275E+04  0.00000000000E+00 0.  1.
          6    2    1    2  502    0  0.14695525218E+02 -0.14313861515E+02 -0.10019353257E+04  0.10176411577E+04  0.17691320989E+03 0.  0.
         24    2    3    3    0    0  0.51720896690E+02 -0.50612611699E+02 -0.44569568534E+03  0.45897031997E+03  0.82294732947E+02 0.  0.
         -6    2    1    2    0  501 -0.14695525218E+02  0.14313861515E+02 -0.10817857396E+04  0.10956220320E+04  0.17235546315E+03 0.  0.
        -24    2    5    5    0    0 -0.76719055088E+02  0.19363303267E+02 -0.62799380231E+03  0.63755912431E+03  0.76450443610E+02 0.  0.
          5    1    3    3  502    0 -0.37025371472E+02  0.36298750184E+02 -0.55623964034E+03  0.55867083769E+03  0.47000000000E+01 0. -1.
        -11    1    4    4    0    0 -0.16353319831E+02  0.55213454642E+01 -0.13124959299E+03  0.13237965094E+03  0.00000000000E+00 0.  1.
         12    1    4    4    0    0  0.68074216521E+02 -0.56133957163E+02 -0.31444609235E+03  0.32659066903E+03  0.00000000000E+00 0. -1.
         -5    1    5    5    0  501  0.62023529870E+02 -0.50494417523E+01 -0.45379193725E+03  0.45806290772E+03  0.47000000000E+01 0.  1.
         11    1    6    6    0    0 -0.56557146105E+02 -0.24033225591E+02 -0.31638723501E+03  0.32229984360E+03  0.00000000000E+00 0. -1.
        -12    1    6    6    0    0 -0.20161908983E+02  0.43396528858E+02 -0.31160656730E+03  0.31525928071E+03  0.00000000000E+00 0.  1.
</event>
<event>
12    1  0.2625820E-002  0.2451507E+03  0.7818608E-02  0.1116408E+00
         -2   -1    0    0    0  501 -0.00000000000E+00  0.00000000000E+00  0.74519303360E+03  0.74519303360E+03  0.00000000000E+00 0. -1.
          2   -1    0    0  502    0  0.00000000000E+00 -0.00000000000E+00 -0.97598046946E+02  0.97598046946E+02  0.00000000000E+00 0.  1.
          6    2    1    2  502    0  0.14752746520E+03 -0.93305211345E+02  0.14817659133E+03  0.28644306692E+03  0.17211366278E+03 0.  0.
         24    2    3    3    0    0  0.50370047339E+02 -0.65985313476E+02  0.11047678512E+02  0.11611288934E+03  0.80429774375E+02 0.  0.
         -6    2    1    2    0  501 -0.14752746520E+03  0.93305211345E+02  0.49941839532E+03  0.55634801362E+03  0.17214576157E+03 0.  0.
        -24    2    5    5    0    0 -0.14775015756E+03  0.19795468096E+02  0.38827604873E+03  0.42301218517E+03  0.77194877846E+02 0.  0.
          5    1    3    3  502    0  0.97157417860E+02 -0.27319897868E+02  0.13712891282E+03  0.17033017758E+03  0.47000000000E+01 0. -1.
        -11    1    4    4    0    0 -0.14556278159E+02  0.14655917806E+01 -0.12868957979E+02  0.19484436675E+02  0.00000000000E+00 0.  1.
         12    1    4    4    0    0  0.64926325498E+02 -0.67450905257E+02  0.23916636490E+02  0.96628452661E+02  0.00000000000E+00 0. -1.
         -5    1    5    5    0  501  0.22269236192E+00  0.73509743248E+02  0.11114234659E+03  0.13333582846E+03  0.47000000000E+01 0.  1.
         11    1    6    6    0    0  0.18593324514E+01 -0.13840264429E+02  0.43142694706E+02  0.45346467813E+02  0.00000000000E+00 0. -1.
        -12    1    6    6    0    0 -0.14960949001E+03  0.33635732526E+02  0.34513335403E+03  0.37766571735E+03  0.00000000000E+00 0.  1.
</event>
<event>
12    1  0.2625820E-002  0.2209902E+03  0.7818608E-02  0.1133147E+00
          1   -1    0    0  502    0  0.00000000000E+00  0.00000000000E+00  0.21058970916E+03  0.21058970916E+03  0.00000000000E+00 0.  1.
         -1   -1    0    0    0  501 -0.00000000000E+00 -0.00000000000E+00 -0.28897728987E+03  0.28897728987E+03  0.00000000000E+00 0. -1.
          6    2    1    2  502    0  0.11084067301E+03 -0.81269190204E+02 -0.15029179634E+03  0.26780203239E+03  0.17389643020E+03 0.  0.
         24    2    3    3    0    0  0.38961200036E+02 -0.87830778522E+02 -0.29801329625E+02  0.12726820854E+03  0.77954197415E+02 0.  0.
         -6    2    1    2    0  501 -0.11084067301E+03  0.81269190204E+02  0.71904215629E+02  0.23176496663E+03  0.17220466737E+03 0.  0.
        -24    2    5    5    0    0  0.76716810410E+01  0.46592439225E+02  0.11795372727E+02  0.94350199904E+02  0.80827713820E+02 0.  0.
          5    1    3    3  502    0  0.71879472971E+02  0.65615883182E+01 -0.12049046671E+03  0.14053382384E+03  0.47000000000E+01 0. -1.
        -11    1    4    4    0    0 -0.79771798710E+01  0.68902890937E+01  0.97884475018E+01  0.14384894403E+02  0.00000000000E+00 0.  1.
         12    1    4    4    0    0  0.46938379907E+02 -0.94721067616E+02 -0.39589777127E+02  0.11288331414E+03  0.00000000000E+00 0. -1.
         -5    1    5    5    0  501 -0.11851235405E+03  0.34676750979E+02  0.60108842902E+02  0.13741476673E+03  0.47000000000E+01 0.  1.
         11    1    6    6    0    0 -0.74522432630E+01  0.41031053258E+01 -0.31018632335E+02  0.32164063097E+02  0.00000000000E+00 0. -1.
        -12    1    6    6    0    0  0.15123924304E+02  0.42489333899E+02  0.42814005062E+02  0.62186136807E+02  0.00000000000E+00 0.  1.
</event>
<event>
12    1  0.2625820E-002  0.2339945E+03  0.7818608E-02  0.1123859E+00
          2   -1    0    0  502    0  0.00000000000E+00  0.00000000000E+00  0.82710721938E+03  0.82710721938E+03  0.00000000000E+00 0. -1.
         -2   -1    0    0    0  501 -0.00000000000E+00 -0.00000000000E+00 -0.66887639755E+02  0.66887639755E+02  0.00000000000E+00 0.  1.
          6    2    1    2  502    0  0.12115553235E+03 -0.10310232605E+03  0.33548223886E+03  0.40928541187E+03  0.17221342317E+03 0.  0.
         24    2    3    3    0    0  0.12087916688E+03 -0.13152818361E+03  0.24148407548E+03  0.31097035465E+03  0.80477119085E+02 0.  0.
         -6    2    1    2    0  501 -0.12115553235E+03  0.10310232605E+03  0.42473734077E+03  0.48470944727E+03  0.17097569118E+03 0.  0.
        -24    2    5    5    0    0  0.83220805440E+01  0.36972193883E+02  0.18177177146E+03  0.20152751902E+03  0.78333670122E+02 0.  0.
          5    1    3    3  502    0  0.27636547843E+00  0.28425857555E+02  0.93998163384E+02  0.98315057215E+02  0.47000000000E+01 0. -1.
        -13    1    4    4    0    0  0.39082019860E+02 -0.43992643067E+02  0.25813788930E+02  0.64258140490E+02  0.00000000000E+00 0.  1.
         14    1    4    4    0    0  0.81797147015E+02 -0.87535540541E+02  0.21567028655E+03  0.24671221416E+03  0.00000000000E+00 0. -1.
         -5    1    5    5    0  501 -0.12947761290E+03  0.66130132171E+02  0.24296556931E+03  0.28318192826E+03  0.47000000000E+01 0.  1.
         11    1    6    6    0    0 -0.59316759178E+01  0.16797417007E+02  0.17501332948E+03  0.17591760427E+03  0.00000000000E+00 0. -1.
        -12    1    6    6    0    0  0.14253756462E+02  0.20174776875E+02  0.67584419862E+01  0.25609914747E+02  0.00000000000E+00 0.  1.
</event>
<event>
12    1  0.2625820E-002  0.2480346E+03  0.7818608E-02  0.1114553E+00
         -2   -1    0    0    0  501 -0.00000000000E+00  0.00000000000E+00  0.15378255281E+03  0.15378255281E+03  0.00000000000E+00 0.  1.
          2   -1    0    0  502    0  0.00000000000E+00 -0.00000000000E+00 -0.60276325098E+03  0.60276325098E+03  0.00000000000E+00 0. -1.
          6    2    1    2  502    0  0.15381509692E+03 -0.91274871481E+02 -0.57784278594E+01  0.24918398190E+03  0.17340438403E+03 0.  0.
         24    2    3    3    0    0  0.12068409047E+03 -0.68101254136E+02 -0.60969875942E+02  0.18060653611E+03  0.98483321463E+02 0.  0.
         -6    2    1    2    0  501 -0.15381509692E+03  0.91274871481E+02 -0.44320227031E+03  0.50736182189E+03  0.17028675728E+03 0.  0.
        -24    2    5    5    0    0 -0.33913587297E+02  0.31041966951E+02 -0.87506019627E+02  0.12716938700E+03  0.80006339778E+02 0.  0.
          5    1    3    3  502    0  0.33131006445E+02 -0.23173617345E+02  0.55191448083E+02  0.68577445785E+02  0.47000000000E+01 0. -1.
        -11    1    4    4    0    0  0.12595137384E+03 -0.79392608758E+02 -0.36725968646E+02  0.15334839963E+03  0.00000000000E+00 0.  1.
         12    1    4    4    0    0 -0.52672833675E+01  0.11291354622E+02 -0.24243907297E+02  0.27258136479E+02  0.00000000000E+00 0. -1.
         -5    1    5    5    0  501 -0.11990150962E+03  0.60232904530E+02 -0.35569625068E+03  0.38019243489E+03  0.47000000000E+01 0.  1.
         11    1    6    6    0    0 -0.26565649380E+01 -0.23781322717E+02 -0.45351547374E+02  0.51277397522E+02  0.00000000000E+00 0. -1.
        -12    1    6    6    0    0 -0.31257022359E+02  0.54823289668E+02 -0.42154472254E+02  0.75891989483E+02  0.00000000000E+00 0.  1.
</event>
<event>
12    1  0.2625820E-002  0.2254488E+03  0.7818608E-02  0.1129885E+00
         -2   -1    0    0    0  501 -0.00000000000E+00  0.00000000000E+00  0.18004060207E+02  0.18004060207E+02  0.00000000000E+00 0.  1.
          2   -1    0    0  502    0  0.00000000000E+00 -0.00000000000E+00 -0.31844084806E+04  0.31844084806E+04  0.00000000000E+00 0. -1.
          6    2    1    2  502    0  0.37487110282E+02  0.13926385443E+03 -0.21270639585E+04  0.21390552622E+04  0.17423153268E+03 0.  0.
         24    2    3    3    0    0 -0.15480727750E+02  0.13458313071E+03 -0.11598112954E+04  0.11703306857E+04  0.78481850860E+02 0.  0.
         -6    2    1    2    0  501 -0.37487110282E+02 -0.13926385443E+03 -0.10393404619E+04  0.10633572785E+04  0.17233804415E+03 0.  0.
        -24    2    5    5    0    0 -0.21587792971E+02 -0.27598347745E+02 -0.22650901576E+03  0.24272397217E+03  0.79880478462E+02 0.  0.
          5    1    3    3  502    0  0.52967838032E+02  0.46807237234E+01 -0.96725266302E+03  0.96872457652E+03  0.47000000000E+01 0. -1.
        -13    1    4    4    0    0  0.19370454841E+02  0.67739476707E+02 -0.35016188044E+03  0.35717949793E+03  0.00000000000E+00 0.  1.
         14    1    4    4    0    0 -0.34851182591E+02  0.66843654004E+02 -0.80964941499E+03  0.81315118779E+03  0.00000000000E+00 0. -1.
         -5    1    5    5    0  501 -0.15899317311E+02 -0.11166550669E+03 -0.81283144615E+03  0.82063330637E+03  0.47000000000E+01 0.  1.
         11    1    6    6    0    0  0.99344062690E+01  0.12794774383E+01 -0.17711926981E+03  0.17740226952E+03  0.00000000000E+00 0. -1.
        -12    1    6    6    0    0 -0.31522199240E+02 -0.28877825183E+02 -0.49389745950E+02  0.65321702651E+02  0.00000000000E+00 0.  1.
</event>
<event>
12    1  0.2625820E-002  0.1792839E+03  0.7818608E-02  0.1168498E+00
          2   -1    0    0  502    0  0.00000000000E+00  0.00000000000E+00  0.11062277164E+04  0.11062277164E+04  0.00000000000E+00 0. -1.
         -2   -1    0    0    0  501 -0.00000000000E+00 -0.00000000000E+00 -0.30866456457E+02  0.30866456457E+02  0.00000000000E+00 0.  1.
          6    2    1    2  502    0 -0.48123557587E+02 -0.14672294454E+02  0.67491191424E+03  0.69827711934E+03  0.17191186811E+03 0.  0.
         24    2    3    3    0    0 -0.67736862185E+02  0.37464396470E+02  0.55950539589E+03  0.57004424238E+03  0.76891395712E+02 0.  0.
         -6    2    1    2    0  501  0.48123557587E+02  0.14672294454E+02  0.40044934569E+03  0.43881705350E+03  0.17224858478E+03 0.  0.
        -24    2    5    5    0    0 -0.30829184633E+02 -0.28197824594E+02  0.21866943387E+03  0.23599346278E+03  0.78300940153E+02 0.  0.
          5    1    3    3  502    0  0.19613304599E+02 -0.52136690923E+02  0.11540651835E+03  0.12823287697E+03  0.47000000000E+01 0. -1.
        -13    1    4    4    0    0 -0.47327727875E+02  0.19735175455E+02  0.13087185201E+03  0.14055900051E+03  0.00000000000E+00 0.  1.
         14    1    4    4    0    0 -0.20409134311E+02  0.17729221015E+02  0.42863354388E+03  0.42948524187E+03  0.00000000000E+00 0. -1.
         -5    1    5    5    0  501  0.78952742220E+02  0.42870119048E+02  0.18177991182E+03  0.20282359072E+03  0.47000000000E+01 0.  1.
         13    1    6    6    0    0  0.25033038290E+02 -0.33491651128E+01  0.41607195649E+02  0.48672668334E+02  0.00000000000E+00 0. -1.
        -14    1    6    6    0    0 -0.55862222923E+02 -0.24848659481E+02  0.17706223822E+03  0.18732079445E+03  0.00000000000E+00 0.  1.
</event>
<event>
12    1  0.2625820E-002  0.2139729E+03  0.7818608E-02  0.1138458E+00
         -2   -1    0    0    0  501 -0.00000000000E+00  0.00000000000E+00  0.75947218031E+02  0.75947218031E+02  0.00000000000E+00 0.  1.
          2   -1    0    0  502    0  0.00000000000E+00 -0.00000000000E+00 -0.62609497359E+03  0.62609497359E+03  0.00000000000E+00 0. -1.
          6    2    1    2  502    0  0.12368450492E+03 -0.15271766661E+02 -0.20882758404E+03  0.29978397869E+03  0.17530085684E+03 0.  0.
         24    2    3    3    0    0  0.43553012128E+02  0.19829964328E+02 -0.18791814470E+03  0.20971465923E+03  0.79855599902E+02 0.  0.
         -6    2    1    2    0  501 -0.12368450492E+03  0.15271766661E+02 -0.34132017152E+03  0.40225821293E+03  0.17257209152E+03 0.  0.
        -24    2    5    5    0    0  0.64297134189E+00 -0.13301781252E+02 -0.95835321058E+02  0.12556583718E+03  0.80031368272E+02 0.  0.
          5    1    3    3  502    0  0.80131492787E+02 -0.35101730989E+02 -0.20909439334E+02  0.90069319460E+02  0.47000000000E+01 0. -1.
        -13    1    4    4    0    0  0.27135323938E+02  0.83573533614E+01 -0.91544940647E+01  0.29832464229E+02  0.00000000000E+00 0.  1.
         14    1    4    4    0    0  0.16417688190E+02  0.11472610966E+02 -0.17876365064E+03  0.17988219500E+03  0.00000000000E+00 0. -1.
         -5    1    5    5    0  501 -0.12432747626E+03  0.28573547913E+02 -0.24548485046E+03  0.27669237575E+03  0.47000000000E+01 0.  1.
         13    1    6    6    0    0  0.26635217261E+02  0.19637934336E+02 -0.66776122469E+02  0.74526061184E+02  0.00000000000E+00 0. -1.
        -14    1    6    6    0    0 -0.25992245920E+02 -0.32939715588E+02 -0.29059198589E+02  0.51039775995E+02  0.00000000000E+00 0.  1.
</event>
<event>
12    1  0.2625820E-002  0.3471841E+03  0.7818608E-02  0.1063777E+00
          2   -1    0    0  502    0  0.00000000000E+00  0.00000000000E+00  0.74677514091E+03  0.74677514091E+03  0.00000000000E+00 0. -1.
         -2   -1    0    0    0  501 -0.00000000000E+00 -0.00000000000E+00 -0.16369985981E+03  0.16369985981E+03  0.00000000000E+00 0.  1.
          6    2    1    2  502    0  0.30281491471E+03  0.18964225762E+02  0.34417056697E+03  0.48785809252E+03  0.16581804739E+03 0.  0.
         24    2    3    3    0    0  0.11335771079E+03 -0.36071850312E+02  0.18504183317E+03  0.23434863371E+03  0.80793892823E+02 0.  0.
         -6    2    1    2    0  501 -0.30281491471E+03 -0.18964225762E+02  0.23890471413E+03  0.42261690820E+03  0.17167723855E+03 0.  0.
        -24    2    5    5    0    0 -0.10196063558E+03  0.46584269783E+02  0.92962375331E+02  0.16578952850E+03  0.79234456729E+02 0.  0.
          5    1    3    3  502    0  0.18945720392E+03  0.55036076074E+02  0.15912873380E+03  0.25350945881E+03  0.47000000000E+01 0. -1.
        -13    1    4    4    0    0  0.31188035117E+02 -0.25796652666E+02  0.11522879134E+02  0.42082509036E+02  0.00000000000E+00 0.  1.
         14    1    4    4    0    0  0.82169675672E+02 -0.10275197646E+02  0.17351895403E+03  0.19226612467E+03  0.00000000000E+00 0. -1.
         -5    1    5    5    0  501 -0.20085427912E+03 -0.65548495544E+02  0.14594233880E+03  0.25682737970E+03  0.47000000000E+01 0.  1.
         13    1    6    6    0    0 -0.96804514576E+02  0.63658805470E+02  0.91970153210E+02  0.14792588224E+03  0.00000000000E+00 0. -1.
        -14    1    6    6    0    0 -0.51561210053E+01 -0.17074535687E+02  0.99222212062E+00  0.17863646254E+02  0.00000000000E+00 0.  1.
</event>
<event>
12    1  0.2625820E-002  0.1753402E+03  0.7818608E-02  0.1172391E+00
          2   -1    0    0  502    0  0.00000000000E+00  0.00000000000E+00  0.36381872235E+03  0.36381872235E+03  0.00000000000E+00 0. -1.
         -2   -1    0    0    0  501 -0.00000000000E+00 -0.00000000000E+00 -0.93166271294E+02  0.93166271294E+02  0.00000000000E+00 0.  1.
          6    2    1    2  502    0 -0.27043128827E+02 -0.18348882784E+02  0.20477113458E+03  0.26937452961E+03  0.17194012717E+03 0.  0.
         24    2    3    3    0    0 -0.79208989585E+02 -0.28236063348E+02  0.16868547792E+03  0.20500607472E+03  0.80631017026E+02 0.  0.
         -6    2    1    2    0  501  0.27043128827E+02  0.18348882784E+02  0.65881316478E+02  0.18761046403E+03  0.17259584595E+03 0.  0.
        -24    2    5    5    0    0 -0.43410384451E+02 -0.14017215403E+02  0.57652714970E+02  0.10950117055E+03  0.81152492282E+02 0.  0.
          5    1    3    3  502    0  0.52165860758E+02  0.98871805647E+01  0.36085656651E+02  0.64368454883E+02  0.47000000000E+01 0. -1.
        -11    1    4    4    0    0 -0.34572778352E+02 -0.33524207077E+02  0.24609019505E+02  0.54080988380E+02  0.00000000000E+00 0.  1.
         12    1    4    4    0    0 -0.44636211232E+02  0.52881437285E+01  0.14407645842E+03  0.15092508634E+03  0.00000000000E+00 0. -1.
         -5    1    5    5    0  501  0.70453513278E+02  0.32366098186E+02  0.82286015079E+01  0.78109293479E+02  0.47000000000E+01 0.  1.
         13    1    6    6    0    0  0.79795990945E+01 -0.36087218677E+02  0.26541339828E+02  0.45501693083E+02  0.00000000000E+00 0. -1.
        -14    1    6    6    0    0 -0.51389983546E+02  0.22070003275E+02  0.31111375142E+02  0.63999477471E+02  0.00000000000E+00 0.  1.
</event>
<event>
12    1  0.2625820E-002  0.3499386E+03  0.7818608E-02  0.1062640E+00
         -2   -1    0    0    0  501 -0.00000000000E+00  0.00000000000E+00  0.14199594460E+03  0.14199594460E+03  0.00000000000E+00 0. -1.
          2   -1    0    0  502    0  0.00000000000E+00 -0.00000000000E+00 -0.96188490953E+03  0.96188490953E+03  0.00000000000E+00 0.  1.
          6    2    1    2  502    0  0.28217436140E+03  0.11257019405E+03 -0.58655878604E+03  0.68258236396E+03  0.17196818104E+03 0.  0.
         24    2    3    3    0    0  0.18851778868E+03  0.40112505615E+01 -0.31792515980E+03  0.37804548119E+03  0.79290174859E+02 0.  0.
         -6    2    1    2    0  501 -0.28217436140E+03 -0.11257019405E+03 -0.23333017890E+03  0.42129849017E+03  0.17537111112E+03 0.  0.
        -24    2    5    5    0    0 -0.59075543967E+02 -0.48290245304E+02 -0.36089678271E+02  0.11661685430E+03  0.80468367337E+02 0.  0.
          5    1    3    3  502    0  0.93656572717E+02  0.10855894349E+03 -0.26863362623E+03  0.30453688277E+03  0.47000000000E+01 0. -1.
        -11    1    4    4    0    0  0.10652968946E+03 -0.13008036024E+02 -0.24315383901E+03  0.26578482493E+03  0.00000000000E+00 0.  1.
         12    1    4    4    0    0  0.81988099222E+02  0.17019286585E+02 -0.74771320788E+02  0.11226065625E+03  0.00000000000E+00 0. -1.
         -5    1    5    5    0  501 -0.22309881743E+03 -0.64279948746E+02 -0.19724050063E+03  0.30468163588E+03  0.47000000000E+01 0.  1.
         11    1    6    6    0    0 -0.36599212507E+02  0.55086220315E+01  0.14177995449E+02  0.39634111921E+02  0.00000000000E+00 0. -1.
        -12    1    6    6    0    0 -0.22476331460E+02 -0.53798867336E+02 -0.50267673720E+02  0.76982742376E+02  0.00000000000E+00 0.  1.
</event>
<event>
12    1  0.2625820E-002  0.3320139E+03  0.7818608E-02  0.1070249E+00
         -1   -1    0    0    0  501 -0.00000000000E+00  0.00000000000E+00  0.94703951735E+03  0.94703951735E+03  0.00000000000E+00 0. -1.
          1   -1    0    0  502    0  0.00000000000E+00 -0.00000000000E+00 -0.11864058364E+03  0.11864058364E+03  0.00000000000E+00 0.  1.
          6    2    1    2  502    0  0.21831995222E+03 -0.18281066593E+03  0.48803510319E+03  0.59052937943E+03  0.17164890012E+03 0.  0.
         24    2    3    3    0    0  0.22489393082E+03 -0.13043392598E+03  0.44862918473E+03  0.52448805531E+03  0.78925823420E+02 0.  0.
         -6    2    1    2    0  501 -0.21831995222E+03  0.18281066593E+03  0.34036383051E+03  0.47515072156E+03  0.16981557631E+03 0.  0.
        -24    2    5    5    0    0 -0.67657534715E+02  0.77928683565E+02  0.70727187884E+02  0.14892165583E+03  0.80776870107E+02 0.  0.
          5    1    3    3  502    0 -0.65739785995E+01 -0.52376739954E+02  0.39405918461E+02  0.66041324128E+02  0.47000000000E+01 0. -1.
        -11    1    4    4    0    0  0.18870574758E+03 -0.97817576331E+02  0.29698093017E+03  0.36520653101E+03  0.00000000000E+00 0.  1.
         12    1    4    4    0    0  0.36188183237E+02 -0.32616349649E+02  0.15164825456E+03  0.15928152429E+03  0.00000000000E+00 0. -1.
         -5    1    5    5    0  501 -0.15066241750E+03  0.10488198237E+03  0.26963664263E+03  0.32622906572E+03  0.47000000000E+01 0.  1.
         13    1    6    6    0    0 -0.66732250409E+02  0.51353765543E+02  0.84227851322E+02  0.11909967850E+03  0.00000000000E+00 0. -1.
        -14    1    6    6    0    0 -0.92528430571E+00  0.26574918022E+02 -0.13500663437E+02  0.29821977335E+02  0.00000000000E+00 0.  1.
</event>
<event>
12    1  0.2625820E-002  0.2411861E+03  0.7818608E-02  0.1119005E+00
          2   -1    0    0  502    0  0.00000000000E+00  0.00000000000E+00  0.15501105355E+04  0.15501105355E+04  0.00000000000E+00 0. -1.
         -2   -1    0    0    0  501 -0.00000000000E+00 -0.00000000000E+00 -0.53678460351E+02  0.53678460351E+02  0.00000000000E+00 0.  1.
          6    2    1    2  502    0  0.17042751565E+02 -0.16682017518E+03  0.31005591171E+03  0.39330090388E+03  0.17444628510E+03 0.  0.
         24    2    3    3    0    0 -0.25448454187E+02 -0.17347508845E+03  0.28533146751E+03  0.34346940202E+03  0.76262399910E+02 0.  0.
         -6    2    1    2    0  501 -0.17042751565E+02  0.16682017518E+03  0.11863761634E+04  0.12104880919E+04  0.17226024900E+03 0.  0.
        -24    2    5    5    0    0  0.24942597688E+02  0.16296933038E+03  0.10881040407E+04  0.11034502544E+04  0.80317649273E+02 0.  0.
          5    1    3    3  502    0  0.42491205752E+02  0.66549132720E+01  0.24724444192E+02  0.49831501859E+02  0.47000000000E+01 0. -1.
        -11    1    4    4    0    0  0.93848687733E+01 -0.31022197748E+01  0.68631344046E+00  0.99081055486E+01  0.00000000000E+00 0.  1.
         12    1    4    4    0    0 -0.34833322960E+02 -0.17037286867E+03  0.28464515407E+03  0.33356129648E+03  0.00000000000E+00 0. -1.
         -5    1    5    5    0  501 -0.41985349253E+02  0.38508447919E+01  0.98272122769E+02  0.10703783757E+03  0.47000000000E+01 0.  1.
         11    1    6    6    0    0 -0.24385772800E+02  0.65511765715E+02  0.54552668741E+03  0.54998711261E+03  0.00000000000E+00 0. -1.
        -12    1    6    6    0    0  0.49328370487E+02  0.97457564669E+02  0.54257735324E+03  0.55346314177E+03  0.00000000000E+00 0.  1.
</event>
<event>
12    1  0.2625820E-002  0.1816849E+03  0.7818608E-02  0.1166182E+00
         -2   -1    0    0    0  501 -0.00000000000E+00  0.00000000000E+00  0.17862747313E+02  0.17862747313E+02  0.00000000000E+00 0. -1.
          2   -1    0    0  502    0  0.00000000000E+00 -0.00000000000E+00 -0.28220410554E+04  0.28220410554E+04  0.00000000000E+00 0.  1.
          6    2    1    2  502    0  0.46813681931E+02 -0.38384239003E+02 -0.22448544547E+04  0.22523335314E+04  0.17311829227E+03 0.  0.
         24    2    3    3    0    0 -0.23991145937E+02 -0.30731245438E+02 -0.64868601239E+03  0.65457019527E+03  0.78413094139E+02 0.  0.
         -6    2    1    2    0  501 -0.46813681931E+02  0.38384239003E+02 -0.55932385342E+03  0.58757027138E+03  0.16950156395E+03 0.  0.
        -24    2    5    5    0    0 -0.29554318404E+02 -0.23238519759E+02 -0.46075157111E+03  0.46995294754E+03  0.84559305137E+02 0.  0.
          5    1    3    3  502    0  0.70804827869E+02 -0.76529935646E+01 -0.15961684423E+04  0.15977633361E+04  0.47000000000E+01 0. -1.
        -11    1    4    4    0    0 -0.39460913223E+02  0.12558324339E+02 -0.28603928646E+03  0.28902136354E+03  0.00000000000E+00 0.  1.
         12    1    4    4    0    0  0.15469767285E+02 -0.43289569777E+02 -0.36264672593E+03  0.36554883173E+03  0.00000000000E+00 0. -1.
         -5    1    5    5    0  501 -0.17259363528E+02  0.61622758761E+02 -0.98572282310E+02  0.11761732384E+03  0.47000000000E+01 0.  1.
         13    1    6    6    0    0 -0.16279907393E+02  0.62583174006E+01 -0.14928018205E+02  0.22957518353E+02  0.00000000000E+00 0. -1.
        -14    1    6    6    0    0 -0.13274411011E+02 -0.29496837159E+02 -0.44582355290E+03  0.44699542919E+03  0.00000000000E+00 0.  1.
</event>
<event>
12    1  0.2625820E-002  0.1760171E+03  0.7818608E-02  0.1171714E+00
          2   -1    0    0  502    0  0.00000000000E+00  0.00000000000E+00  0.23058843683E+04  0.23058843683E+04  0.00000000000E+00 0.  1.
         -2   -1    0    0    0  501 -0.00000000000E+00 -0.00000000000E+00 -0.14274751010E+02  0.14274751010E+02  0.00000000000E+00 0. -1.
          6    2    1    2  502    0  0.32201127774E+02  0.13413833020E+02  0.87158655042E+03  0.88940583702E+03  0.17367436338E+03 0.  0.
         24    2    3    3    0    0  0.40967891132E+02 -0.55455411740E+02  0.57965101605E+03  0.58929206651E+03  0.80722787726E+02 0.  0.
         -6    2    1    2    0  501 -0.32201127774E+02 -0.13413833020E+02  0.14200230669E+04  0.14307532823E+04  0.17138436571E+03 0.  0.
        -24    2    5    5    0    0 -0.18365628506E+02  0.56524730165E+02  0.97705749364E+03  0.98206250600E+03  0.79202767582E+02 0.  0.
          5    1    3    3  502    0 -0.87667633572E+01  0.68869244761E+02  0.29193553438E+03  0.30011377050E+03  0.47000000000E+01 0. -1.
        -11    1    4    4    0    0  0.12219932116E+02 -0.56209562576E+02  0.18840490123E+03  0.19699047813E+03  0.00000000000E+00 0.  1.
         12    1    4    4    0    0  0.28747959015E+02  0.75415083608E+00  0.39124611482E+03  0.39230158838E+03  0.00000000000E+00 0. -1.
         -5    1    5    5    0  501 -0.13835499268E+02 -0.69938563186E+02  0.44296557323E+03  0.44869077629E+03  0.47000000000E+01 0.  1.
         13    1    6    6    0    0 -0.88068386501E+01 -0.80632682995E+01  0.24347522805E+02  0.27117864396E+02  0.00000000000E+00 0. -1.
        -14    1    6    6    0    0 -0.95587898564E+01  0.64587998465E+02  0.95270997083E+03  0.95494464161E+03  0.00000000000E+00 0.  1.
</event>
<event>
12    1  0.2625820E-002  0.2690437E+03  0.7818608E-02  0.1101828E+00
         -2   -1    0    0    0  501 -0.00000000000E+00  0.00000000000E+00  0.21231826297E+02  0.21231826297E+02  0.00000000000E+00 0.  1.
          2   -1    0    0  502    0  0.00000000000E+00 -0.00000000000E+00 -0.34171163921E+04  0.34171163921E+04  0.00000000000E+00 0. -1.
          6    2    1    2  502    0  0.16884152568E+03 -0.12020824697E+03 -0.16163766181E+04  0.16386390318E+04  0.17177607944E+03 0.  0.
         24    2    3    3    0    0  0.12745769017E+03 -0.83474994482E+02 -0.14976669888E+04  0.15075817170E+04  0.81133756536E+02 0.  0.
         -6    2    1    2    0  501 -0.16884152568E+03  0.12020824697E+03 -0.17795079477E+04  0.17997091867E+04  0.17131006118E+03 0.  0.
        -24    2    5    5    0    0 -0.11164134099E+03  0.19098058282E+02 -0.12400864827E+04  0.12479005800E+04  0.81319421271E+02 0.  0.
          5    1    3    3  502    0  0.41383835503E+02 -0.36733252484E+02 -0.11870962928E+03  0.13105731480E+03  0.47000000000E+01 0. -1.
        -11    1    4    4    0    0  0.66884229361E+02  0.18011816348E+01 -0.66955707286E+03  0.67289183248E+03  0.00000000000E+00 0.  1.
         12    1    4    4    0    0  0.60573460812E+02 -0.85276176116E+02 -0.82810991596E+03  0.83468988450E+03  0.00000000000E+00 0. -1.
         -5    1    5    5    0  501 -0.57200184686E+02  0.10111018868E+03 -0.53942146507E+03  0.55180860664E+03  0.47000000000E+01 0.  1.
         11    1    6    6    0    0 -0.24497122547E+02 -0.17361982013E+02 -0.61340999640E+03  0.61414442203E+03  0.00000000000E+00 0. -1.
        -12    1    6    6    0    0 -0.87144218442E+02  0.36460040295E+02 -0.62667648626E+03  0.63375615798E+03  0.00000000000E+00 0.  1.
</event>
<event>
12    1  0.2625820E-002  0.1969734E+03  0.7818608E-02  0.1152318E+00
          1   -1    0    0  502    0  0.00000000000E+00  0.00000000000E+00  0.43706473345E+03  0.43706473345E+03  0.00000000000E+00 0. -1.
         -1   -1    0    0    0  501 -0.00000000000E+00 -0.00000000000E+00 -0.12988025981E+03  0.12988025981E+03  0.00000000000E+00 0.  1.
          6    2    1    2  502    0 -0.91981996171E+02  0.26069701758E+02  0.31302250604E+03  0.36978852565E+03  0.17210504770E+03 0.  0.
         24    2    3    3    0    0 -0.34119008187E+01  0.55161687451E+02  0.12163925909E+03  0.15685510263E+03  0.82176401977E+02 0.  0.
         -6    2    1    2    0  501  0.91981996171E+02 -0.26069701758E+02 -0.58380324000E+01  0.19715646761E+03  0.17232606631E+03 0.  0.
        -24    2    5    5    0    0  0.82283686606E+02  0.42505613454E+02  0.20262128166E+02  0.12299489100E+03  0.78357240361E+02 0.  0.
          5    1    3    3  502    0 -0.88570095353E+02 -0.29091985693E+02  0.19138324696E+03  0.21293342302E+03  0.47000000000E+01 0. -1.
        -11    1    4    4    0    0  0.68231907266E+01 -0.19988348222E+02  0.14626167905E+02  0.25690752887E+02  0.00000000000E+00 0.  1.
         12    1    4    4    0    0 -0.10235091545E+02  0.75150035673E+02  0.10701309118E+03  0.13116434975E+03  0.00000000000E+00 0. -1.
         -5    1    5    5    0  501  0.96983095652E+01 -0.68575315212E+02 -0.26100160566E+02  0.74161576618E+02  0.47000000000E+01 0.  1.
         13    1    6    6    0    0  0.42690092582E+02 -0.19541452041E+02  0.14627282917E+02  0.49175906276E+02  0.00000000000E+00 0. -1.
        -14    1    6    6    0    0  0.39593594024E+02  0.62047065495E+02  0.56348452491E+01  0.73818984721E+02  0.00000000000E+00 0.  1.
</event>
<event>
12    1  0.2625820E-002  0.2082645E+03  0.7818608E-02  0.1142948E+00
          2   -1    0    0  502    0  0.00000000000E+00  0.00000000000E+00  0.22113655504E+04  0.22113655504E+04  0.00000000000E+00 0. -1.
         -2   -1    0    0    0  501 -0.00000000000E+00 -0.00000000000E+00 -0.38910779327E+02  0.38910779327E+02  0.00000000000E+00 0.  1.
          6    2    1    2  502    0  0.12468328577E+03  0.43235665682E+02  0.31313118636E+03  0.38008423136E+03  0.17028692997E+03 0.  0.
         24    2    3    3    0    0  0.83851305026E+02  0.28536204198E+02  0.82975241432E+02  0.14582545606E+03  0.80838212742E+02 0.  0.
         -6    2    1    2    0  501 -0.12468328577E+03 -0.43235665682E+02  0.18593235847E+04  0.18701920983E+04  0.15204949060E+03 0.  0.
        -24    2    5    5    0    0 -0.61004987979E+02 -0.46056719473E+02  0.15780551896E+04  0.15817533977E+04  0.76438208663E+02 0.  0.
          5    1    3    3  502    0  0.40831980746E+02  0.14699461484E+02  0.23015594493E+03  0.23425877530E+03  0.47000000000E+01 0. -1.
        -11    1    4    4    0    0  0.19028759550E+02  0.45687953838E+02  0.52566369468E+02  0.72199072120E+02  0.00000000000E+00 0.  1.
         12    1    4    4    0    0  0.64822545476E+02 -0.17151749640E+02  0.30408871964E+02  0.73626383938E+02  0.00000000000E+00 0. -1.
         -5    1    5    5    0  501 -0.63678297793E+02  0.28210537905E+01  0.28126839513E+03  0.28843870069E+03  0.47000000000E+01 0.  1.
         13    1    6    6    0    0  0.11624003230E+02 -0.32100035082E+02  0.49348679078E+03  0.49466629396E+03  0.00000000000E+00 0. -1.
        -14    1    6    6    0    0 -0.72628991209E+02 -0.13956684391E+02  0.10845683988E+04  0.10870871037E+04  0.00000000000E+00 0.  1.
</event>
<event>
12    1  0.2625820E-002  0.1733710E+03  0.7818608E-02  0.1174377E+00
         -1   -1    0    0    0  501 -0.00000000000E+00  0.00000000000E+00  0.20324945988E+02  0.20324945988E+02  0.00000000000E+00 0.  1.
          1   -1    0    0  502    0  0.00000000000E+00 -0.00000000000E+00 -0.25615135119E+04  0.25615135119E+04  0.00000000000E+00 0. -1.
          6    2    1    2  502    0 -0.17975659497E+02  0.81041214550E+01 -0.43492363805E+03  0.46851924528E+03  0.17309798134E+03 0.  0.
         24    2    3    3    0    0  0.34519358859E+02  0.20996905546E+02 -0.37976754619E+03  0.39114848011E+03  0.84506142807E+02 0.  0.
         -6    2    1    2    0  501  0.17975659497E+02 -0.81041214550E+01 -0.21062649279E+04  0.21133192126E+04  0.17139821155E+03 0.  0.
        -24    2    5    5    0    0 -0.13010038452E+02  0.17788094870E+02 -0.19579825104E+04  0.19595652349E+04  0.75595775284E+02 0.  0.
          5    1    3    3  502    0 -0.52495018356E+02 -0.12892784091E+02 -0.55156091853E+02  0.77370765166E+02  0.47000000000E+01 0. -1.
        -13    1    4    4    0    0  0.15288437988E+02  0.53407624346E+02 -0.24428618768E+03  0.25052315694E+03  0.00000000000E+00 0.  1.
         14    1    4    4    0    0  0.19230920871E+02 -0.32410718800E+02 -0.13548135851E+03  0.14062532317E+03  0.00000000000E+00 0. -1.
         -5    1    5    5    0  501  0.30985697949E+02 -0.25892216325E+02 -0.14828241746E+03  0.15375397774E+03  0.47000000000E+01 0.  1.
         13    1    6    6    0    0 -0.16214361289E+02  0.46265756610E+02 -0.13836111254E+04  0.13844793866E+04  0.00000000000E+00 0. -1.
        -14    1    6    6    0    0  0.32043228373E+01 -0.28477661740E+02 -0.57437138503E+03  0.57508584824E+03  0.00000000000E+00 0.  1.
</event>
<event>
12    1  0.2625820E-002  0.2301582E+03  0.7818608E-02  0.1126528E+00
          2   -1    0    0  502    0  0.00000000000E+00  0.00000000000E+00  0.62664514255E+03  0.62664514255E+03  0.00000000000E+00 0.  1.
         -2   -1    0    0    0  501 -0.00000000000E+00 -0.00000000000E+00 -0.85203857641E+02  0.85203857641E+02  0.00000000000E+00 0. -1.
          6    2    1    2  502    0 -0.67726646884E+02 -0.13961948210E+03  0.30009194938E+03  0.37711782193E+03  0.16757737035E+03 0.  0.
         24    2    3    3    0    0 -0.44407333514E+02 -0.16389815209E+03  0.28165222614E+03  0.33844796822E+03  0.79902660605E+02 0.  0.
         -6    2    1    2    0  501  0.67726646884E+02  0.13961948210E+03  0.24134933553E+03  0.33473117826E+03  0.17238028153E+03 0.  0.
        -24    2    5    5    0    0 -0.24305089662E+02  0.34643633497E+02  0.69190174513E+02  0.11303175101E+03  0.78727236472E+02 0.  0.
          5    1    3    3  502    0 -0.23319313370E+02  0.24278669996E+02  0.18439723241E+02  0.38669853711E+02  0.47000000000E+01 0. -1.
        -13    1    4    4    0    0 -0.21731906070E+02 -0.27701262189E+02  0.12390512411E+03  0.12881038565E+03  0.00000000000E+00 0.  1.
         14    1    4    4    0    0 -0.22675427444E+02 -0.13619688991E+03  0.15774710203E+03  0.20963758257E+03  0.00000000000E+00 0. -1.
         -5    1    5    5    0  501  0.92031736547E+02  0.10497584860E+03  0.17215916102E+03  0.22169942725E+03  0.47000000000E+01 0.  1.
         11    1    6    6    0    0  0.30543488609E+01  0.43482203712E+02  0.71975227890E+02  0.84145496115E+02  0.00000000000E+00 0. -1.
        -12    1    6    6    0    0 -0.27359438523E+02 -0.88385702148E+01 -0.27850533763E+01  0.28886254898E+02  0.00000000000E+00 0.  1.
</event>
<event>
12    1  0.2625820E-002  0.2100157E+03  0.7818608E-02  0.1141554E+00
         -2   -1    0    0    0  501 -0.00000000000E+00  0.00000000000E+00  0.33204944516E+02  0.33204944516E+02  0.00000000000E+00 0.  1.
          2   -1    0    0  502    0  0.00000000000E+00 -0.00000000000E+00 -0.15417234433E+04  0.15417234433E+04  0.00000000000E+00 0. -1.
          6    2    1    2  502    0  0.17843717429E+02 -0.11867878439E+03 -0.10457763956E+04  0.10665635320E+04  0.17177440455E+03 0.  0.
         24    2    3    3    0    0 -0.44101698117E+02 -0.85514933027E+02 -0.47870933121E+03  0.49514055287E+03  0.82120519755E+02 0.  0.
         -6    2    1    2    0  501 -0.17843717429E+02  0.11867878439E+03 -0.46274210313E+03  0.50836485578E+03  0.17292056112E+03 0.  0.
        -24    2    5    5    0    0 -0.27741060253E+02  0.14927658657E+03 -0.42687189040E+03  0.45996087811E+03  0.79317922638E+02 0.  0.
          5    1    3    3  502    0  0.61945415546E+02 -0.33163851368E+02 -0.56706706443E+03  0.57142297916E+03  0.47000000000E+01 0. -1.
        -11    1    4    4    0    0 -0.61280744281E+02 -0.82718195417E+02 -0.44950951496E+03  0.46114686761E+03  0.00000000000E+00 0.  1.
         12    1    4    4    0    0  0.17179046163E+02 -0.27967376098E+01 -0.29199816250E+02  0.33993685258E+02  0.00000000000E+00 0. -1.
         -5    1    5    5    0  501  0.98973428247E+01 -0.30597802175E+02 -0.35870212734E+02  0.48403977672E+02  0.47000000000E+01 0.  1.
         13    1    6    6    0    0 -0.25805892025E+02  0.38184463093E+02 -0.22364292673E+03  0.22834219050E+03  0.00000000000E+00 0. -1.
        -14    1    6    6    0    0 -0.19351682282E+01  0.11109212348E+03 -0.20322896367E+03  0.23161868761E+03  0.00000000000E+00 0.  1.
</event>
<event>
12    1  0.2625820E-002  0.2511141E+03  0.7818608E-02  0.1112603E+00
         -2   -1    0    0    0  501 -0.00000000000E+00  0.00000000000E+00  0.43355571278E+02  0.43355571278E+02  0.00000000000E+00 0.  1.
          2   -1    0    0  502    0  0.00000000000E+00 -0.00000000000E+00 -0.17111971546E+04  0.17111971546E+04  0.00000000000E+00 0. -1.
          6    2    1    2  502    0 -0.18081259312E+03 -0.31549015489E+02 -0.49252417543E+03  0.55259091926E+03  0.17055241554E+03 0.  0.
         24    2    3    3    0    0 -0.36821741475E+02  0.28430388853E+02 -0.15457846817E+03  0.18035405198E+03  0.80429805342E+02 0.  0.
         -6    2    1    2    0  501  0.18081259312E+03  0.31549015489E+02 -0.11753174079E+04  0.12019618066E+04  0.17219942242E+03 0.  0.
        -24    2    5    5    0    0  0.13476896402E+03 -0.29149292610E+02 -0.56525680004E+03  0.58714448771E+03  0.78810180395E+02 0.  0.
          5    1    3    3  502    0 -0.14399085165E+03 -0.59979404341E+02 -0.33794570726E+03  0.37223686728E+03  0.47000000000E+01 0. -1.
        -11    1    4    4    0    0 -0.42643102968E+02  0.52239918702E+02 -0.12414159579E+03  0.14127483549E+03  0.00000000000E+00 0.  1.
         12    1    4    4    0    0  0.58213614922E+01 -0.23809529849E+02 -0.30436872380E+02  0.39079216491E+02  0.00000000000E+00 0. -1.
         -5    1    5    5    0  501  0.46043629105E+02  0.60698308098E+02 -0.61006060782E+03  0.61481731889E+03  0.47000000000E+01 0.  1.
         11    1    6    6    0    0  0.27197010117E+02  0.12598803166E+02 -0.24320588225E+03  0.24504593113E+03  0.00000000000E+00 0. -1.
        -12    1    6    6    0    0  0.10757195390E+03 -0.41748095775E+02 -0.32205091779E+03  0.34209855658E+03  0.00000000000E+00 0.  1.
</event>
<event>
12    1  0.2625820E-002  0.1714500E+03  0.7818608E-02  0.1176344E+00
         -1   -1    0    0    0  501 -0.00000000000E+00  0.00000000000E+00  0.66317854707E+02  0.66317854707E+02  0.00000000000E+00 0.  1.
          1   -1    0    0  502    0  0.00000000000E+00 -0.00000000000E+00 -0.69180582260E+03  0.69180582260E+03  0.00000000000E+00 0. -1.
          6    2    1    2  502    0 -0.18642197217E+01  0.14480956627E+02 -0.86916683292E+02  0.19327496302E+03  0.17201025573E+03 0.  0.
         24    2    3    3    0    0 -0.56323857319E+02 -0.80095340260E+00 -0.13862093898E+02  0.10076306144E+03  0.82389431814E+02 0.  0.
         -6    2    1    2    0  501  0.18642197217E+01 -0.14480956627E+02 -0.53857128460E+03  0.56484871429E+03  0.16965219720E+03 0.  0.
        -24    2    5    5    0    0 -0.57065795805E+02 -0.11751517005E+02 -0.43193524990E+03  0.44289162976E+03  0.78678665465E+02 0.  0.
          5    1    3    3  502    0  0.54459637597E+02  0.15281910030E+02 -0.73054589393E+02  0.92511901574E+02  0.47000000000E+01 0. -1.
        -13    1    4    4    0    0 -0.38764120112E+02 -0.40547334846E+02 -0.42250559449E+01  0.56254728414E+02  0.00000000000E+00 0.  1.
         14    1    4    4    0    0 -0.17559737207E+02  0.39746381443E+02 -0.96370379535E+01  0.44508333031E+02  0.00000000000E+00 0. -1.
         -5    1    5    5    0  501  0.58930015527E+02 -0.27294396217E+01 -0.10663603470E+03  0.12195708453E+03  0.47000000000E+01 0.  1.
         11    1    6    6    0    0  0.17604198203E+02  0.18031984352E+01 -0.40962496748E+02  0.44621580640E+02  0.00000000000E+00 0. -1.
        -12    1    6    6    0    0 -0.74669994009E+02 -0.13554715440E+02 -0.39097275315E+03  0.39827004912E+03  0.00000000000E+00 0.  1.
</event>
<event>
12    1  0.2625820E-002  0.1881816E+03  0.7818608E-02  0.1160112E+00
          2   -1    0    0  502    0  0.00000000000E+00  0.00000000000E+00  0.70207208767E+03  0.70207208767E+03  0.00000000000E+00 0.  1.
         -2   -1    0    0    0  501 -0.00000000000E+00 -0.00000000000E+00 -0.50865387337E+02  0.50865387337E+02  0.00000000000E+00 0. -1.
          6    2    1    2  502    0 -0.11349008142E+02  0.75964163329E+02  0.29069513956E+03  0.34613900360E+03  0.17149108301E+03 0.  0.
         24    2    3    3    0    0 -0.69914596635E+02  0.22928208793E+02  0.19223223973E+03  0.21980700736E+03  0.77124139639E+02 0.  0.
         -6    2    1    2    0  501  0.11349008142E+02 -0.75964163329E+02  0.36051156077E+03  0.40679847141E+03  0.17209606850E+03 0.  0.
        -24    2    5    5    0    0  0.56598593205E+02 -0.37331405861E+02  0.31402007570E+03  0.33114423767E+03  0.80317268294E+02 0.  0.
          5    1    3    3  502    0  0.58565588492E+02  0.53035954535E+02  0.98462899834E+02  0.12633199624E+03  0.47000000000E+01 0. -1.
        -13    1    4    4    0    0  0.14147174233E+02 -0.69906470347E+01  0.17188906002E+02  0.23333884681E+02  0.00000000000E+00 0.  1.
         14    1    4    4    0    0 -0.84061770868E+02  0.29918855828E+02  0.17504333372E+03  0.19647312268E+03  0.00000000000E+00 0. -1.
         -5    1    5    5    0  501 -0.45249585063E+02 -0.38632757468E+02  0.46491485079E+02  0.75654233740E+02  0.47000000000E+01 0.  1.
         11    1    6    6    0    0  0.22909347165E+01 -0.28863982771E+02  0.29394853379E+02  0.41260577898E+02  0.00000000000E+00 0. -1.
        -12    1    6    6    0    0  0.54307658488E+02 -0.84674230897E+01  0.28462522232E+03  0.28988365977E+03  0.00000000000E+00 0.  1.
</event>
<event>
12    1  0.2625820E-002  0.3260369E+03  0.7818608E-02  0.1072904E+00
          2   -1    0    0  502    0  0.00000000000E+00  0.00000000000E+00  0.15483451315E+04  0.15483451315E+04  0.00000000000E+00 0. -1.
         -2   -1    0    0    0  501 -0.00000000000E+00 -0.00000000000E+00 -0.69669985602E+02  0.69669985602E+02  0.00000000000E+00 0.  1.
          6    2    1    2  502    0  0.28874331330E+00  0.27867226388E+03  0.63857871948E+03  0.71636246187E+03  0.16653552704E+03 0.  0.
         24    2    3    3    0    0  0.49232557442E+02  0.25139552913E+03  0.53401109760E+03  0.59763590735E+03  0.79857802503E+02 0.  0.
         -6    2    1    2    0  501 -0.28874331330E+00 -0.27867226388E+03  0.84009642642E+03  0.90165265524E+03  0.17192204918E+03 0.  0.
        -24    2    5    5    0    0  0.60999610525E+02 -0.17939669138E+03  0.47095969800E+03  0.51448871596E+03  0.83615048578E+02 0.  0.
          5    1    3    3  502    0 -0.48943814128E+02  0.27276734747E+02  0.10456762189E+03  0.11872655452E+03  0.47000000000E+01 0. -1.
        -11    1    4    4    0    0  0.64642656919E+00  0.77884695838E+02  0.93453727290E+02  0.12165542675E+03  0.00000000000E+00 0.  1.
         12    1    4    4    0    0  0.48586130872E+02  0.17351083329E+03  0.44055737031E+03  0.47598048060E+03  0.00000000000E+00 0. -1.
         -5    1    5    5    0  501 -0.61288353838E+02 -0.99275572500E+02  0.36913672842E+03  0.38716393928E+03  0.47000000000E+01 0.  1.
         13    1    6    6    0    0  0.20885239820E+02 -0.16177364519E+03  0.37980469452E+03  0.41335034958E+03  0.00000000000E+00 0. -1.
        -14    1    6    6    0    0  0.40114370705E+02 -0.17623046182E+02  0.91155003489E+02  0.10113836638E+03  0.00000000000E+00 0.  1.
</event>
<event>
12    1  0.2625820E-002  0.2192920E+03  0.7818608E-02  0.1134412E+00
         -1   -1    0    0    0  501 -0.00000000000E+00  0.00000000000E+00  0.51669438913E+02  0.51669438913E+02  0.00000000000E+00 0.  1.
          1   -1    0    0  502    0  0.00000000000E+00 -0.00000000000E+00 -0.10124489687E+04  0.10124489687E+04  0.00000000000E+00 0. -1.
          6    2    1    2  502    0  0.28866990481E+02  0.13333545962E+03 -0.63510047550E+03  0.67248025716E+03  0.17396963632E+03 0.  0.
         24    2    3    3    0    0  0.66188717974E+02  0.76362644698E+02 -0.24797525284E+03  0.27938123528E+03  0.79686565457E+02 0.  0.
         -6    2    1    2    0  501 -0.28866990481E+02 -0.13333545962E+03 -0.32567905425E+03  0.39163815041E+03  0.16941648842E+03 0.  0.
        -24    2    5    5    0    0 -0.69980862923E+02 -0.38803175485E+02 -0.14642966889E+03  0.18480697433E+03  0.79428975969E+02 0.  0.
          5    1    3    3  502    0 -0.37321727493E+02  0.56972814926E+02 -0.38712522266E+03  0.39309902188E+03  0.47000000000E+01 0. -1.
        -11    1    4    4    0    0  0.29546806991E+02  0.80173383806E+02 -0.12817112642E+03  0.15404097806E+03  0.00000000000E+00 0.  1.
         12    1    4    4    0    0  0.36641910983E+02 -0.38107391074E+01 -0.11980412642E+03  0.12534025722E+03  0.00000000000E+00 0. -1.
         -5    1    5    5    0  501  0.41113872442E+02 -0.94532284140E+02 -0.17924938535E+03  0.20683117609E+03  0.47000000000E+01 0.  1.
         11    1    6    6    0    0 -0.71852405451E+01 -0.26655888549E+02 -0.10507752553E+03  0.10864368572E+03  0.00000000000E+00 0. -1.
        -12    1    6    6    0    0 -0.62795622378E+02 -0.12147286936E+02 -0.41352143364E+02  0.76163288601E+02  0.00000000000E+00 0.  1.
</event>
<event>
12    1  0.2625820E-002  0.2049274E+03  0.7818608E-02  0.1145647E+00
          1   -1    0    0  502    0  0.00000000000E+00  0.00000000000E+00  0.17168770286E+04  0.17168770286E+04  0.00000000000E+00 0.  1.
         -1   -1    0    0    0  501 -0.00000000000E+00 -0.00000000000E+00 -0.28221128885E+02  0.28221128885E+02  0.00000000000E+00 0. -1.
          6    2    1    2  502    0 -0.82419114073E+02 -0.74724570204E+02  0.11638878948E+04  0.11818414077E+04  0.17244538136E+03 0.  0.
         24    2    3    3    0    0 -0.64791399034E+02 -0.81993117072E+02  0.48274241901E+03  0.50041289547E+03  0.80324505593E+02 0.  0.
         -6    2    1    2    0  501  0.82419114073E+02  0.74724570204E+02  0.52476800492E+03  0.56325674979E+03  0.17175574352E+03 0.  0.
        -24    2    5    5    0    0 -0.31904160139E+01  0.85303349855E+02  0.26922702862E+03  0.29350838039E+03  0.79856973206E+02 0.  0.
          5    1    3    3  502    0 -0.17627715039E+02  0.72685468676E+01  0.68114547574E+03  0.68142851220E+03  0.47000000000E+01 0. -1.
        -13    1    4    4    0    0 -0.46893946399E+02 -0.93093267068E+02  0.44640714131E+03  0.45841546047E+03  0.00000000000E+00 0.  1.
         14    1    4    4    0    0 -0.17897452636E+02  0.11100149996E+02  0.36335277698E+02  0.41997434995E+02  0.00000000000E+00 0. -1.
         -5    1    5    5    0  501  0.85609530087E+02 -0.10578779651E+02  0.25554097630E+03  0.26974836939E+03  0.47000000000E+01 0.  1.
         11    1    6    6    0    0  0.21696861715E+02 -0.28874590945E+00  0.99062660974E+02  0.10141128133E+03  0.00000000000E+00 0. -1.
        -12    1    6    6    0    0 -0.24887277729E+02  0.85592095764E+02  0.17016436765E+03  0.19209709906E+03  0.00000000000E+00 0.  1.
</event>
<event>
12    1  0.2625820E-002  0.2215249E+03  0.7818608E-02  0.1132751E+00
          2   -1    0    0  502    0  0.00000000000E+00  0.00000000000E+00  0.13611430447E+04  0.13611430447E+04  0.00000000000E+00 0. -1.
         -2   -1    0    0    0  501 -0.00000000000E+00 -0.00000000000E+00 -0.36471819536E+02  0.36471819536E+02  0.00000000000E+00 0.  1.
          6    2    1    2  502    0  0.11123522182E+03  0.82753771464E+02  0.58703173479E+03  0.62738878414E+03  0.17259480743E+03 0.  0.
         24    2    3    3    0    0  0.12729693786E+03  0.87390065119E+02  0.35800640817E+03  0.39770603735E+03  0.78485476261E+02 0.  0.
         -6    2    1    2    0  501 -0.11123522182E+03 -0.82753771464E+02  0.73763949038E+03  0.77022608010E+03  0.17295876802E+03 0.  0.
        -24    2    5    5    0    0 -0.34903185913E+02 -0.51128844240E+02  0.60863612519E+03  0.61695940415E+03  0.79803398290E+02 0.  0.
          5    1    3    3  502    0 -0.16061716037E+02 -0.46362936551E+01  0.22902532661E+03  0.22968274679E+03  0.47000000000E+01 0. -1.
        -13    1    4    4    0    0  0.22453110046E+02 -0.84269500771E+01  0.20567929280E+02  0.31594229746E+02  0.00000000000E+00 0.  1.
         14    1    4    4    0    0  0.10484382781E+03  0.95817015196E+02  0.33743847889E+03  0.36611180761E+03  0.00000000000E+00 0. -1.
         -5    1    5    5    0  501 -0.76332035906E+02 -0.31624927224E+02  0.12900336519E+03  0.15326667595E+03  0.47000000000E+01 0.  1.
         11    1    6    6    0    0 -0.23903508095E+02  0.18675608460E+02  0.18279346832E+03  0.18529330294E+03  0.00000000000E+00 0. -1.
        -12    1    6    6    0    0 -0.10999677818E+02 -0.69804452700E+02  0.42584265687E+03  0.43166610122E+03  0.00000000000E+00 0.  1.
</event>
<event>
12    1  0.2625820E-002  0.2756522E+03  0.7818608E-02  0.1098088E+00
         -2   -1    0    0    0  501 -0.00000000000E+00  0.00000000000E+00  0.58539652140E+02  0.58539652140E+02  0.00000000000E+00 0. -1.
          2   -1    0    0  502    0  0.00000000000E+00 -0.00000000000E+00 -0.21930464264E+04  0.21930464264E+04  0.00000000000E+00 0.  1.
          6    2    1    2  502    0 -0.14638766767E+03  0.15897591725E+03 -0.34906327790E+03  0.44505713249E+03  0.17183709636E+03 0.  0.
         24    2    3    3    0    0 -0.73341762558E+01  0.16418421313E+02 -0.93447447944E+02  0.12098915251E+03  0.74716763831E+02 0.  0.
         -6    2    1    2    0  501  0.14638766767E+03 -0.15897591725E+03 -0.17854434963E+04  0.18065289460E+04  0.17039854090E+03 0.  0.
        -24    2    5    5    0    0  0.92175862831E+02 -0.16513198263E+03 -0.11375188216E+04  0.11562941492E+04  0.85452492835E+02 0.  0.
          5    1    3    3  502    0 -0.13905349141E+03  0.14255749594E+03 -0.25561582996E+03  0.32406797998E+03  0.47000000000E+01 0. -1.
        -11    1    4    4    0    0  0.32970734671E+02  0.15033102226E+02 -0.39044839874E+02  0.53268780988E+02  0.00000000000E+00 0.  1.
         12    1    4    4    0    0 -0.40304910926E+02  0.13853190869E+01 -0.54402608071E+02  0.67720371519E+02  0.00000000000E+00 0. -1.
         -5    1    5    5    0  501  0.54211804836E+02  0.61560653758E+01 -0.64792467471E+03  0.65023479684E+03  0.47000000000E+01 0.  1.
         11    1    6    6    0    0  0.24070005586E+02 -0.17829144351E+02 -0.65036381191E+02  0.71602894045E+02  0.00000000000E+00 0. -1.
        -12    1    6    6    0    0  0.68105857245E+02 -0.14730283827E+03 -0.10724824404E+04  0.10846912551E+04  0.00000000000E+00 0.  1.
</event>
<event>
12    1  0.2625820E-002  0.1913328E+03  0.7818608E-02  0.1157265E+00
          2   -1    0    0  502    0  0.00000000000E+00  0.00000000000E+00  0.53301682560E+04  0.53301682560E+04  0.00000000000E+00 0. -1.
         -2   -1    0    0    0  501 -0.00000000000E+00 -0.00000000000E+00 -0.10394686012E+02  0.10394686012E+02  0.00000000000E+00 0.  1.
          6    2    1    2  502    0  0.80257530838E+02  0.94260971873E+01  0.42211450555E+04  0.42255084761E+04  0.17414413356E+03 0.  0.
         24    2    3    3    0    0  0.11903449288E+03  0.14843678728E+02  0.37270694414E+04  0.37298616205E+04  0.80196894642E+02 0.  0.
         -6    2    1    2    0  501 -0.80257530838E+02 -0.94260971873E+01  0.10986285145E+04  0.11150544660E+04  0.17271863418E+03 0.  0.
        -24    2    5    5    0    0 -0.29063689841E+02  0.87203512433E+01  0.98950538519E+03  0.99307065433E+03  0.78407107959E+02 0.  0.
          5    1    3    3  502    0 -0.38776962044E+02 -0.54175815405E+01  0.49407561418E+03  0.49564685563E+03  0.47000000000E+01 0. -1.
        -13    1    4    4    0    0  0.62970263062E+02  0.47982526572E+02  0.20525263463E+04  0.20540525746E+04  0.00000000000E+00 0.  1.
         14    1    4    4    0    0  0.56064229820E+02 -0.33138847844E+02  0.16745430950E+04  0.16758090459E+04  0.00000000000E+00 0. -1.
         -5    1    5    5    0  501 -0.51193840997E+02 -0.18146448431E+02  0.10912312932E+03  0.12198381163E+03  0.47000000000E+01 0.  1.
         11    1    6    6    0    0 -0.41047834849E+02  0.25728628629E+02  0.89462753683E+03  0.89593823265E+03  0.00000000000E+00 0. -1.
        -12    1    6    6    0    0  0.11984145008E+02 -0.17008277385E+02  0.94877848360E+02  0.97132421676E+02  0.00000000000E+00 0.  1.
</event>
<event>
12    1  0.2625820E-002  0.1957316E+03  0.7818608E-02  0.1153391E+00
          2   -1    0    0  502    0  0.00000000000E+00  0.00000000000E+00  0.13628526564E+03  0.13628526564E+03  0.00000000000E+00 0.  1.
         -2   -1    0    0    0  501 -0.00000000000E+00 -0.00000000000E+00 -0.36717633967E+03  0.36717633967E+03  0.00000000000E+00 0. -1.
          6    2    1    2  502    0  0.85017229025E+02  0.36665593496E+02  0.65241187527E+01  0.19563417451E+03  0.17221460778E+03 0.  0.
         24    2    3    3    0    0  0.11590716402E+03 -0.15040707219E+02  0.13243139944E+02  0.13484795187E+03  0.65938576125E+02 0.  0.
         -6    2    1    2    0  501 -0.85017229025E+02 -0.36665593496E+02 -0.23741519277E+03  0.30782743080E+03  0.17268311560E+03 0.  0.
        -24    2    5    5    0    0 -0.18695362745E+02  0.32128947220E+02 -0.61360930193E+02  0.10745659422E+03  0.79999812807E+02 0.  0.
          5    1    3    3  502    0 -0.30889934998E+02  0.51706300715E+02 -0.67190211912E+01  0.60786222646E+02  0.47000000000E+01 0. -1.
        -13    1    4    4    0    0  0.23829994782E+02  0.22392820522E+02  0.13692846849E+02  0.35451390905E+02  0.00000000000E+00 0.  1.
         14    1    4    4    0    0  0.92077169240E+02 -0.37433527742E+02 -0.44970690488E+00  0.99396560960E+02  0.00000000000E+00 0. -1.
         -5    1    5    5    0  501 -0.66321866280E+02 -0.68794540716E+02 -0.17605426258E+03  0.20037083658E+03  0.47000000000E+01 0.  1.
         13    1    6    6    0    0 -0.15363749683E+02 -0.23907712189E+02 -0.35980562757E+02  0.45850020750E+02  0.00000000000E+00 0. -1.
        -14    1    6    6    0    0 -0.33316130619E+01  0.56036659409E+02 -0.25380367437E+02  0.61606573469E+02  0.00000000000E+00 0.  1.
</event>
<event>
12    1  0.2625820E-002  0.2224327E+03  0.7818608E-02  0.1132082E+00
          2   -1    0    0  502    0  0.00000000000E+00  0.00000000000E+00  0.79058259232E+02  0.79058259232E+02  0.00000000000E+00 0.  1.
         -2   -1    0    0    0  501 -0.00000000000E+00 -0.00000000000E+00 -0.65375288652E+03  0.65375288652E+03  0.00000000000E+00 0. -1.
          6    2    1    2  502    0 -0.69416336233E+02  0.12154099217E+03 -0.21082680240E+03  0.30600734181E+03  0.17205148102E+03 0.  0.
         24    2    3    3    0    0 -0.78772036011E+02  0.12311271428E+03 -0.23011092303E+03  0.28400809779E+03  0.79673010752E+02 0.  0.
         -6    2    1    2    0  501  0.69416336233E+02 -0.12154099217E+03 -0.36386782489E+03  0.42680380394E+03  0.17369758938E+03 0.  0.
        -24    2    5    5    0    0  0.84054184276E+02 -0.14270350874E+03 -0.25306566889E+03  0.31295598236E+03  0.80435171588E+02 0.  0.
          5    1    3    3  502    0  0.93556997783E+01 -0.15717221130E+01  0.19284120630E+02  0.21999244015E+02  0.47000000000E+01 0. -1.
        -11    1    4    4    0    0 -0.34404527927E+02  0.42076656357E+02 -0.26606717143E+02  0.60514741586E+02  0.00000000000E+00 0.  1.
         12    1    4    4    0    0 -0.44367508084E+02  0.81036057922E+02 -0.20350420588E+03  0.22349335621E+03  0.00000000000E+00 0. -1.
         -5    1    5    5    0  501 -0.14637848043E+02  0.21162516570E+02 -0.11080215601E+03  0.11384782158E+03  0.47000000000E+01 0.  1.
         11    1    6    6    0    0  0.90443042414E+02 -0.11321628181E+03 -0.23938727498E+03  0.27982876516E+03  0.00000000000E+00 0. -1.
        -12    1    6    6    0    0 -0.63888581379E+01 -0.29487226923E+02 -0.13678393910E+02  0.33127217207E+02  0.00000000000E+00 0.  1.
</event>
<event>
12    1  0.2625820E-002  0.1780752E+03  0.7818608E-02  0.1169679E+00
          1   -1    0    0  502    0  0.00000000000E+00  0.00000000000E+00  0.74076758993E+03  0.74076758993E+03  0.00000000000E+00 0.  1.
         -1   -1    0    0    0  501 -0.00000000000E+00 -0.00000000000E+00 -0.44814706305E+02  0.44814706305E+02  0.00000000000E+00 0. -1.
          6    2    1    2  502    0  0.41282651287E+02 -0.34436183416E+02  0.27426086990E+03  0.32961312346E+03  0.17474460901E+03 0.  0.
         24    2    3    3    0    0  0.54108267499E+02  0.60442261214E+01  0.26981721456E+03  0.28665970614E+03  0.80051362047E+02 0.  0.
         -6    2    1    2    0  501 -0.41282651287E+02  0.34436183416E+02  0.42169201372E+03  0.45596917277E+03  0.16490489396E+03 0.  0.
        -24    2    5    5    0    0 -0.87784260136E+02  0.26333342206E+02  0.25309261761E+03  0.28082379878E+03  0.80041312025E+02 0.  0.
          5    1    3    3  502    0 -0.12825616212E+02 -0.40480409537E+02  0.44436553352E+01  0.42953417329E+02  0.47000000000E+01 0. -1.
        -11    1    4    4    0    0  0.57473904287E+02  0.25783565329E+02  0.12017543195E+03  0.13568410503E+03  0.00000000000E+00 0.  1.
         12    1    4    4    0    0 -0.33656367880E+01 -0.19739339208E+02  0.14964178262E+03  0.15097560110E+03  0.00000000000E+00 0. -1.
         -5    1    5    5    0  501  0.46501608848E+02  0.81028412095E+01  0.16859939611E+03  0.17514537399E+03  0.47000000000E+01 0.  1.
         11    1    6    6    0    0 -0.95746670759E+02  0.46606833350E+01  0.17681865343E+03  0.20113175565E+03  0.00000000000E+00 0. -1.
        -12    1    6    6    0    0  0.79624106238E+01  0.21672658871E+02  0.76273964183E+02  0.79692043127E+02  0.00000000000E+00 0.  1.
</event>
<event>
12    1  0.2625820E-002  0.2872915E+03  0.7818608E-02  0.1091772E+00
          2   -1    0    0  502    0  0.00000000000E+00  0.00000000000E+00  0.29349193179E+04  0.29349193179E+04  0.00000000000E+00 0. -1.
         -2   -1    0    0    0  501 -0.00000000000E+00 -0.00000000000E+00 -0.34301442044E+02  0.34301442044E+02  0.00000000000E+00 0.  1.
          6    2    1    2  502    0  0.21573489546E+03  0.82975253036E+02  0.20747323276E+04  0.20943420777E+04  0.16830944639E+03 0.  0.
         24    2    3    3    0    0  0.17701829575E+03  0.12098653200E+03  0.17733097875E+04  0.17880391719E+04  0.80518693816E+02 0.  0.
         -6    2    1    2    0  501 -0.21573489546E+03 -0.82975253036E+02  0.82588554826E+03  0.87487868219E+03  0.17291423305E+03 0.  0.
        -24    2    5    5    0    0 -0.14581323284E+03 -0.11086627648E+03  0.46211223658E+03  0.50336817038E+03  0.79239924451E+02 0.  0.
          5    1    3    3  502    0  0.38716599712E+02 -0.38011278966E+02  0.30142254009E+03  0.30630290580E+03  0.47000000000E+01 0. -1.
        -11    1    4    4    0    0  0.33870474612E+02  0.57765808636E+02  0.36794087953E+03  0.37398474370E+03  0.00000000000E+00 0.  1.
         12    1    4    4    0    0  0.14314782113E+03  0.63220723366E+02  0.14053689079E+04  0.14140544282E+04  0.00000000000E+00 0. -1.
         -5    1    5    5    0  501 -0.69921662617E+02  0.27891023441E+02  0.36377331168E+03  0.37151051180E+03  0.47000000000E+01 0.  1.
         11    1    6    6    0    0  0.12811812377E+01 -0.16551492906E+01  0.75664272279E+02  0.75693216632E+02  0.00000000000E+00 0. -1.
        -12    1    6    6    0    0 -0.14709441408E+03 -0.10921112719E+03  0.38644796430E+03  0.42767495375E+03  0.00000000000E+00 0.  1.
</event>
<event>
12    1  0.2625820E-002  0.1885225E+03  0.7818608E-02  0.1159801E+00
          2   -1    0    0  502    0  0.00000000000E+00  0.00000000000E+00  0.18723766112E+04  0.18723766112E+04  0.00000000000E+00 0.  1.
         -2   -1    0    0    0  501 -0.00000000000E+00 -0.00000000000E+00 -0.21223518172E+02  0.21223518172E+02  0.00000000000E+00 0. -1.
          6    2    1    2  502    0  0.26376434234E+02  0.74062733739E+02  0.12352951820E+04  0.12496669460E+04  0.17184959826E+03 0.  0.
         24    2    3    3    0    0  0.26808754564E+02  0.12490907532E+02  0.28528194233E+03  0.29764881474E+03  0.79588304447E+02 0.  0.
         -6    2    1    2    0  501 -0.26376434234E+02 -0.74062733739E+02  0.61585791109E+03  0.64393318344E+03  0.17084488074E+03 0.  0.
        -24    2    5    5    0    0 -0.23513545037E+02  0.17150091505E+02  0.29258745803E+03  0.30799591036E+03  0.91689954543E+02 0.  0.
          5    1    3    3  502    0 -0.43232032942E+00  0.61571826207E+02  0.95001323965E+03  0.95201813124E+03  0.47000000000E+01 0. -1.
        -13    1    4    4    0    0 -0.19785573856E+02 -0.42942423236E+01  0.18182482947E+03  0.18294856672E+03  0.00000000000E+00 0.  1.
         14    1    4    4    0    0  0.46594328420E+02  0.16785149856E+02  0.10345711286E+03  0.11470024803E+03  0.00000000000E+00 0. -1.
         -5    1    5    5    0  501 -0.28628891977E+01 -0.91212825245E+02  0.32327045306E+03  0.33593727308E+03  0.47000000000E+01 0.  1.
         13    1    6    6    0    0 -0.17535973629E+02  0.83252824525E+01  0.47807562944E+01  0.19991906607E+02  0.00000000000E+00 0. -1.
        -14    1    6    6    0    0 -0.59775714079E+01  0.88248090530E+01  0.28780670174E+03  0.28800400376E+03  0.00000000000E+00 0.  1.
</event>
<event>
12    1  0.2625820E-002  0.2519887E+03  0.7818608E-02  0.1112054E+00
          2   -1    0    0  502    0  0.00000000000E+00  0.00000000000E+00  0.16847790879E+04  0.16847790879E+04  0.00000000000E+00 0. -1.
         -2   -1    0    0    0  501 -0.00000000000E+00 -0.00000000000E+00 -0.61066786540E+02  0.61066786540E+02  0.00000000000E+00 0.  1.
          6    2    1    2  502    0 -0.13409223867E+03  0.12052207536E+03  0.13600764681E+04  0.13839948406E+04  0.18200939730E+03 0.  0.
         24    2    3    3    0    0  0.11347663708E+00  0.13782874960E+02  0.51844895051E+03  0.52506329546E+03  0.81927830689E+02 0.  0.
         -6    2    1    2    0  501  0.13409223867E+03 -0.12052207536E+03  0.26363583335E+03  0.36185103389E+03  0.17007650921E+03 0.  0.
        -24    2    5    5    0    0  0.15926989810E+03 -0.86329028607E+02  0.24789865760E+03  0.31632271654E+03  0.76070460357E+02 0.  0.
          5    1    3    3  502    0 -0.13420571531E+03  0.10673920040E+03  0.84162751755E+03  0.85893154513E+03  0.47000000000E+01 0. -1.
        -13    1    4    4    0    0 -0.96695554438E+01  0.21111778986E+02  0.50921409916E+03  0.50974327489E+03  0.00000000000E+00 0.  1.
         14    1    4    4    0    0  0.97830320809E+01 -0.73289040258E+01  0.92348513493E+01  0.15320020573E+02  0.00000000000E+00 0. -1.
         -5    1    5    5    0  501 -0.25177659429E+02 -0.34193046748E+02  0.15737175746E+02  0.45528317350E+02  0.47000000000E+01 0.  1.
         13    1    6    6    0    0  0.38575448774E+02 -0.62375982113E+02  0.87823413565E+02  0.11441931814E+03  0.00000000000E+00 0. -1.
        -14    1    6    6    0    0  0.12069444932E+03 -0.23953046495E+02  0.16007524404E+03  0.20190339840E+03  0.00000000000E+00 0.  1.
</event>
<event>
12    1  0.2625820E-002  0.1902401E+03  0.7818608E-02  0.1158245E+00
          3   -1    0    0  502    0  0.00000000000E+00  0.00000000000E+00  0.10017857225E+04  0.10017857225E+04  0.00000000000E+00 0.  1.
         -3   -1    0    0    0  501 -0.00000000000E+00 -0.00000000000E+00 -0.40253712317E+02  0.40253712317E+02  0.00000000000E+00 0. -1.
          6    2    1    2  502    0 -0.70942207083E+02 -0.39000851246E+02  0.31400579264E+03  0.36715395260E+03  0.17218746747E+03 0.  0.
         24    2    3    3    0    0 -0.90844050073E+02 -0.72382827568E+02  0.22038699472E+03  0.26567977351E+03  0.92322258695E+02 0.  0.
         -6    2    1    2    0  501  0.70942207083E+02  0.39000851246E+02  0.64752621750E+03  0.67488548218E+03  0.17212306225E+03 0.  0.
        -24    2    5    5    0    0  0.77160339972E+02 -0.26627173373E+02  0.29886353942E+03  0.32001444098E+03  0.80169213644E+02 0.  0.
          5    1    3    3  502    0  0.19901842990E+02  0.33381976322E+02  0.93618797922E+02  0.10147417909E+03  0.47000000000E+01 0. -1.
        -11    1    4    4    0    0  0.80009631540E+01 -0.35015008096E+02  0.95808492220E+02  0.10231976048E+03  0.00000000000E+00 0.  1.
         12    1    4    4    0    0 -0.98845013227E+02 -0.37367819472E+02  0.12457850250E+03  0.16336001303E+03  0.00000000000E+00 0. -1.
         -5    1    5    5    0  501 -0.62181328883E+01  0.65628024619E+02  0.34866267808E+03  0.35487104119E+03  0.47000000000E+01 0.  1.
         11    1    6    6    0    0  0.78858128592E+02 -0.14485680866E+02  0.14522652502E+03  0.16588906825E+03  0.00000000000E+00 0. -1.
        -12    1    6    6    0    0 -0.16977886203E+01 -0.12141492507E+02  0.15363701440E+03  0.15412537273E+03  0.00000000000E+00 0.  1.
</event>
<event>
12    1  0.2625820E-002  0.1877190E+03  0.7818608E-02  0.1160535E+00
          3   -1    0    0  502    0  0.00000000000E+00  0.00000000000E+00  0.28916528770E+03  0.28916528770E+03  0.00000000000E+00 0. -1.
         -3   -1    0    0    0  501 -0.00000000000E+00 -0.00000000000E+00 -0.14035773654E+03  0.14035773654E+03  0.00000000000E+00 0.  1.
          6    2    1    2  502    0 -0.46008274514E+02  0.58268013007E+02  0.15236856036E+03  0.24178645173E+03  0.17243139909E+03 0.  0.
         24    2    3    3    0    0  0.16715840139E+02  0.89690189249E+01  0.13986632290E+03  0.16089701288E+03  0.77235988108E+02 0.  0.
         -6    2    1    2    0  501  0.46008274514E+02 -0.58268013007E+02 -0.35610091931E+01  0.18773657251E+03  0.17239610555E+03 0.  0.
        -24    2    5    5    0    0  0.81569990554E+02 -0.76543489885E+02 -0.28050394136E+02  0.14061493546E+03  0.80455989596E+02 0.  0.
          5    1    3    3  502    0 -0.62724114652E+02  0.49298994082E+02  0.12502237454E+02  0.80889438852E+02  0.47000000000E+01 0. -1.
        -13    1    4    4    0    0  0.79733972522E+01 -0.30923722479E+02  0.30522863290E+02  0.44175749672E+02  0.00000000000E+00 0.  1.
         14    1    4    4    0    0  0.87424428864E+01  0.39892741404E+02  0.10934345961E+03  0.11672126321E+03  0.00000000000E+00 0. -1.
         -5    1    5    5    0  501 -0.35561716040E+02  0.18275476878E+02  0.24489384943E+02  0.47121637044E+02  0.47000000000E+01 0.  1.
         11    1    6    6    0    0  0.31685769033E+02 -0.78442328111E+02 -0.32203541761E+02  0.90522123819E+02  0.00000000000E+00 0. -1.
        -12    1    6    6    0    0  0.49884221522E+02  0.18988382263E+01  0.41531476249E+01  0.50092811646E+02  0.00000000000E+00 0.  1.
</event>
<event>
12    1  0.2625820E-002  0.2383701E+03  0.7818608E-02  0.1120883E+00
         -2   -1    0    0    0  501 -0.00000000000E+00  0.00000000000E+00  0.32575596727E+03  0.32575596727E+03  0.00000000000E+00 0.  1.
          2   -1    0    0  502    0  0.00000000000E+00 -0.00000000000E+00 -0.21128872013E+03  0.21128872013E+03  0.00000000000E+00 0. -1.
          6    2    1    2  502    0 -0.11581098362E+03 -0.10842319017E+03  0.16752252583E+03  0.28513420456E+03  0.16754087817E+03 0.  0.
         24    2    3    3    0    0 -0.51041038373E+02  0.28643926931E+01  0.10437104907E+03  0.14164110046E+03  0.80965999733E+02 0.  0.
         -6    2    1    2    0  501  0.11581098362E+03  0.10842319017E+03 -0.53055278694E+02  0.25191048284E+03  0.18835141803E+03 0.  0.
        -24    2    5    5    0    0  0.15560353755E+03  0.76515807481E+02 -0.18330771912E+02  0.19002825769E+03  0.75548605726E+02 0.  0.
          5    1    3    3  502    0 -0.64769945244E+02 -0.11128758287E+03  0.63151476765E+02  0.14349310410E+03  0.47000000000E+01 0. -1.
        -13    1    4    4    0    0  0.55414103666E+01 -0.29753934808E+02  0.37135059272E+02  0.47906330402E+02  0.00000000000E+00 0.  1.
         14    1    4    4    0    0 -0.56582448740E+02  0.32618327501E+02  0.67235989796E+02  0.93734770060E+02  0.00000000000E+00 0. -1.
         -5    1    5    5    0  501 -0.39792553934E+02  0.31907382692E+02 -0.34724506782E+02  0.61882225154E+02  0.47000000000E+01 0.  1.
         11    1    6    6    0    0  0.12729337697E+03  0.50435982206E+02 -0.43936237596E+02  0.14379772285E+03  0.00000000000E+00 0. -1.
        -12    1    6    6    0    0  0.28310160576E+02  0.26079825275E+02  0.25605465684E+02  0.46230534835E+02  0.00000000000E+00 0.  1.
</event>
<event>
12    1  0.2625820E-002  0.2174281E+03  0.7818608E-02  0.1135815E+00
          2   -1    0    0  502    0  0.00000000000E+00  0.00000000000E+00  0.71359045868E+03  0.71359045868E+03  0.00000000000E+00 0.  1.
         -2   -1    0    0    0  501 -0.00000000000E+00 -0.00000000000E+00 -0.82561864577E+02  0.82561864577E+02  0.00000000000E+00 0. -1.
          6    2    1    2  502    0  0.11290380877E+03  0.70691491490E+02  0.13892094178E+03  0.25827266294E+03  0.17222422406E+03 0.  0.
         24    2    3    3    0    0  0.14162212958E+03  0.61923279760E+02  0.14541693449E+03  0.22719354764E+03  0.81114136181E+02 0.  0.
         -6    2    1    2    0  501 -0.11290380877E+03 -0.70691491490E+02  0.49210765233E+03  0.53787966032E+03  0.17146437093E+03 0.  0.
        -24    2    5    5    0    0 -0.13361602855E+03 -0.23418059124E+02  0.34271437440E+03  0.37975244904E+03  0.91417348216E+02 0.  0.
          5    1    3    3  502    0 -0.28718320807E+02  0.87682117298E+01 -0.64959927094E+01  0.31079115306E+02  0.47000000000E+01 0. -1.
        -11    1    4    4    0    0  0.55554876563E+02 -0.70877788914E+01  0.83921954181E+02  0.10089338587E+03  0.00000000000E+00 0.  1.
         12    1    4    4    0    0  0.86067253018E+02  0.69011058651E+02  0.61494980306E+02  0.12630016176E+03  0.00000000000E+00 0. -1.
         -5    1    5    5    0  501  0.20712219777E+02 -0.47273432366E+02  0.14939327793E+03  0.15812721128E+03  0.47000000000E+01 0.  1.
         11    1    6    6    0    0 -0.47388972102E+02  0.90111381065E+01  0.37973456792E+02  0.61391356945E+02  0.00000000000E+00 0. -1.
        -12    1    6    6    0    0 -0.86227056448E+02 -0.32429197231E+02  0.30474091761E+03  0.31836109209E+03  0.00000000000E+00 0.  1.
</event>
<event>
12    1  0.2625820E-002  0.1714991E+03  0.7818608E-02  0.1176293E+00
          2   -1    0    0  502    0  0.00000000000E+00  0.00000000000E+00  0.11294180638E+03  0.11294180638E+03  0.00000000000E+00 0. -1.
         -2   -1    0    0    0  501 -0.00000000000E+00 -0.00000000000E+00 -0.31096588379E+03  0.31096588379E+03  0.00000000000E+00 0.  1.
          6    2    1    2  502    0  0.22341327399E+02  0.26451922940E+01 -0.18560136243E+03  0.25438781755E+03  0.17250844626E+03 0.  0.
         24    2    3    3    0    0  0.17942771866E+02  0.24515687727E+01 -0.13791791121E+02  0.82457588759E+02  0.79253310278E+02 0.  0.
         -6    2    1    2    0  501 -0.22341327399E+02 -0.26451922940E+01 -0.12422714978E+02  0.16951987262E+03  0.16756053059E+03 0.  0.
        -24    2    5    5    0    0  0.44755285454E+02 -0.31762277734E+02 -0.25819827257E+02  0.95012606270E+02  0.73135859930E+02 0.  0.
          5    1    3    3  502    0  0.43985555337E+01  0.19362352135E+00 -0.17180957130E+03  0.17193022879E+03  0.47000000000E+01 0. -1.
        -11    1    4    4    0    0 -0.91971850173E+01 -0.25880785046E+02 -0.29399223118E+02  0.40233289286E+02  0.00000000000E+00 0.  1.
         12    1    4    4    0    0  0.27139956883E+02  0.28332353818E+02  0.15607431997E+02  0.42224299474E+02  0.00000000000E+00 0. -1.
         -5    1    5    5    0  501 -0.67096612854E+02  0.29117085440E+02  0.13397112280E+02  0.74507266346E+02  0.47000000000E+01 0.  1.
         13    1    6    6    0    0 -0.17704083162E+02  0.56981180548E+01 -0.57226968253E+01  0.19458991981E+02  0.00000000000E+00 0. -1.
        -14    1    6    6    0    0  0.62459368616E+02 -0.37460395789E+02 -0.20097130432E+02  0.75553614289E+02  0.00000000000E+00 0.  1.
</event>
<event>
12    1  0.2625820E-002  0.5717569E+03  0.7818608E-02  0.9965798E-01
         -2   -1    0    0    0  501 -0.00000000000E+00  0.00000000000E+00  0.67161274417E+03  0.67161274417E+03  0.00000000000E+00 0. -1.
          2   -1    0    0  502    0  0.00000000000E+00 -0.00000000000E+00 -0.18736946805E+04  0.18736946805E+04  0.00000000000E+00 0.  1.
          6    2    1    2  502    0 -0.35244270399E+03  0.41572263645E+03 -0.16960426105E+04  0.17898939517E+04  0.17354725971E+03 0.  0.
         24    2    3    3    0    0 -0.20295924068E+03  0.14691949842E+03 -0.73220877208E+03  0.77816365608E+03  0.81432164072E+02 0.  0.
         -6    2    1    2    0  501  0.35244270399E+03 -0.41572263645E+03  0.49396067419E+03  0.75541347304E+03  0.17207904446E+03 0.  0.
        -24    2    5    5    0    0  0.15965832554E+03 -0.20060661748E+03  0.32214270691E+03  0.41928221583E+03  0.79296008749E+02 0.  0.
          5    1    3    3  502    0 -0.14948346331E+03  0.26880313803E+03 -0.96383383846E+03  0.10117302956E+04  0.47000000000E+01 0. -1.
        -13    1    4    4    0    0 -0.17254730570E+03  0.15294596809E+03 -0.67172507071E+03  0.71019688290E+03  0.00000000000E+00 0.  1.
         14    1    4    4    0    0 -0.30411934976E+02 -0.60264696687E+01 -0.60483701370E+02  0.67966773184E+02  0.00000000000E+00 0. -1.
         -5    1    5    5    0  501  0.19278437845E+03 -0.21511601897E+03  0.17181796729E+03  0.33613125721E+03  0.47000000000E+01 0.  1.
         11    1    6    6    0    0  0.10819281456E+03 -0.18529522225E+03  0.26226637480E+03  0.33885639415E+03  0.00000000000E+00 0. -1.
        -12    1    6    6    0    0  0.51465510982E+02 -0.15311395229E+02  0.59876332112E+02  0.80425821672E+02  0.00000000000E+00 0.  1.
</event>
<event>
12    1  0.2625820E-002  0.3885421E+03  0.7818608E-02  0.1047821E+00
          2   -1    0    0  502    0  0.00000000000E+00  0.00000000000E+00  0.23291939292E+04  0.23291939292E+04  0.00000000000E+00 0.  1.
         -2   -1    0    0    0  501 -0.00000000000E+00 -0.00000000000E+00 -0.89832839745E+02  0.89832839745E+02  0.00000000000E+00 0. -1.
          6    2    1    2  502    0  0.32892407110E+02 -0.34411550740E+03  0.47520463627E+03  0.61193992918E+03  0.17074436364E+03 0.  0.
         24    2    3    3    0    0  0.41195241437E+02 -0.13842126352E+03  0.29537241971E+03  0.33855233778E+03  0.80717562982E+02 0.  0.
         -6    2    1    2    0  501 -0.32892407110E+02  0.34411550740E+03  0.17641564531E+04  0.18070868397E+04  0.18389524806E+03 0.  0.
        -24    2    5    5    0    0  0.23183586453E+02  0.20667565604E+03  0.76781212716E+03  0.79973469886E+03  0.82388230085E+02 0.  0.
          5    1    3    3  502    0 -0.83028343270E+01 -0.20569424388E+03  0.17983221655E+03  0.27338759140E+03  0.47000000000E+01 0. -1.
        -13    1    4    4    0    0  0.28518674242E+02 -0.26726747045E+02  0.26763353374E+02  0.47369936373E+02  0.00000000000E+00 0.  1.
         14    1    4    4    0    0  0.12676567195E+02 -0.11169451648E+03  0.26860906634E+03  0.29118240140E+03  0.00000000000E+00 0. -1.
         -5    1    5    5    0  501 -0.56075993562E+02  0.13743985135E+03  0.99634432598E+03  0.10073521409E+04  0.47000000000E+01 0.  1.
         11    1    6    6    0    0 -0.38904001098E+01  0.17280592429E+03  0.68234332790E+03  0.70389590126E+03  0.00000000000E+00 0. -1.
        -12    1    6    6    0    0  0.27073986562E+02  0.33869731749E+02  0.85468799269E+02  0.95838797601E+02  0.00000000000E+00 0.  1.
</event>
<event>
12    1  0.2625820E-002  0.1867189E+03  0.7818608E-02  0.1161454E+00
         -1   -1    0    0    0  501 -0.00000000000E+00  0.00000000000E+00  0.89241616270E+03  0.89241616270E+03  0.00000000000E+00 0. -1.
          1   -1    0    0  502    0  0.00000000000E+00 -0.00000000000E+00 -0.40440643008E+02  0.40440643008E+02  0.00000000000E+00 0.  1.
          6    2    1    2  502    0  0.49297284083E+02 -0.51200118422E+02  0.33908138025E+03  0.38688511117E+03  0.17219823596E+03 0.  0.
         24    2    3    3    0    0  0.45946047621E+02 -0.92096734065E+02  0.30993004234E+03  0.33633163000E+03  0.80433118015E+02 0.  0.
         -6    2    1    2    0  501 -0.49297284083E+02  0.51200118422E+02  0.51289413944E+03  0.54597169453E+03  0.17312717469E+03 0.  0.
        -24    2    5    5    0    0 -0.11521226664E+02  0.42502804177E+02  0.49425984376E+03  0.50270507039E+03  0.80500730535E+02 0.  0.
          5    1    3    3  502    0  0.33512364611E+01  0.40896615642E+02  0.29151337906E+02  0.50553481171E+02  0.47000000000E+01 0. -1.
        -11    1    4    4    0    0 -0.30607095411E+00  0.66740119592E+01 -0.10664870360E+01  0.67656122900E+01  0.00000000000E+00 0.  1.
         12    1    4    4    0    0  0.46252118576E+02 -0.98770746024E+02  0.31099652938E+03  0.32956601771E+03  0.00000000000E+00 0. -1.
         -5    1    5    5    0  501 -0.37776057418E+02  0.86973142449E+01  0.18634295679E+02  0.43266624141E+02  0.47000000000E+01 0.  1.
         11    1    6    6    0    0 -0.18535530809E+02 -0.78313628333E+01  0.33343530526E+03  0.33404191195E+03  0.00000000000E+00 0. -1.
        -12    1    6    6    0    0  0.70143041443E+01  0.50334167011E+02  0.16082453850E+03  0.16866315844E+03  0.00000000000E+00 0.  1.
</event>
<event>
12    1  0.2625820E-002  0.2183941E+03  0.7818608E-02  0.1135086E+00
         -1   -1    0    0    0  501 -0.00000000000E+00  0.00000000000E+00  0.66013920241E+02  0.66013920241E+02  0.00000000000E+00 0.  1.
          1   -1    0    0  502    0  0.00000000000E+00 -0.00000000000E+00 -0.11300613038E+04  0.11300613038E+04  0.00000000000E+00 0. -1.
          6    2    1    2  502    0  0.19539004621E+02  0.13256157665E+03 -0.17358443468E+03  0.27932879671E+03  0.17302796422E+03 0.  0.
         24    2    3    3    0    0 -0.20323735178E+02  0.14838490383E+03 -0.10819135528E+03  0.20098493581E+03  0.79110310128E+02 0.  0.
         -6    2    1    2    0  501 -0.19539004621E+02 -0.13256157665E+03 -0.89046294889E+03  0.91674642734E+03  0.17188776684E+03 0.  0.
        -24    2    5    5    0    0 -0.57270252503E+02 -0.22464953112E+02 -0.37486846042E+03  0.38815898886E+03  0.79727549018E+02 0.  0.
          5    1    3    3  502    0  0.39862739799E+02 -0.15823327180E+02 -0.65393079400E+02  0.78343860900E+02  0.47000000000E+01 0. -1.
        -11    1    4    4    0    0  0.30217809091E+02  0.60844788688E+02 -0.49970942950E+02  0.84334449877E+02  0.00000000000E+00 0.  1.
         12    1    4    4    0    0 -0.50541544269E+02  0.87540115146E+02 -0.58220412329E+02  0.11665048593E+03  0.00000000000E+00 0. -1.
         -5    1    5    5    0  501  0.37731247881E+02 -0.11009662354E+03 -0.51559448847E+03  0.52858743849E+03  0.47000000000E+01 0.  1.
         13    1    6    6    0    0 -0.37382944638E+02 -0.33478705989E+02 -0.95635192080E+02  0.10800184382E+03  0.00000000000E+00 0. -1.
        -14    1    6    6    0    0 -0.19887307864E+02  0.11013752877E+02 -0.27923326834E+03  0.28015714504E+03  0.00000000000E+00 0.  1.
</event>
<event>
12    1  0.2625820E-002  0.1770312E+03  0.7818608E-02  0.1170708E+00
          2   -1    0    0  502    0  0.00000000000E+00  0.00000000000E+00  0.15580434583E+04  0.15580434583E+04  0.00000000000E+00 0.  1.
         -2   -1    0    0    0  501 -0.00000000000E+00 -0.00000000000E+00 -0.21535791287E+02  0.21535791287E+02  0.00000000000E+00 0. -1.
          6    2    1    2  502    0  0.40300937214E+02  0.15133826322E+02  0.56358501465E+03  0.59060109832E+03  0.17125533674E+03 0.  0.
         24    2    3    3    0    0  0.85317626247E+02  0.10622887308E+02  0.49228203030E+03  0.50602535452E+03  0.79549475042E+02 0.  0.
         -6    2    1    2    0  501 -0.40300937214E+02 -0.15133826322E+02  0.97292265240E+03  0.98897815131E+03  0.17218042270E+03 0.  0.
        -24    2    5    5    0    0 -0.26649420393E+02  0.54131386655E+02  0.44141664271E+03  0.45278344602E+03  0.80770030929E+02 0.  0.
          5    1    3    3  502    0 -0.45016689033E+02  0.45109390145E+01  0.71302984354E+02  0.84575743804E+02  0.47000000000E+01 0. -1.
        -13    1    4    4    0    0 -0.11474660544E+02 -0.11460049912E+02  0.10374442615E+03  0.10500431674E+03  0.00000000000E+00 0.  1.
         14    1    4    4    0    0  0.96792286790E+02  0.22082937220E+02  0.38853760415E+03  0.40102103777E+03  0.00000000000E+00 0. -1.
         -5    1    5    5    0  501 -0.13651516821E+02 -0.69265212978E+02  0.53150600969E+03  0.53619470529E+03  0.47000000000E+01 0.  1.
         13    1    6    6    0    0 -0.41320727111E+02  0.29497610229E+02  0.12282261684E+03  0.13290186870E+03  0.00000000000E+00 0. -1.
        -14    1    6    6    0    0  0.14671306718E+02  0.24633776426E+02  0.31859402588E+03  0.31988157732E+03  0.00000000000E+00 0.  1.
</event>
<event>
12    1  0.2625820E-002  0.1741186E+03  0.7818608E-02  0.1173620E+00
          2   -1    0    0  502    0  0.00000000000E+00  0.00000000000E+00  0.43334578328E+03  0.43334578328E+03  0.00000000000E+00 0.  1.
         -2   -1    0    0    0  501 -0.00000000000E+00 -0.00000000000E+00 -0.96985827319E+02  0.96985827319E+02  0.00000000000E+00 0. -1.
          6    2    1    2  502    0 -0.11232425637E+02  0.26351143024E+01  0.30995776861E+03  0.35683945622E+03  0.17642978202E+03 0.  0.
         24    2    3    3    0    0 -0.63486195120E+02  0.21649613288E+02  0.26654760197E+03  0.28613910146E+03  0.79553494821E+02 0.  0.
         -6    2    1    2    0  501  0.11232425637E+02 -0.26351143024E+01  0.26402187353E+02  0.17349215437E+03  0.17108284812E+03 0.  0.
        -24    2    5    5    0    0  0.46952447326E+02 -0.52164916700E+02  0.35012226076E+02  0.11164278864E+03  0.79451528847E+02 0.  0.
          5    1    3    3  502    0  0.52253769484E+02 -0.19014498986E+02  0.43410166632E+02  0.70700354765E+02  0.47000000000E+01 0. -1.
        -13    1    4    4    0    0 -0.12540616243E+02 -0.80663546029E+00  0.19536772754E+03  0.19577146544E+03  0.00000000000E+00 0.  1.
         14    1    4    4    0    0 -0.50945578878E+02  0.22456248748E+02  0.71179874440E+02  0.90367636022E+02  0.00000000000E+00 0. -1.
         -5    1    5    5    0  501 -0.35720021689E+02  0.49529802398E+02 -0.86100387231E+01  0.61849365735E+02  0.47000000000E+01 0.  1.
         13    1    6    6    0    0 -0.76499027578E+01  0.14925855713E+02  0.15780361430E+02  0.23028720933E+02  0.00000000000E+00 0. -1.
        -14    1    6    6    0    0  0.54602350084E+02 -0.67090772413E+02  0.19231864646E+02  0.88614067706E+02  0.00000000000E+00 0.  1.
</event>
<event>
12    1  0.2625820E-002  0.2240967E+03  0.7818608E-02  0.1130865E+00
         -2   -1    0    0    0  501 -0.00000000000E+00  0.00000000000E+00  0.24242830817E+03  0.24242830817E+03  0.00000000000E+00 0.  1.
          2   -1    0    0  502    0  0.00000000000E+00 -0.00000000000E+00 -0.71823411944E+03  0.71823411944E+03  0.00000000000E+00 0. -1.
          6    2    1    2  502    0 -0.11311193487E+03 -0.89254779914E+02 -0.64323362239E+03  0.68131002168E+03  0.17225889560E+03 0.  0.
         24    2    3    3    0    0  0.17114386101E+01 -0.64324436086E+02 -0.22378895056E+03  0.24569338762E+03  0.78378467875E+02 0.  0.
         -6    2    1    2    0  501  0.11311193487E+03  0.89254779914E+02  0.16742781112E+03  0.27935240594E+03  0.17101160551E+03 0.  0.
        -24    2    5    5    0    0  0.44220925470E+02  0.79307366358E+02  0.17010163192E+03  0.20953721039E+03  0.82012979151E+02 0.  0.
          5    1    3    3  502    0 -0.11482337348E+03 -0.24930343828E+02 -0.41944467183E+03  0.43561663406E+03  0.47000000000E+01 0. -1.
        -13    1    4    4    0    0 -0.41825376070E+01 -0.67218433229E+02 -0.93454023497E+02  0.11519316774E+03  0.00000000000E+00 0.  1.
         14    1    4    4    0    0  0.58939762171E+01  0.28939971431E+01 -0.13033492706E+03  0.13050021988E+03  0.00000000000E+00 0. -1.
         -5    1    5    5    0  501  0.68891009396E+02  0.99474135560E+01 -0.26738207909E+01  0.69815195550E+02  0.47000000000E+01 0.  1.
         13    1    6    6    0    0 -0.19024412211E+02  0.36534553680E+01  0.53107122475E+02  0.56530013742E+02  0.00000000000E+00 0. -1.
        -14    1    6    6    0    0  0.63245337682E+02  0.75653910990E+02  0.11699450944E+03  0.15300719665E+03  0.00000000000E+00 0.  1.
</event>
<event>
12    1  0.2625820E-002  0.2160233E+03  0.7818608E-02  0.1136883E+00
          1   -1    0    0  502    0  0.00000000000E+00  0.00000000000E+00  0.30200155456E+03  0.30200155456E+03  0.00000000000E+00 0.  1.
         -1   -1    0    0    0  501 -0.00000000000E+00 -0.00000000000E+00 -0.21840711116E+03  0.21840711116E+03  0.00000000000E+00 0. -1.
          6    2    1    2  502    0 -0.29477816845E+02  0.12699954403E+03  0.18248953330E+03  0.28259227411E+03  0.17192480262E+03 0.  0.
         24    2    3    3    0    0  0.30411363083E+02  0.48870933663E+02  0.14877839014E+03  0.17843218193E+03  0.79936318500E+02 0.  0.
         -6    2    1    2    0  501  0.29477816845E+02 -0.12699954403E+03 -0.98895089902E+02  0.23781639160E+03  0.17256468769E+03 0.  0.
        -24    2    5    5    0    0  0.38503844068E+02 -0.51397413341E+02  0.14085680717E+02  0.10149362805E+03  0.77319531992E+02 0.  0.
          5    1    3    3  502    0 -0.59889179928E+02  0.78128610363E+02  0.33711143164E+02  0.10416009218E+03  0.47000000000E+01 0. -1.
        -11    1    4    4    0    0 -0.27188724448E+02  0.18273209196E+02  0.58667843379E+02  0.67194142291E+02  0.00000000000E+00 0.  1.
         12    1    4    4    0    0  0.57600087531E+02  0.30597724467E+02  0.90110546760E+02  0.11123803964E+03  0.00000000000E+00 0. -1.
         -5    1    5    5    0  501 -0.90260272234E+01 -0.75602130685E+02 -0.11298077062E+03  0.13632276355E+03  0.47000000000E+01 0.  1.
         11    1    6    6    0    0  0.18485081205E+02 -0.56984153681E+02 -0.18627451659E+02  0.62736544001E+02  0.00000000000E+00 0. -1.
        -12    1    6    6    0    0  0.20018762863E+02  0.55867403401E+01  0.32713132376E+02  0.38757084050E+02  0.00000000000E+00 0.  1.
</event>
<event>
12    1  0.2625820E-002  0.1871548E+03  0.7818608E-02  0.1161053E+00
         -4   -1    0    0    0  501 -0.00000000000E+00  0.00000000000E+00  0.26794981598E+03  0.26794981598E+03  0.00000000000E+00 0. -1.
          4   -1    0    0  502    0  0.00000000000E+00 -0.00000000000E+00 -0.13296490965E+03  0.13296490965E+03  0.00000000000E+00 0.  1.
          6    2    1    2  502    0  0.73797465332E+02  0.22479221849E+02  0.93027208953E+02  0.20783476039E+03  0.16908531786E+03 0.  0.
         24    2    3    3    0    0  0.70684097290E+02 -0.46398891031E+02  0.43933616159E+02  0.12306354860E+03  0.77880521744E+02 0.  0.
         -6    2    1    2    0  501 -0.73797465332E+02 -0.22479221849E+02  0.41957697378E+02  0.19307996524E+03  0.17195360800E+03 0.  0.
        -24    2    5    5    0    0 -0.67430930261E+02  0.40592228321E+02  0.59534932405E+02  0.12712854534E+03  0.80141122455E+02 0.  0.
          5    1    3    3  502    0  0.31133680420E+01  0.68878112880E+02  0.49093592794E+02  0.84771211787E+02  0.47000000000E+01 0. -1.
        -11    1    4    4    0    0  0.18041605489E+02 -0.54725685211E+01 -0.22216428399E+02  0.29137917318E+02  0.00000000000E+00 0.  1.
         12    1    4    4    0    0  0.52642491801E+02 -0.40926322510E+02  0.66150044557E+02  0.93925631284E+02  0.00000000000E+00 0. -1.
         -5    1    5    5    0  501 -0.63665350708E+01 -0.63071450170E+02 -0.17577235028E+02  0.65951419898E+02  0.47000000000E+01 0.  1.
         11    1    6    6    0    0 -0.12687440542E+01 -0.17158391495E+02  0.29799615424E+02  0.34409841465E+02  0.00000000000E+00 0. -1.
        -12    1    6    6    0    0 -0.66162186207E+02  0.57750619816E+02  0.29735316981E+02  0.92718703878E+02  0.00000000000E+00 0.  1.
</event>
<event>
12    1  0.2625820E-002  0.2205580E+03  0.7818608E-02  0.1133468E+00
          2   -1    0    0  502    0  0.00000000000E+00  0.00000000000E+00  0.31228361523E+03  0.31228361523E+03  0.00000000000E+00 0.  1.
         -2   -1    0    0    0  501 -0.00000000000E+00 -0.00000000000E+00 -0.15580567102E+03  0.15580567102E+03  0.00000000000E+00 0. -1.
          6    2    1    2  502    0 -0.38446447808E+02  0.13071645195E+03  0.74763713776E+02  0.23220905752E+03  0.17252974624E+03 0.  0.
         24    2    3    3    0    0  0.62487138260E+01  0.66390899621E+02  0.10376145059E+03  0.14855265970E+03  0.82792850534E+02 0.  0.
         -6    2    1    2    0  501  0.38446447808E+02 -0.13071645195E+03  0.81714230432E+02  0.23588022872E+03  0.17434834868E+03 0.  0.
        -24    2    5    5    0    0  0.63029380077E+02 -0.12420388504E+03  0.11200172100E+03  0.19605365253E+03  0.80581271711E+02 0.  0.
          5    1    3    3  502    0 -0.44695161634E+02  0.64325552327E+02 -0.28997736815E+02  0.83656397819E+02  0.47000000000E+01 0. -1.
        -13    1    4    4    0    0 -0.30861065108E+02  0.13479535774E+02  0.10862847624E+02  0.35385091250E+02  0.00000000000E+00 0.  1.
         14    1    4    4    0    0  0.37109778934E+02  0.52911363847E+02  0.92898602967E+02  0.11316756845E+03  0.00000000000E+00 0. -1.
         -5    1    5    5    0  501 -0.24582932268E+02 -0.65125669068E+01 -0.30287490567E+02  0.39826576196E+02  0.47000000000E+01 0.  1.
         11    1    6    6    0    0 -0.11131310135E+02 -0.59964085523E+02  0.28965549357E+02  0.67517410107E+02  0.00000000000E+00 0. -1.
        -12    1    6    6    0    0  0.74160690212E+02 -0.64239799517E+02  0.83036171642E+02  0.12853624242E+03  0.00000000000E+00 0.  1.
</event>
<event>
12    1  0.2625820E-002  0.1928438E+03  0.7818608E-02  0.1155921E+00
          2   -1    0    0  502    0  0.00000000000E+00  0.00000000000E+00  0.16401226637E+03  0.16401226637E+03  0.00000000000E+00 0. -1.
         -2   -1    0    0    0  501 -0.00000000000E+00 -0.00000000000E+00 -0.23479021171E+03  0.23479021171E+03  0.00000000000E+00 0.  1.
          6    2    1    2  502    0 -0.38833503224E+02 -0.77738235473E+02  0.14124226439E+01  0.19345674235E+03  0.17283588168E+03 0.  0.
         24    2    3    3    0    0  0.38582269000E+02 -0.11890149497E+02 -0.13135927083E+02  0.90680691172E+02  0.80127823100E+02 0.  0.
         -6    2    1    2    0  501  0.38833503224E+02  0.77738235473E+02 -0.72190367979E+02  0.20534573573E+03  0.17147637658E+03 0.  0.
        -24    2    5    5    0    0 -0.43588408435E+02  0.26351345878E+02 -0.38103242072E+02  0.10230202609E+03  0.80121811672E+02 0.  0.
          5    1    3    3  502    0 -0.77415772224E+02 -0.65848085976E+02  0.14548349727E+02  0.10277605118E+03  0.47000000000E+01 0. -1.
        -11    1    4    4    0    0  0.13903947144E+02  0.32885501321E+02 -0.16728231407E+02  0.39428538767E+02  0.00000000000E+00 0.  1.
         12    1    4    4    0    0  0.24678321856E+02 -0.44775650818E+02  0.35923043236E+01  0.51252152405E+02  0.00000000000E+00 0. -1.
         -5    1    5    5    0  501  0.82421911659E+02  0.51386889595E+02 -0.34087125906E+02  0.10304370964E+03  0.47000000000E+01 0.  1.
         11    1    6    6    0    0 -0.12797557188E+02  0.34635992182E+02  0.15408489561E+02  0.40010635773E+02  0.00000000000E+00 0. -1.
        -12    1    6    6    0    0 -0.30790851247E+02 -0.82846463034E+01 -0.53511731633E+02  0.62291390314E+02  0.00000000000E+00 0.  1.
</event>
<event>
12    1  0.2625820E-002  0.1723018E+03  0.7818608E-02  0.1175469E+00
         -1   -1    0    0    0  501 -0.00000000000E+00  0.00000000000E+00  0.40377113141E+03  0.40377113141E+03  0.00000000000E+00 0.  1.
          1   -1    0    0  502    0  0.00000000000E+00 -0.00000000000E+00 -0.89043131187E+02  0.89043131187E+02  0.00000000000E+00 0. -1.
          6    2    1    2  502    0  0.16049778550E+01  0.23618292595E+01  0.26046755828E+03  0.31247836880E+03  0.17260135534E+03 0.  0.
         24    2    3    3    0    0  0.45905692262E+02  0.43520078144E+02  0.21435893651E+03  0.23629011676E+03  0.76693779627E+02 0.  0.
         -6    2    1    2    0  501 -0.16049778550E+01 -0.23618292595E+01  0.54260441945E+02  0.18033589379E+03  0.17195547342E+03 0.  0.
        -24    2    5    5    0    0 -0.27483712362E+02  0.47683012844E+02 -0.59924859605E+01  0.97712044680E+02  0.80515275746E+02 0.  0.
          5    1    3    3  502    0 -0.44300714407E+02 -0.41158248884E+02  0.46108621768E+02  0.76188252044E+02  0.47000000000E+01 0. -1.
        -13    1    4    4    0    0  0.39390467018E+02  0.34472622978E+00  0.16819970706E+03  0.17275088765E+03  0.00000000000E+00 0.  1.
         14    1    4    4    0    0  0.65152252436E+01  0.43175351914E+02  0.46159229450E+02  0.63539229113E+02  0.00000000000E+00 0. -1.
         -5    1    5    5    0  501  0.25878734507E+02 -0.50044842104E+02  0.60252927906E+02  0.82623849112E+02  0.47000000000E+01 0.  1.
         13    1    6    6    0    0 -0.15846095210E+02  0.46742402927E+02 -0.38869457504E+02  0.62823448580E+02  0.00000000000E+00 0. -1.
        -14    1    6    6    0    0 -0.11637617152E+02  0.94060991761E+00  0.32876971544E+02  0.34888596101E+02  0.00000000000E+00 0.  1.
</event>
<event>
12    1  0.2625820E-002  0.1868473E+03  0.7818608E-02  0.1161336E+00
          2   -1    0    0  502    0  0.00000000000E+00  0.00000000000E+00  0.14813052636E+03  0.14813052636E+03  0.00000000000E+00 0. -1.
         -2   -1    0    0    0  501 -0.00000000000E+00 -0.00000000000E+00 -0.23582437820E+03  0.23582437820E+03  0.00000000000E+00 0.  1.
          6    2    1    2  502    0 -0.62054126580E+02  0.46048607088E+02 -0.39036626620E+02  0.18968184691E+03  0.16877249773E+03 0.  0.
         24    2    3    3    0    0 -0.21204841322E+00 -0.33986359503E+02 -0.90222939682E+01  0.84074135672E+02  0.76367145447E+02 0.  0.
         -6    2    1    2    0  501  0.62054126580E+02 -0.46048607088E+02 -0.48657225220E+02  0.19427305765E+03  0.17147392374E+03 0.  0.
        -24    2    5    5    0    0  0.51260646017E+02  0.19133118902E+01  0.34354552915E+02  0.97681700875E+02  0.75697851934E+02 0.  0.
          5    1    3    3  502    0 -0.61842078167E+02  0.80034966591E+02 -0.30014332652E+02  0.10560771124E+03  0.47000000000E+01 0. -1.
        -11    1    4    4    0    0 -0.26393328662E+02 -0.11512416371E+02 -0.31668271544E+02  0.42802137226E+02  0.00000000000E+00 0.  1.
         12    1    4    4    0    0  0.26181280248E+02 -0.22473943132E+02  0.22645977576E+02  0.41271998446E+02  0.00000000000E+00 0. -1.
         -5    1    5    5    0  501  0.10793480563E+02 -0.47961918978E+02 -0.83011778135E+02  0.96591356776E+02  0.47000000000E+01 0.  1.
         11    1    6    6    0    0  0.21864799573E+02  0.25576070855E+02 -0.13914911745E+02  0.36411943502E+02  0.00000000000E+00 0. -1.
        -12    1    6    6    0    0  0.29395846444E+02 -0.23662758965E+02  0.48269464659E+02  0.61269757373E+02  0.00000000000E+00 0.  1.
</event>
<event>
12    1  0.2625820E-002  0.2100997E+03  0.7818608E-02  0.1141487E+00
          2   -1    0    0  502    0  0.00000000000E+00  0.00000000000E+00  0.13808224182E+04  0.13808224182E+04  0.00000000000E+00 0. -1.
         -2   -1    0    0    0  501 -0.00000000000E+00 -0.00000000000E+00 -0.33499797292E+02  0.33499797292E+02  0.00000000000E+00 0.  1.
          6    2    1    2  502    0  0.21869390981E+02 -0.11795285510E+03  0.82516975071E+03  0.85151989161E+03  0.17259739867E+03 0.  0.
         24    2    3    3    0    0  0.10561144888E+02 -0.89378806696E+02  0.80593551757E+03  0.81496310843E+03  0.80825124487E+02 0.  0.
         -6    2    1    2    0  501 -0.21869390981E+02  0.11795285510E+03  0.52215287021E+03  0.56280232390E+03  0.17237079111E+03 0.  0.
        -24    2    5    5    0    0 -0.61774661612E+02  0.17798120887E+02  0.25690694077E+03  0.27644434079E+03  0.79293224237E+02 0.  0.
          5    1    3    3  502    0  0.11308246093E+02 -0.28574048404E+02  0.19234233140E+02  0.36556783179E+02  0.47000000000E+01 0. -1.
        -13    1    4    4    0    0 -0.28730854303E+01  0.15224926177E+02  0.10671811575E+03  0.10783695668E+03  0.00000000000E+00 0.  1.
         14    1    4    4    0    0  0.13434230318E+02 -0.10460373287E+03  0.69921740183E+03  0.70712615175E+03  0.00000000000E+00 0. -1.
         -5    1    5    5    0  501  0.39905270631E+02  0.10015473421E+03  0.26524592943E+03  0.28635798311E+03  0.47000000000E+01 0.  1.
         11    1    6    6    0    0  0.11641528412E+01  0.14284755906E+02  0.16124456220E+03  0.16188025928E+03  0.00000000000E+00 0. -1.
        -12    1    6    6    0    0 -0.62938814453E+02  0.35133649808E+01  0.95662378571E+02  0.11456408151E+03  0.00000000000E+00 0.  1.
</event>
<event>
12    1  0.2625820E-002  0.1897704E+03  0.7818608E-02  0.1158669E+00
          4   -1    0    0  502    0  0.00000000000E+00  0.00000000000E+00  0.48986824020E+02  0.48986824020E+02  0.00000000000E+00 0. -1.
         -4   -1    0    0    0  501 -0.00000000000E+00 -0.00000000000E+00 -0.74687955245E+03  0.74687955245E+03  0.00000000000E+00 0.  1.
          6    2    1    2  502    0 -0.34680338698E+02  0.72088248710E+02 -0.29846793301E+03  0.35350496274E+03  0.17170675629E+03 0.  0.
         24    2    3    3    0    0  0.29900728244E+02  0.35426794611E+02 -0.85541306292E+02  0.12795094529E+03  0.83096437906E+02 0.  0.
         -6    2    1    2    0  501  0.34680338698E+02 -0.72088248710E+02 -0.39942479542E+03  0.44236141373E+03  0.17246452291E+03 0.  0.
        -24    2    5    5    0    0  0.34011799953E+02 -0.10982588300E+03 -0.23339744223E+03  0.27203306026E+03  0.79429797458E+02 0.  0.
          5    1    3    3  502    0 -0.64581066941E+02  0.36661454099E+02 -0.21292662672E+03  0.22555401745E+03  0.47000000000E+01 0. -1.
        -13    1    4    4    0    0  0.38295816593E+02 -0.17048538477E+02 -0.34947840967E+02  0.54576311903E+02  0.00000000000E+00 0.  1.
         14    1    4    4    0    0 -0.83950883487E+01  0.52475333088E+02 -0.50593465325E+02  0.73374633387E+02  0.00000000000E+00 0. -1.
         -5    1    5    5    0  501  0.66853874450E+00  0.37737634288E+02 -0.16602735319E+03  0.17032835347E+03  0.47000000000E+01 0.  1.
         13    1    6    6    0    0  0.22971422799E+02 -0.11907246912E+03 -0.18234042834E+03  0.21898395141E+03  0.00000000000E+00 0. -1.
        -14    1    6    6    0    0  0.11040377154E+02  0.92465861251E+01 -0.51057013883E+02  0.53049108846E+02  0.00000000000E+00 0.  1.
</event>
<event>
12    1  0.2625820E-002  0.1961480E+03  0.7818608E-02  0.1153030E+00
         -2   -1    0    0    0  501 -0.00000000000E+00  0.00000000000E+00  0.16399092059E+02  0.16399092059E+02  0.00000000000E+00 0.  1.
          2   -1    0    0  502    0  0.00000000000E+00 -0.00000000000E+00 -0.30460928312E+04  0.30460928312E+04  0.00000000000E+00 0. -1.
          6    2    1    2  502    0  0.27649094832E+01  0.95242585764E+02 -0.77482221220E+03  0.79901686706E+03  0.17029297831E+03 0.  0.
         24    2    3    3    0    0  0.19625148741E+01  0.10941610558E+03 -0.38264960859E+03  0.40655925977E+03  0.83029953176E+02 0.  0.
         -6    2    1    2    0  501 -0.27649094832E+01 -0.95242585764E+02 -0.22548715269E+04  0.22634750562E+04  0.17261208577E+03 0.  0.
        -24    2    5    5    0    0 -0.31902464727E+01 -0.90600130925E+02 -0.22534140896E+04  0.22566966034E+04  0.81153799292E+02 0.  0.
          5    1    3    3  502    0  0.80239460913E+00 -0.14173519812E+02 -0.39217260361E+03  0.39245760730E+03  0.47000000000E+01 0. -1.
        -11    1    4    4    0    0  0.29612758455E+02  0.10494423639E+03 -0.29281305040E+03  0.31245750223E+03  0.00000000000E+00 0.  1.
         12    1    4    4    0    0 -0.27650243581E+02  0.44718691812E+01 -0.89836558191E+02  0.94101757537E+02  0.00000000000E+00 0. -1.
         -5    1    5    5    0  501  0.42533698949E+00 -0.46424548387E+01 -0.14574373023E+01  0.67784527714E+01  0.47000000000E+01 0.  1.
         11    1    6    6    0    0 -0.32974153105E+02 -0.97301450736E+01 -0.78924545764E+03  0.78999390055E+03  0.00000000000E+00 0. -1.
        -12    1    6    6    0    0  0.29783906632E+02 -0.80869985852E+02 -0.14641686320E+04  0.14667027029E+04  0.00000000000E+00 0.  1.
</event>
<event>
12    1  0.2625820E-002  0.4033865E+03  0.7818608E-02  0.1042613E+00
         -2   -1    0    0    0  501 -0.00000000000E+00  0.00000000000E+00  0.10499773899E+03  0.10499773899E+03  0.00000000000E+00 0. -1.
          2   -1    0    0  502    0  0.00000000000E+00 -0.00000000000E+00 -0.15644821494E+04  0.15644821494E+04  0.00000000000E+00 0.  1.
          6    2    1    2  502    0  0.36215037061E+03 -0.47769800227E+02 -0.81040443286E+03  0.90516767792E+03  0.17069954776E+03 0.  0.
         24    2    3    3    0    0  0.18662883896E+03  0.22613692688E+02 -0.52274075754E+03  0.56087982707E+03  0.77372980977E+02 0.  0.
         -6    2    1    2    0  501 -0.36215037061E+03  0.47769800227E+02 -0.64907997754E+03  0.76431221047E+03  0.17156192198E+03 0.  0.
        -24    2    5    5    0    0 -0.10241771906E+03  0.61142645117E+02 -0.25561325654E+03  0.29263643856E+03  0.77911077700E+02 0.  0.
          5    1    3    3  502    0  0.17552153165E+03 -0.70383492915E+02 -0.28766367532E+03  0.34428785085E+03  0.47000000000E+01 0. -1.
        -13    1    4    4    0    0  0.91224735474E+02  0.46860110552E+02 -0.30866542726E+03  0.32525708034E+03  0.00000000000E+00 0.  1.
         14    1    4    4    0    0  0.95404103482E+02 -0.24246417864E+02 -0.21407533028E+03  0.23562274673E+03  0.00000000000E+00 0. -1.
         -5    1    5    5    0  501 -0.25973265155E+03 -0.13372844890E+02 -0.39346672101E+03  0.47167577190E+03  0.47000000000E+01 0.  1.
         13    1    6    6    0    0 -0.10774699192E+03  0.66898360543E+02 -0.25496393565E+03  0.28476554110E+03  0.00000000000E+00 0. -1.
        -14    1    6    6    0    0  0.53292728627E+01 -0.57557154258E+01 -0.64932088111E+00  0.78708974656E+01  0.00000000000E+00 0.  1.
</event>
<event>
12    1  0.2625820E-002  0.2019659E+03  0.7818608E-02  0.1148091E+00
         -2   -1    0    0    0  501 -0.00000000000E+00  0.00000000000E+00  0.69574656531E+02  0.69574656531E+02  0.00000000000E+00 0.  1.
          2   -1    0    0  502    0  0.00000000000E+00 -0.00000000000E+00 -0.60126442462E+03  0.60126442462E+03  0.00000000000E+00 0. -1.
          6    2    1    2  502    0 -0.10396419936E+03  0.73735731768E+01 -0.21172470705E+03  0.29196624650E+03  0.17191280695E+03 0.  0.
         24    2    3    3    0    0 -0.10790438116E+03  0.58628842161E+02 -0.13599197321E+03  0.20031383461E+03  0.80938982902E+02 0.  0.
         -6    2    1    2    0  501  0.10396419936E+03 -0.73735731768E+01 -0.31996506104E+03  0.37887283464E+03  0.17408061413E+03 0.  0.
        -24    2    5    5    0    0  0.82666321937E+02  0.48343259440E+02 -0.13170794314E+03  0.18133600906E+03  0.79780789555E+02 0.  0.
          5    1    3    3  502    0  0.39401817947E+01 -0.51255268984E+02 -0.75732733843E+02  0.91652411897E+02  0.47000000000E+01 0. -1.
        -13    1    4    4    0    0 -0.67871608827E+02 -0.77458967646E+01 -0.76797040231E+02  0.10278297325E+03  0.00000000000E+00 0.  1.
         14    1    4    4    0    0 -0.40032772329E+02  0.66374738925E+02 -0.59194932975E+02  0.97530861360E+02  0.00000000000E+00 0. -1.
         -5    1    5    5    0  501  0.21297877424E+02 -0.55716832617E+02 -0.18825711790E+03  0.19753682558E+03  0.47000000000E+01 0.  1.
         11    1    6    6    0    0  0.40570334575E+01  0.33324239422E+02 -0.78100567934E+02  0.85009782761E+02  0.00000000000E+00 0. -1.
        -12    1    6    6    0    0  0.78609288479E+02  0.15019020019E+02 -0.53607375202E+02  0.96326226302E+02  0.00000000000E+00 0.  1.
</event>
<event>
12    1  0.2625820E-002  0.1907700E+03  0.7818608E-02  0.1157769E+00
         -1   -1    0    0    0  501 -0.00000000000E+00  0.00000000000E+00  0.31832743226E+02  0.31832743226E+02  0.00000000000E+00 0. -1.
          1   -1    0    0  502    0  0.00000000000E+00 -0.00000000000E+00 -0.11481896202E+04  0.11481896202E+04  0.00000000000E+00 0.  1.
          6    2    1    2  502    0  0.23672492331E+01  0.84191700783E+02 -0.59434184505E+03  0.62395679716E+03  0.17025278144E+03 0.  0.
         24    2    3    3    0    0 -0.51082339877E+02  0.91168878858E+02 -0.47536339013E+03  0.49325292451E+03  0.80043269170E+02 0.  0.
         -6    2    1    2    0  501 -0.23672492331E+01 -0.84191700783E+02 -0.52201503188E+03  0.55606556623E+03  0.17209117957E+03 0.  0.
        -24    2    5    5    0    0  0.73840139322E+01  0.20343490274E+02 -0.16705968501E+03  0.18587901653E+03  0.78572827192E+02 0.  0.
          5    1    3    3  502    0  0.53449589111E+02 -0.69771780751E+01 -0.11897845492E+03  0.13070387265E+03  0.47000000000E+01 0. -1.
        -13    1    4    4    0    0 -0.38616796205E+02  0.13046307864E+02 -0.77134914597E+02  0.87242524883E+02  0.00000000000E+00 0.  1.
         14    1    4    4    0    0 -0.12465543672E+02  0.78122570995E+02 -0.39822847553E+03  0.40601039962E+03  0.00000000000E+00 0. -1.
         -5    1    5    5    0  501 -0.97512631654E+01 -0.10453519106E+03 -0.35495534687E+03  0.37018654970E+03  0.47000000000E+01 0.  1.
         13    1    6    6    0    0 -0.18745713510E+02 -0.21479582052E+02 -0.36487437107E+02  0.46304506117E+02  0.00000000000E+00 0. -1.
        -14    1    6    6    0    0  0.26129727443E+02  0.41823072326E+02 -0.13057224790E+03  0.13957451041E+03  0.00000000000E+00 0.  1.
</event>
<event>
12    1  0.2625820E-002  0.3511861E+03  0.7818608E-02  0.1062129E+00
         -2   -1    0    0    0  501 -0.00000000000E+00  0.00000000000E+00  0.11271923923E+03  0.11271923923E+03  0.00000000000E+00 0. -1.
          2   -1    0    0  502    0  0.00000000000E+00 -0.00000000000E+00 -0.11038422806E+04  0.11038422806E+04  0.00000000000E+00 0.  1.
          6    2    1    2  502    0 -0.30326655838E+03  0.69341861328E+02 -0.55784817679E+03  0.66138962374E+03  0.17164715811E+03 0.  0.
         24    2    3    3    0    0 -0.31460017253E+03  0.44807993448E+02 -0.51681071055E+03  0.61202845360E+03  0.80650434871E+02 0.  0.
         -6    2    1    2    0  501  0.30326655838E+03 -0.69341861328E+02 -0.43327486463E+03  0.55517189614E+03  0.15397995577E+03 0.  0.
        -24    2    5    5    0    0  0.24100829207E+03 -0.37769003587E+02 -0.24760048512E+03  0.35675314129E+03  0.80344938297E+02 0.  0.
          5    1    3    3  502    0  0.11333614147E+02  0.24533867880E+02 -0.41037466237E+02  0.49361170144E+02  0.47000000000E+01 0. -1.
        -13    1    4    4    0    0  0.10765678745E+01  0.31838029074E+01 -0.30926778858E+02  0.31108861276E+02  0.00000000000E+00 0.  1.
         14    1    4    4    0    0 -0.31567674040E+03  0.41624190541E+02 -0.48588393169E+03  0.58091959232E+03  0.00000000000E+00 0. -1.
         -5    1    5    5    0  501  0.62258266313E+02 -0.31572857742E+02 -0.18567437951E+03  0.19841875485E+03  0.47000000000E+01 0.  1.
         11    1    6    6    0    0  0.18970289866E+03 -0.62523607560E+02 -0.19737357585E+03  0.28080726434E+03  0.00000000000E+00 0. -1.
        -12    1    6    6    0    0  0.51305393402E+02  0.24754603973E+02 -0.50226909270E+02  0.75945876944E+02  0.00000000000E+00 0.  1.
</event>
<event>
12    1  0.2625820E-002  0.2713788E+03  0.7818608E-02  0.1100493E+00
         -2   -1    0    0    0  501 -0.00000000000E+00  0.00000000000E+00  0.86052362533E+02  0.86052362533E+02  0.00000000000E+00 0. -1.
          2   -1    0    0  502    0  0.00000000000E+00 -0.00000000000E+00 -0.85826821494E+03  0.85826821494E+03  0.00000000000E+00 0.  1.
          6    2    1    2  502    0  0.10865921641E+03 -0.17982388865E+03 -0.41142250898E+03  0.49292795961E+03  0.17194777180E+03 0.  0.
         24    2    3    3    0    0  0.66337677828E+02 -0.24627990494E+02 -0.20851612975E+03  0.23394925746E+03  0.79031976357E+02 0.  0.
         -6    2    1    2    0  501 -0.10865921641E+03  0.17982388865E+03 -0.36079334343E+03  0.45139261787E+03  0.17158089220E+03 0.  0.
        -24    2    5    5    0    0 -0.96831149828E+02  0.41813021185E+02 -0.16230061860E+03  0.20930099367E+03  0.79629233556E+02 0.  0.
          5    1    3    3  502    0  0.42321538578E+02 -0.15519589815E+03 -0.20290637924E+03  0.25897870215E+03  0.47000000000E+01 0. -1.
        -11    1    4    4    0    0  0.65024968861E+02 -0.16462484890E+02 -0.21384007719E+03  0.22411345028E+03  0.00000000000E+00 0.  1.
         12    1    4    4    0    0  0.13127089670E+01 -0.81655056036E+01  0.53239474406E+01  0.98358071832E+01  0.00000000000E+00 0. -1.
         -5    1    5    5    0  501 -0.11828066578E+02  0.13801086746E+03 -0.19849272483E+03  0.24209162419E+03  0.47000000000E+01 0.  1.
         13    1    6    6    0    0 -0.53457013824E+02  0.36325635966E+02 -0.32514874930E+02  0.72349300252E+02  0.00000000000E+00 0. -1.
        -14    1    6    6    0    0 -0.43374136004E+02  0.54873852192E+01 -0.12978574367E+03  0.13695169342E+03  0.00000000000E+00 0.  1.
</event>
<event>
12    1  0.2625820E-002  0.2760117E+03  0.7818608E-02  0.1097887E+00
         -2   -1    0    0    0  501 -0.00000000000E+00  0.00000000000E+00  0.15905451618E+03  0.15905451618E+03  0.00000000000E+00 0. -1.
          2   -1    0    0  502    0  0.00000000000E+00 -0.00000000000E+00 -0.47958792138E+03  0.47958792138E+03  0.00000000000E+00 0.  1.
          6    2    1    2  502    0 -0.15958680044E+03 -0.14578093326E+03 -0.14902854417E+03  0.31399195559E+03  0.17222489315E+03 0.  0.
         24    2    3    3    0    0 -0.39813223589E+02 -0.14635974842E+02 -0.49251937814E+02  0.11022205839E+03  0.89015977468E+02 0.  0.
         -6    2    1    2    0  501  0.15958680044E+03  0.14578093326E+03 -0.17150486103E+03  0.32465048197E+03  0.17106721108E+03 0.  0.
        -24    2    5    5    0    0  0.15273417694E+02  0.92583097409E+02 -0.54444077998E+02  0.13130705926E+03  0.73976205425E+02 0.  0.
          5    1    3    3  502    0 -0.11977357685E+03 -0.13114495842E+03 -0.99776606357E+02  0.20376989721E+03  0.47000000000E+01 0. -1.
        -13    1    4    4    0    0 -0.79135375412E+01  0.85579052964E+01  0.24194508830E+02  0.26855838788E+02  0.00000000000E+00 0.  1.
         14    1    4    4    0    0 -0.31899686047E+02 -0.23193880139E+02 -0.73446446644E+02  0.83366219600E+02  0.00000000000E+00 0. -1.
         -5    1    5    5    0  501  0.14431338275E+03  0.53197835853E+02 -0.11706078303E+03  0.19334342271E+03  0.47000000000E+01 0.  1.
         11    1    6    6    0    0  0.63719875969E+01  0.94081218437E+01  0.17573181768E+02  0.20926817723E+02  0.00000000000E+00 0. -1.
        -12    1    6    6    0    0  0.89014300970E+01  0.83174975565E+02 -0.72017259766E+02  0.11038024154E+03  0.00000000000E+00 0.  1.
</event>
<event>
12    1  0.2625820E-002  0.1717785E+03  0.7818608E-02  0.1176006E+00
          1   -1    0    0  502    0  0.00000000000E+00  0.00000000000E+00  0.51227085195E+02  0.51227085195E+02  0.00000000000E+00 0.  1.
         -1   -1    0    0    0  501 -0.00000000000E+00 -0.00000000000E+00 -0.61127793953E+03  0.61127793953E+03  0.00000000000E+00 0. -1.
          6    2    1    2  502    0 -0.25824316006E+01  0.10161499658E+02 -0.19962419383E+03  0.26299684687E+03  0.17090230447E+03 0.  0.
         24    2    3    3    0    0 -0.45422176127E+02 -0.63125721237E+00 -0.46810444010E+02  0.10385584196E+03  0.80816122589E+02 0.  0.
         -6    2    1    2    0  501  0.25824316006E+01 -0.10161499658E+02 -0.36042666051E+03  0.39950817786E+03  0.17201593397E+03 0.  0.
        -24    2    5    5    0    0 -0.38242357262E+01 -0.19383074007E+02 -0.37309409175E+03  0.38194012066E+03  0.79301488834E+02 0.  0.
          5    1    3    3  502    0  0.42839744526E+02  0.10792756871E+02 -0.15281374982E+03  0.15914100491E+03  0.47000000000E+01 0. -1.
        -13    1    4    4    0    0  0.19305001256E+02  0.73761045984E+00 -0.32098175280E+02  0.37463582304E+02  0.00000000000E+00 0.  1.
         14    1    4    4    0    0 -0.64727177383E+02 -0.13688676722E+01 -0.14712268730E+02  0.66392259653E+02  0.00000000000E+00 0. -1.
         -5    1    5    5    0  501  0.64066673268E+01  0.92215743488E+01  0.12667431238E+02  0.17568057203E+02  0.47000000000E+01 0.  1.
         11    1    6    6    0    0  0.31508384784E+02  0.98690350726E+01 -0.20749172289E+03  0.21010233515E+03  0.00000000000E+00 0. -1.
        -12    1    6    6    0    0 -0.35332620511E+02 -0.29252109080E+02 -0.16560236886E+03  0.17183778551E+03  0.00000000000E+00 0.  1.
</event>
<event>
12    1  0.2625820E-002  0.1817333E+03  0.7818608E-02  0.1166136E+00
         -4   -1    0    0    0  501 -0.00000000000E+00  0.00000000000E+00  0.16781029136E+03  0.16781029136E+03  0.00000000000E+00 0.  1.
          4   -1    0    0  502    0  0.00000000000E+00 -0.00000000000E+00 -0.95177494696E+03  0.95177494696E+03  0.00000000000E+00 0. -1.
          6    2    1    2  502    0  0.28957473637E+02 -0.50399211363E+02  0.10669764884E+03  0.21052023993E+03  0.17191790880E+03 0.  0.
         24    2    3    3    0    0 -0.23084733558E+01 -0.43567767193E+02 -0.85714533071E+01  0.90798546068E+02  0.79167081346E+02 0.  0.
         -6    2    1    2    0  501 -0.28957473637E+02  0.50399211363E+02 -0.89066230444E+03  0.90906499840E+03  0.17245641468E+03 0.  0.
        -24    2    5    5    0    0 -0.56618160286E+02  0.75276490976E+02 -0.81999729442E+03  0.82906733426E+03  0.78005869646E+02 0.  0.
          5    1    3    3  502    0  0.31265946992E+02 -0.68314441704E+01  0.11526910215E+03  0.11972169386E+03  0.47000000000E+01 0. -1.
        -11    1    4    4    0    0  0.12555226179E+02 -0.47603689765E+02  0.23999416174E+02  0.54769671903E+02  0.00000000000E+00 0.  1.
         12    1    4    4    0    0 -0.14863699535E+02  0.40359225727E+01 -0.32570869481E+02  0.36028874165E+02  0.00000000000E+00 0. -1.
         -5    1    5    5    0  501  0.27660686649E+02 -0.24877279613E+02 -0.70665010020E+02  0.79997664140E+02  0.47000000000E+01 0.  1.
         13    1    6    6    0    0 -0.30891165618E+02  0.43376851799E+02 -0.70459419922E+03  0.70660370857E+03  0.00000000000E+00 0. -1.
        -14    1    6    6    0    0 -0.25726994668E+02  0.31899639176E+02 -0.11540309520E+03  0.12246362568E+03  0.00000000000E+00 0.  1.
</event>
<event>
12    1  0.2625820E-002  0.1752948E+03  0.7818608E-02  0.1172436E+00
          1   -1    0    0  502    0  0.00000000000E+00  0.00000000000E+00  0.32428442190E+03  0.32428442190E+03  0.00000000000E+00 0. -1.
         -1   -1    0    0    0  501 -0.00000000000E+00 -0.00000000000E+00 -0.96214020731E+02  0.96214020731E+02  0.00000000000E+00 0.  1.
          6    2    1    2  502    0  0.20861068776E+02 -0.16313197026E+01  0.13832831845E+03  0.22155420704E+03  0.17179551094E+03 0.  0.
         24    2    3    3    0    0  0.57781212177E+02  0.48593754227E+02  0.78838281805E+02  0.13525930859E+03  0.79872300900E+02 0.  0.
         -6    2    1    2    0  501 -0.20861068776E+02  0.16313197026E+01  0.89742082727E+02  0.19894423559E+03  0.17631597224E+03 0.  0.
        -24    2    5    5    0    0  0.96576275116E+01 -0.62372672403E+02  0.63274284172E+02  0.12311194571E+03  0.84671696019E+02 0.  0.
          5    1    3    3  502    0 -0.36920143401E+02 -0.50225073929E+02  0.59490036640E+02  0.86294898455E+02  0.47000000000E+01 0. -1.
        -11    1    4    4    0    0 -0.21702746550E+01  0.80740493407E+01 -0.14753001340E+02  0.16957340987E+02  0.00000000000E+00 0.  1.
         12    1    4    4    0    0  0.59951486832E+02  0.40519704886E+02  0.93591283144E+02  0.11830196760E+03  0.00000000000E+00 0. -1.
         -5    1    5    5    0  501 -0.30518696288E+02  0.64003992106E+02  0.26467798555E+02  0.75832289883E+02  0.47000000000E+01 0.  1.
         13    1    6    6    0    0  0.13501042229E+02 -0.57703144114E+02 -0.28834222620E+00  0.59262248718E+02  0.00000000000E+00 0. -1.
        -14    1    6    6    0    0 -0.38434147173E+01 -0.46695282897E+01  0.63562626398E+02  0.63849696991E+02  0.00000000000E+00 0.  1.
</event>
<event>
12    1  0.2625820E-002  0.2300054E+03  0.7818608E-02  0.1126636E+00
          2   -1    0    0  502    0  0.00000000000E+00  0.00000000000E+00  0.17749988604E+04  0.17749988604E+04  0.00000000000E+00 0. -1.
         -2   -1    0    0    0  501 -0.00000000000E+00 -0.00000000000E+00 -0.49091795378E+02  0.49091795378E+02  0.00000000000E+00 0.  1.
          6    2    1    2  502    0 -0.14912309755E+03 -0.13060493724E+02  0.29615072578E+03  0.37628512235E+03  0.17741749125E+03 0.  0.
         24    2    3    3    0    0 -0.98773487050E+02 -0.10024176818E+02  0.72572706299E+02  0.14703956995E+03  0.80604910321E+02 0.  0.
         -6    2    1    2    0  501  0.14912309755E+03  0.13060493724E+02  0.14297563392E+04  0.14478055334E+04  0.17184120084E+03 0.  0.
        -24    2    5    5    0    0  0.11503306920E+03 -0.39908026549E+02  0.12199973167E+04  0.12287422282E+04  0.81171133653E+02 0.  0.
          5    1    3    3  502    0 -0.50349610500E+02 -0.30363169064E+01  0.22357801948E+03  0.22924555239E+03  0.47000000000E+01 0. -1.
        -11    1    4    4    0    0 -0.90632457476E+02  0.13315281969E+02  0.79582553896E+02  0.12134628946E+03  0.00000000000E+00 0.  1.
         12    1    4    4    0    0 -0.81410295744E+01 -0.23339458787E+02 -0.70098475979E+01  0.25693280490E+02  0.00000000000E+00 0. -1.
         -5    1    5    5    0  501  0.34090028353E+02  0.52968520273E+02  0.20975902249E+03  0.21906330521E+03  0.47000000000E+01 0.  1.
         13    1    6    6    0    0  0.11788066535E+02 -0.13654408252E+01  0.51895230720E+03  0.51908796951E+03  0.00000000000E+00 0. -1.
        -14    1    6    6    0    0  0.10324500266E+03 -0.38542585723E+02  0.70104500955E+03  0.70965425871E+03  0.00000000000E+00 0.  1.
</event>
<event>
12    1  0.2625820E-002  0.2032088E+03  0.7818608E-02  0.1147060E+00
         -1   -1    0    0    0  501 -0.00000000000E+00  0.00000000000E+00  0.79787239222E+02  0.79787239222E+02  0.00000000000E+00 0. -1.
          1   -1    0    0  502    0  0.00000000000E+00 -0.00000000000E+00 -0.54173109234E+03  0.54173109234E+03  0.00000000000E+00 0.  1.
          6    2    1    2  502    0 -0.91580310090E+02 -0.56793307048E+02 -0.16634690829E+03  0.26333827088E+03  0.17338776800E+03 0.  0.
         24    2    3    3    0    0 -0.62449413428E+01 -0.78374049841E+02 -0.11448306068E+03  0.16106509596E+03  0.81572685220E+02 0.  0.
         -6    2    1    2    0  501  0.91580310090E+02  0.56793307048E+02 -0.29559694482E+03  0.35818006068E+03  0.17118110047E+03 0.  0.
        -24    2    5    5    0    0  0.99599580579E+02 -0.14566953716E+02 -0.18427588749E+03  0.22562417314E+03  0.82561445011E+02 0.  0.
          5    1    3    3  502    0 -0.85335368747E+02  0.21580742794E+02 -0.51863847609E+02  0.10227317492E+03  0.47000000000E+01 0. -1.
        -11    1    4    4    0    0 -0.56642699836E+01  0.28082544490E+01 -0.66419952876E+02  0.66720164775E+02  0.00000000000E+00 0.  1.
         12    1    4    4    0    0 -0.58067135927E+00 -0.81182304290E+02 -0.48063107804E+02  0.94344931188E+02  0.00000000000E+00 0. -1.
         -5    1    5    5    0  501 -0.80192704891E+01  0.71360260764E+02 -0.11132105733E+03  0.13255588754E+03  0.47000000000E+01 0.  1.
         13    1    6    6    0    0  0.67918785450E+02  0.30999055952E+02 -0.10814292788E+03  0.13141079004E+03  0.00000000000E+00 0. -1.
        -14    1    6    6    0    0  0.31680795129E+02 -0.45566009668E+02 -0.76132959610E+02  0.94213383104E+02  0.00000000000E+00 0.  1.
</event>
<event>
12    1  0.2625820E-002  0.2732371E+03  0.7818608E-02  0.1099441E+00
         -2   -1    0    0    0  501 -0.00000000000E+00  0.00000000000E+00  0.69491994041E+02  0.69491994041E+02  0.00000000000E+00 0.  1.
          2   -1    0    0  502    0  0.00000000000E+00 -0.00000000000E+00 -0.10798409580E+04  0.10798409580E+04  0.00000000000E+00 0. -1.
          6    2    1    2  502    0 -0.83481769831E+02 -0.19163752054E+03 -0.46946633130E+03  0.54454229527E+03  0.18009311464E+03 0.  0.
         24    2    3    3    0    0  0.23080433881E+02 -0.91063925202E+02 -0.16054092856E+03  0.20259559504E+03  0.80288482897E+02 0.  0.
         -6    2    1    2    0  501  0.83481769831E+02  0.19163752054E+03 -0.54088263263E+03  0.60479065674E+03  0.17182424459E+03 0.  0.
        -24    2    5    5    0    0  0.26495836128E+02  0.15837412013E+02 -0.19891744729E+03  0.21605507466E+03  0.78477968213E+02 0.  0.
          5    1    3    3  502    0 -0.10656220371E+03 -0.10057359534E+03 -0.30892540274E+03  0.34194670023E+03  0.47000000000E+01 0. -1.
        -13    1    4    4    0    0 -0.19566379505E+02 -0.75017014005E+02 -0.10961503330E+03  0.13426038553E+03  0.00000000000E+00 0.  1.
         14    1    4    4    0    0  0.42646813387E+02 -0.16046911197E+02 -0.50925895262E+02  0.68335209513E+02  0.00000000000E+00 0. -1.
         -5    1    5    5    0  501  0.56985933704E+02  0.17580010853E+03 -0.34196518533E+03  0.38873558209E+03  0.47000000000E+01 0.  1.
         13    1    6    6    0    0  0.22154324424E+02 -0.44509217304E+01 -0.19322341566E+03  0.19454026101E+03  0.00000000000E+00 0. -1.
        -14    1    6    6    0    0  0.43415117040E+01  0.20288333744E+02 -0.56940316368E+01  0.21514813647E+02  0.00000000000E+00 0.  1.
</event>
<event>
12    1  0.2625820E-002  0.1958707E+03  0.7818608E-02  0.1153270E+00
          2   -1    0    0  502    0  0.00000000000E+00  0.00000000000E+00  0.20822251794E+04  0.20822251794E+04  0.00000000000E+00 0. -1.
         -2   -1    0    0    0  501 -0.00000000000E+00 -0.00000000000E+00 -0.21335086090E+02  0.21335086090E+02  0.00000000000E+00 0.  1.
          6    2    1    2  502    0  0.74532131472E+02  0.53166339459E+02  0.64826603621E+03  0.67760720644E+03  0.17470253071E+03 0.  0.
         24    2    3    3    0    0  0.93369455071E+02  0.42131378460E+02  0.28056782162E+03  0.30923147144E+03  0.80080535748E+02 0.  0.
         -6    2    1    2    0  501 -0.74532131472E+02 -0.53166339459E+02  0.14126240571E+04  0.14259530591E+04  0.17162080776E+03 0.  0.
        -24    2    5    5    0    0 -0.27441893935E+02  0.19824495182E+01  0.32438877185E+03  0.33529408144E+03  0.80231278782E+02 0.  0.
          5    1    3    3  502    0 -0.18837323599E+02  0.11034960999E+02  0.36769821459E+03  0.36837573500E+03  0.47000000000E+01 0. -1.
        -11    1    4    4    0    0  0.87776581097E+02  0.18203251949E+02  0.26592094223E+03  0.28062436474E+03  0.00000000000E+00 0.  1.
         12    1    4    4    0    0  0.55928739749E+01  0.23928126511E+02  0.14646879398E+02  0.28607106700E+02  0.00000000000E+00 0. -1.
         -5    1    5    5    0  501 -0.47090237538E+02 -0.55148788977E+02  0.10882352853E+04  0.10906589776E+04  0.47000000000E+01 0.  1.
         11    1    6    6    0    0 -0.41881649350E+02  0.94418615073E-01  0.31542590083E+03  0.31819424945E+03  0.00000000000E+00 0. -1.
        -12    1    6    6    0    0  0.14439755415E+02  0.18880309031E+01  0.89628710214E+01  0.17099831990E+02  0.00000000000E+00 0.  1.
</event>
<event>
12    1  0.2625820E-002  0.1824322E+03  0.7818608E-02  0.1165470E+00
          2   -1    0    0  502    0  0.00000000000E+00  0.00000000000E+00  0.16243213749E+04  0.16243213749E+04  0.00000000000E+00 0. -1.
         -2   -1    0    0    0  501 -0.00000000000E+00 -0.00000000000E+00 -0.24936791509E+02  0.24936791509E+02  0.00000000000E+00 0.  1.
          6    2    1    2  502    0 -0.38970545020E+02  0.40189209160E+02  0.44997847859E+03  0.48540022601E+03  0.17320182535E+03 0.  0.
         24    2    3    3    0    0 -0.17431954909E+02  0.90872448857E+02  0.26950567551E+03  0.29665377094E+03  0.82513487791E+02 0.  0.
         -6    2    1    2    0  501  0.38970545020E+02 -0.40189209160E+02  0.11494061048E+04  0.11638579404E+04  0.17406043710E+03 0.  0.
        -24    2    5    5    0    0  0.12482555642E+01 -0.91319762569E+01  0.10506533292E+04  0.10535777358E+04  0.77901707851E+02 0.  0.
          5    1    3    3  502    0 -0.21538590111E+02 -0.50683239697E+02  0.18047280308E+03  0.18874645507E+03  0.47000000000E+01 0. -1.
        -13    1    4    4    0    0  0.26518822992E+02  0.74014994384E+01  0.40428394529E+02  0.48913037639E+02  0.00000000000E+00 0.  1.
         14    1    4    4    0    0 -0.43950777901E+02  0.83470949419E+02  0.22907728098E+03  0.24774073330E+03  0.00000000000E+00 0. -1.
         -5    1    5    5    0  501  0.37722289455E+02 -0.31057232903E+02  0.98752775616E+02  0.11028020461E+03  0.47000000000E+01 0.  1.
         11    1    6    6    0    0  0.49141792516E+01 -0.40648506456E+02  0.77945102163E+03  0.78052568526E+03  0.00000000000E+00 0. -1.
        -12    1    6    6    0    0 -0.36659236874E+01  0.31516530199E+02  0.27120230754E+03  0.27305205051E+03  0.00000000000E+00 0.  1.
</event>
<event>
12    1  0.2625820E-002  0.3275183E+03  0.7818608E-02  0.1072240E+00
         -1   -1    0    0    0  501 -0.00000000000E+00  0.00000000000E+00  0.97515387526E+02  0.97515387526E+02  0.00000000000E+00 0.  1.
          1   -1    0    0  502    0  0.00000000000E+00 -0.00000000000E+00 -0.11577078850E+04  0.11577078850E+04  0.00000000000E+00 0. -1.
          6    2    1    2  502    0 -0.26912964957E+03  0.69941709286E+02 -0.67061348440E+03  0.74643566180E+03  0.17355443170E+03 0.  0.
         24    2    3    3    0    0 -0.41913891987E+02  0.43101177179E+01 -0.14019471565E+03  0.16565974412E+03  0.77545090561E+02 0.  0.
         -6    2    1    2    0  501  0.26912964957E+03 -0.69941709286E+02 -0.38957901309E+03  0.50878761075E+03  0.17254105145E+03 0.  0.
        -24    2    5    5    0    0  0.28822010269E+03 -0.70926398561E+02 -0.36938064601E+03  0.48058337266E+03  0.80105772740E+02 0.  0.
          5    1    3    3  502    0 -0.22721575758E+03  0.65631591568E+02 -0.53041876876E+03  0.58077591768E+03  0.47000000000E+01 0. -1.
        -13    1    4    4    0    0 -0.30376605848E+02  0.20225310449E+01 -0.60984927369E+01  0.31048678367E+02  0.00000000000E+00 0.  1.
         14    1    4    4    0    0 -0.11537286139E+02  0.22875866730E+01 -0.13409622291E+03  0.13461106575E+03  0.00000000000E+00 0. -1.
         -5    1    5    5    0  501 -0.19090453120E+02  0.98468927546E+00 -0.20198367081E+02  0.28204238087E+02  0.47000000000E+01 0.  1.
         11    1    6    6    0    0  0.11521786119E+03 -0.41930548836E+02 -0.21206626253E+03  0.24496005014E+03  0.00000000000E+00 0. -1.
        -12    1    6    6    0    0  0.17300224150E+03 -0.28995849726E+02 -0.15731438348E+03  0.23562332252E+03  0.00000000000E+00 0.  1.
</event>
<event>
12    1  0.2625820E-002  0.1940086E+03  0.7818608E-02  0.1154895E+00
         -3   -1    0    0    0  501 -0.00000000000E+00  0.00000000000E+00  0.48689730497E+02  0.48689730497E+02  0.00000000000E+00 0. -1.
          3   -1    0    0  502    0  0.00000000000E+00 -0.00000000000E+00 -0.77473452578E+03  0.77473452578E+03  0.00000000000E+00 0.  1.
          6    2    1    2  502    0 -0.86302626210E+02 -0.15066496636E+02 -0.34702848948E+03  0.39835218017E+03  0.17487293767E+03 0.  0.
         24    2    3    3    0    0 -0.11712366053E+03 -0.48480864145E+02 -0.27285907903E+03  0.31123359686E+03  0.79661337924E+02 0.  0.
         -6    2    1    2    0  501  0.86302626210E+02  0.15066496636E+02 -0.37901630581E+03  0.42507207610E+03  0.17134108440E+03 0.  0.
        -24    2    5    5    0    0  0.69550547231E+01  0.22796429164E+02 -0.80308761981E+02  0.11587298863E+03  0.80056244437E+02 0.  0.
          5    1    3    3  502    0  0.30821034324E+02  0.33414367510E+02 -0.74169410450E+02  0.87118583319E+02  0.47000000000E+01 0. -1.
        -13    1    4    4    0    0 -0.45980775900E+02 -0.61742241507E+02 -0.15144848467E+03  0.16989108171E+03  0.00000000000E+00 0.  1.
         14    1    4    4    0    0 -0.71142884634E+02  0.13261377361E+02 -0.12141059436E+03  0.14134251514E+03  0.00000000000E+00 0. -1.
         -5    1    5    5    0  501  0.79347571487E+02 -0.77299325289E+01 -0.29870754383E+03  0.30919908748E+03  0.47000000000E+01 0.  1.
         13    1    6    6    0    0  0.20668528802E+02 -0.18075999205E+02 -0.33498427346E+01  0.27661367942E+02  0.00000000000E+00 0. -1.
        -14    1    6    6    0    0 -0.13713474079E+02  0.40872428370E+02 -0.76958919246E+02  0.88211620684E+02  0.00000000000E+00 0.  1.
</event>
<event>
12    1  0.2625820E-002  0.1797973E+03  0.7818608E-02  0.1167999E+00
         -1   -1    0    0    0  501 -0.00000000000E+00  0.00000000000E+00  0.16190324388E+03  0.16190324388E+03  0.00000000000E+00 0.  1.
          1   -1    0    0  502    0  0.00000000000E+00 -0.00000000000E+00 -0.20987304497E+03  0.20987304497E+03  0.00000000000E+00 0. -1.
          6    2    1    2  502    0 -0.42354159838E+02  0.31742493957E+02  0.17012959666E+02  0.18052478928E+03  0.17175068550E+03 0.  0.
         24    2    3    3    0    0 -0.52665810643E+02  0.72330915809E+02 -0.22248475923E+02  0.12292877852E+03  0.81308307794E+02 0.  0.
         -6    2    1    2    0  501  0.42354159838E+02 -0.31742493957E+02 -0.64982760756E+02  0.19125149957E+03  0.17190961612E+03 0.  0.
        -24    2    5    5    0    0 -0.20139792388E+02 -0.64264049868E+02 -0.57412876915E+02  0.12024066375E+03  0.81400856504E+02 0.  0.
          5    1    3    3  502    0  0.10311650805E+02 -0.40588421852E+02  0.39261435589E+02  0.57596010758E+02  0.47000000000E+01 0. -1.
        -11    1    4    4    0    0  0.18735877417E+02  0.33626351637E+02  0.80811943046E+00  0.38502177652E+02  0.00000000000E+00 0.  1.
         12    1    4    4    0    0 -0.71401688060E+02  0.38704564173E+02 -0.23056595353E+02  0.84426600872E+02  0.00000000000E+00 0. -1.
         -5    1    5    5    0  501  0.62493952226E+02  0.32521555911E+02 -0.75698838417E+01  0.71010835828E+02  0.47000000000E+01 0.  1.
         11    1    6    6    0    0  0.10377721380E+02 -0.73128028524E+02 -0.39423744028E+02  0.83723576429E+02  0.00000000000E+00 0. -1.
        -12    1    6    6    0    0 -0.30517513767E+02  0.88639786556E+01 -0.17989132887E+02  0.36517087318E+02  0.00000000000E+00 0.  1.
</event>
<event>
12    1  0.2625820E-002  0.2055482E+03  0.7818608E-02  0.1145141E+00
          2   -1    0    0  502    0  0.00000000000E+00  0.00000000000E+00  0.58323750886E+03  0.58323750886E+03  0.00000000000E+00 0.  1.
         -2   -1    0    0    0  501 -0.00000000000E+00 -0.00000000000E+00 -0.15463105519E+03  0.15463105519E+03  0.00000000000E+00 0. -1.
          6    2    1    2  502    0 -0.11222238174E+03  0.10282527379E+01 -0.54826393221E+02  0.21242745691E+03  0.17182715381E+03 0.  0.
         24    2    3    3    0    0 -0.10160767747E+03 -0.59891242009E+02 -0.28609512283E+02  0.14509788218E+03  0.79522388230E+02 0.  0.
         -6    2    1    2    0  501  0.11222238174E+03 -0.10282527379E+01  0.48343284689E+03  0.52544110714E+03  0.17258655612E+03 0.  0.
        -24    2    5    5    0    0  0.68010521073E+02 -0.67206998127E+02  0.26557251916E+03  0.29345074664E+03  0.80264351976E+02 0.  0.
          5    1    3    3  502    0 -0.10614704271E+02  0.60919494747E+02 -0.26216880939E+02  0.67329574729E+02  0.47000000000E+01 0. -1.
        -13    1    4    4    0    0 -0.55061290546E+01 -0.87744773879E+01 -0.34565671983E+02  0.36084547805E+02  0.00000000000E+00 0.  1.
         14    1    4    4    0    0 -0.96101548418E+02 -0.51116764622E+02  0.59561597008E+01  0.10901333438E+03  0.00000000000E+00 0. -1.
         -5    1    5    5    0  501  0.44211860671E+02  0.66178745389E+02  0.21786032774E+03  0.23199036050E+03  0.47000000000E+01 0.  1.
         13    1    6    6    0    0  0.25137099984E+02 -0.57778877960E+02  0.75325617825E+02  0.98204995975E+02  0.00000000000E+00 0. -1.
        -14    1    6    6    0    0  0.42873421089E+02 -0.94281201669E+01  0.19024690133E+03  0.19524575066E+03  0.00000000000E+00 0.  1.
</event>
<event>
12    1  0.2625820E-002  0.1851918E+03  0.7818608E-02  0.1162871E+00
         -2   -1    0    0    0  501 -0.00000000000E+00  0.00000000000E+00  0.40746014721E+02  0.40746014721E+02  0.00000000000E+00 0. -1.
          2   -1    0    0  502    0  0.00000000000E+00 -0.00000000000E+00 -0.10372263171E+04  0.10372263171E+04  0.00000000000E+00 0.  1.
          6    2    1    2  502    0 -0.37561485854E+02  0.51980326852E+02 -0.26089600585E+03  0.31905399527E+03  0.17209272627E+03 0.  0.
         24    2    3    3    0    0 -0.11016388268E+02  0.90077778045E+02 -0.23402519729E+03  0.26520059849E+03  0.85604892158E+02 0.  0.
         -6    2    1    2    0  501  0.37561485854E+02 -0.51980326852E+02 -0.73558429657E+03  0.75891833658E+03  0.17538518936E+03 0.  0.
        -24    2    5    5    0    0  0.74531984156E+02  0.24670294042E+02 -0.44248909953E+03  0.45368232961E+03  0.62188527275E+02 0.  0.
          5    1    3    3  502    0 -0.26545097586E+02 -0.38097451193E+02 -0.26870808555E+02  0.53853396788E+02  0.47000000000E+01 0. -1.
        -11    1    4    4    0    0 -0.37489286990E+01  0.10039274852E+03 -0.15193010497E+03  0.18214147034E+03  0.00000000000E+00 0.  1.
         12    1    4    4    0    0 -0.72674595694E+01 -0.10314970478E+02 -0.82095092320E+02  0.83059128141E+02  0.00000000000E+00 0. -1.
         -5    1    5    5    0  501 -0.36970498302E+02 -0.76650620894E+02 -0.29309519703E+03  0.30523600697E+03  0.47000000000E+01 0.  1.
         11    1    6    6    0    0  0.52596493697E+02  0.17137244943E+01 -0.14055723105E+03  0.15008551963E+03  0.00000000000E+00 0. -1.
        -12    1    6    6    0    0  0.21935490459E+02  0.22956569548E+02 -0.30193186848E+03  0.30359680999E+03  0.00000000000E+00 0.  1.
</event>
<event>
12    1  0.2625820E-002  0.2106242E+03  0.7818608E-02  0.1141073E+00
         -2   -1    0    0    0  501 -0.00000000000E+00  0.00000000000E+00  0.31058045748E+02  0.31058045748E+02  0.00000000000E+00 0.  1.
          2   -1    0    0  502    0  0.00000000000E+00 -0.00000000000E+00 -0.14530324100E+04  0.14530324100E+04  0.00000000000E+00 0. -1.
          6    2    1    2  502    0  0.74690904803E+02 -0.96259156799E+02 -0.80779383308E+03  0.83481236493E+03  0.17186113975E+03 0.  0.
         24    2    3    3    0    0 -0.94942986402E+01 -0.73943000828E+02 -0.28044910049E+03  0.30030350973E+03  0.77283833460E+02 0.  0.
         -6    2    1    2    0  501 -0.74690904803E+02  0.96259156799E+02 -0.61418053120E+03  0.64927809084E+03  0.17175493535E+03 0.  0.
        -24    2    5    5    0    0 -0.89291866157E+02  0.71302300741E+02 -0.60119178019E+03  0.61723389652E+03  0.80554770168E+02 0.  0.
          5    1    3    3  502    0  0.84185203443E+02 -0.22316155971E+02 -0.52734473259E+03  0.53450885520E+03  0.47000000000E+01 0. -1.
        -13    1    4    4    0    0 -0.77771984961E+01 -0.62514406057E+02 -0.92005254902E+02  0.11150561740E+03  0.00000000000E+00 0.  1.
         14    1    4    4    0    0 -0.17171001441E+01 -0.11428594772E+02 -0.18844384559E+03  0.18879789234E+03  0.00000000000E+00 0. -1.
         -5    1    5    5    0  501  0.14600961353E+02  0.24956856058E+02 -0.12988751009E+02  0.32044194318E+02  0.47000000000E+01 0.  1.
         11    1    6    6    0    0 -0.11242940109E+02 -0.23498570211E+01 -0.24398970145E+03  0.24425990245E+03  0.00000000000E+00 0. -1.
        -12    1    6    6    0    0 -0.78048926048E+02  0.73652157762E+02 -0.35720207874E+03  0.37297399407E+03  0.00000000000E+00 0.  1.
</event>
<event>
12    1  0.2625820E-002  0.2162584E+03  0.7818608E-02  0.1136704E+00
         -2   -1    0    0    0  501 -0.00000000000E+00  0.00000000000E+00  0.10077021977E+03  0.10077021977E+03  0.00000000000E+00 0. -1.
          2   -1    0    0  502    0  0.00000000000E+00 -0.00000000000E+00 -0.12196374476E+04  0.12196374476E+04  0.00000000000E+00 0.  1.
          6    2    1    2  502    0 -0.31542316452E+02  0.12562326036E+03 -0.10793259776E+04  0.11008315476E+04  0.17352062956E+03 0.  0.
         24    2    3    3    0    0  0.54717598280E+00  0.13376946570E+03 -0.60697942283E+03  0.62730282193E+03  0.84795290568E+02 0.  0.
         -6    2    1    2    0  501  0.31542316452E+02 -0.12562326036E+03 -0.39541250228E+02  0.21957611983E+03  0.17284108499E+03 0.  0.
        -24    2    5    5    0    0  0.78780020949E+02 -0.46446700268E+02 -0.12687784342E+02  0.12343285681E+03  0.81921319581E+02 0.  0.
          5    1    3    3  502    0 -0.32089492435E+02 -0.81462053369E+01 -0.47234655478E+03  0.47352872564E+03  0.47000000000E+01 0. -1.
        -11    1    4    4    0    0  0.32934843594E+02  0.10644837691E+03 -0.49939286035E+03  0.51167293249E+03  0.00000000000E+00 0.  1.
         12    1    4    4    0    0 -0.32387667611E+02  0.27321088786E+02 -0.10758656248E+03  0.11562988944E+03  0.00000000000E+00 0. -1.
         -5    1    5    5    0  501 -0.47237704497E+02 -0.79176560092E+02 -0.26853465887E+02  0.96143263021E+02  0.47000000000E+01 0.  1.
         13    1    6    6    0    0  0.14190992959E+02 -0.52658437413E+02  0.84539254298E+01  0.55188442333E+02  0.00000000000E+00 0. -1.
        -14    1    6    6    0    0  0.64589027990E+02  0.62117371455E+01 -0.21141709771E+02  0.68244414475E+02  0.00000000000E+00 0.  1.
</event>
<event>
12    1  0.2625820E-002  0.1772584E+03  0.7818608E-02  0.1170483E+00
          2   -1    0    0  502    0  0.00000000000E+00  0.00000000000E+00  0.27847142581E+03  0.27847142581E+03  0.00000000000E+00 0.  1.
         -2   -1    0    0    0  501 -0.00000000000E+00 -0.00000000000E+00 -0.11711799122E+03  0.11711799122E+03  0.00000000000E+00 0. -1.
          6    2    1    2  502    0  0.10314994672E+02 -0.44068036030E+02  0.42383652484E+02  0.18120495929E+03  0.17026588725E+03 0.  0.
         24    2    3    3    0    0  0.50735032791E+02  0.16926888486E+02 -0.23462706731E+01  0.95315400418E+02  0.78860366881E+02 0.  0.
         -6    2    1    2    0  501 -0.10314994672E+02  0.44068036030E+02  0.11896978211E+03  0.21438445773E+03  0.17250650929E+03 0.  0.
        -24    2    5    5    0    0 -0.64968228167E+02  0.14423413639E+02  0.33781094769E+02  0.10881466082E+03  0.79186883473E+02 0.  0.
          5    1    3    3  502    0 -0.40420038119E+02 -0.60994924516E+02  0.44729923157E+02  0.85889558876E+02  0.47000000000E+01 0. -1.
        -11    1    4    4    0    0  0.48415947998E+02 -0.23195263055E+02  0.67547071437E+01  0.54108689850E+02  0.00000000000E+00 0.  1.
         12    1    4    4    0    0  0.23190847927E+01  0.40122151541E+02 -0.91009778168E+01  0.41206710567E+02  0.00000000000E+00 0. -1.
         -5    1    5    5    0  501  0.54653233496E+02  0.29644622392E+02  0.85188687339E+02  0.10556979691E+03  0.47000000000E+01 0.  1.
         13    1    6    6    0    0 -0.42234023274E+02 -0.30426819731E+02  0.92559990780E+01  0.52869439186E+02  0.00000000000E+00 0. -1.
        -14    1    6    6    0    0 -0.22734204893E+02  0.44850233370E+02  0.24525095691E+02  0.55945221638E+02  0.00000000000E+00 0.  1.
</event>
<event>
12    1  0.2625820E-002  0.1790409E+03  0.7818608E-02  0.1168735E+00
          2   -1    0    0  502    0  0.00000000000E+00  0.00000000000E+00  0.28625512881E+03  0.28625512881E+03  0.00000000000E+00 0.  1.
         -2   -1    0    0    0  501 -0.00000000000E+00 -0.00000000000E+00 -0.12394119656E+03  0.12394119656E+03  0.00000000000E+00 0. -1.
          6    2    1    2  502    0 -0.49648680773E+02 -0.13438353910E+02  0.14477087670E+03  0.23007161438E+03  0.17125641636E+03 0.  0.
         24    2    3    3    0    0  0.10498477009E+02  0.10888341322E+02  0.14338183888E+03  0.16500635394E+03  0.80249430659E+02 0.  0.
         -6    2    1    2    0  501  0.49648680773E+02  0.13438353910E+02  0.17543055556E+02  0.18012471100E+03  0.17173110334E+03 0.  0.
        -24    2    5    5    0    0 -0.37328584435E+02  0.19062238295E+02  0.20035691624E+02  0.92803602592E+02  0.80338580834E+02 0.  0.
          5    1    3    3  502    0 -0.60147157782E+02 -0.24326695232E+02  0.13890378132E+01  0.65065260441E+02  0.47000000000E+01 0. -1.
        -13    1    4    4    0    0 -0.97167571808E+01 -0.20139159104E+02  0.11802627352E+03  0.12012577717E+03  0.00000000000E+00 0.  1.
         14    1    4    4    0    0  0.20215234190E+02  0.31027500426E+02  0.25355565366E+02  0.44880576768E+02  0.00000000000E+00 0. -1.
         -5    1    5    5    0  501  0.86977265208E+02 -0.56238843851E+01 -0.24926360674E+01  0.87321108406E+02  0.47000000000E+01 0.  1.
         13    1    6    6    0    0 -0.10570803044E+02  0.10627981861E+02 -0.31073649926E+02  0.34500255001E+02  0.00000000000E+00 0. -1.
        -14    1    6    6    0    0 -0.26757781392E+02  0.84342564347E+01  0.51109341550E+02  0.58303347591E+02  0.00000000000E+00 0.  1.
</event>
<event>
12    1  0.2625820E-002  0.3013068E+03  0.7818608E-02  0.1084589E+00
          2   -1    0    0  502    0  0.00000000000E+00  0.00000000000E+00  0.37338489271E+03  0.37338489271E+03  0.00000000000E+00 0. -1.
         -2   -1    0    0    0  501 -0.00000000000E+00 -0.00000000000E+00 -0.44844996813E+03  0.44844996813E+03  0.00000000000E+00 0.  1.
          6    2    1    2  502    0  0.22318206966E+03 -0.10761375364E+03 -0.31558104366E+03  0.43645959244E+03  0.17179820875E+03 0.  0.
         24    2    3    3    0    0  0.18782968669E+03 -0.25892055071E+02 -0.25970738234E+03  0.33123515124E+03  0.79488434707E+02 0.  0.
         -6    2    1    2    0  501 -0.22318206966E+03  0.10761375364E+03  0.24051596824E+03  0.38537526840E+03  0.17110000095E+03 0.  0.
        -24    2    5    5    0    0 -0.20987056378E+03  0.14006661113E+03  0.22371625087E+03  0.34619996174E+03  0.78365448443E+02 0.  0.
          5    1    3    3  502    0  0.35352382960E+02 -0.81721698568E+02 -0.55873661322E+02  0.10522444121E+03  0.47000000000E+01 0. -1.
        -11    1    4    4    0    0  0.48555422074E+02  0.71624882911E+01 -0.12654718871E+03  0.13573179886E+03  0.00000000000E+00 0.  1.
         12    1    4    4    0    0  0.13927426462E+03 -0.33054543362E+02 -0.13316019363E+03  0.19550335238E+03  0.00000000000E+00 0. -1.
         -5    1    5    5    0  501 -0.13311505871E+02 -0.32452857490E+02  0.16799717362E+02  0.39175306652E+02  0.47000000000E+01 0.  1.
         13    1    6    6    0    0 -0.97719469294E+02  0.80470155798E+02  0.16026644286E+03  0.20422995216E+03  0.00000000000E+00 0. -1.
        -14    1    6    6    0    0 -0.11215109449E+03  0.59596455331E+02  0.63449808014E+02  0.14197000958E+03  0.00000000000E+00 0.  1.
</event>
<event>
12    1  0.2625820E-002  0.2228411E+03  0.7818608E-02  0.1131782E+00
         -3   -1    0    0    0  501 -0.00000000000E+00  0.00000000000E+00  0.14536418976E+03  0.14536418976E+03  0.00000000000E+00 0. -1.
          3   -1    0    0  502    0  0.00000000000E+00 -0.00000000000E+00 -0.36693421137E+03  0.36693421137E+03  0.00000000000E+00 0.  1.
          6    2    1    2  502    0  0.12933233609E+03 -0.53166014323E+02 -0.43245561560E+02  0.22646348150E+03  0.17280639925E+03 0.  0.
         24    2    3    3    0    0  0.15116698423E+03 -0.18641781022E+02 -0.39237543250E+02  0.18514969742E+03  0.97682406479E+02 0.  0.
         -6    2    1    2    0  501 -0.12933233609E+03  0.53166014323E+02 -0.17832446005E+03  0.28583491963E+03  0.17420823744E+03 0.  0.
        -24    2    5    5    0    0 -0.44750305625E+02 -0.35703823578E+02 -0.96111512073E+02  0.13807488856E+03  0.80931447704E+02 0.  0.
          5    1    3    3  502    0 -0.21834648134E+02 -0.34524233301E+02 -0.40080183099E+01  0.41313784079E+02  0.47000000000E+01 0. -1.
        -13    1    4    4    0    0  0.31678479092E+02 -0.31287200036E+02  0.22691799914E+02  0.49973319952E+02  0.00000000000E+00 0.  1.
         14    1    4    4    0    0  0.11948850514E+03  0.12645419014E+02 -0.61929343164E+02  0.13517637747E+03  0.00000000000E+00 0. -1.
         -5    1    5    5    0  501 -0.84582030469E+02  0.88869837901E+02 -0.82212947973E+02  0.14776003107E+03  0.47000000000E+01 0.  1.
         11    1    6    6    0    0  0.68994836881E+01 -0.33558044364E+02 -0.68696824225E+01  0.34941919714E+02  0.00000000000E+00 0. -1.
        -12    1    6    6    0    0 -0.51649789313E+02 -0.21457792141E+01 -0.89241829651E+02  0.10313296885E+03  0.00000000000E+00 0.  1.
</event>
<event>
12    1  0.2625820E-002  0.1746958E+03  0.7818608E-02  0.1173038E+00
          2   -1    0    0  502    0  0.00000000000E+00  0.00000000000E+00  0.25509759206E+04  0.25509759206E+04  0.00000000000E+00 0.  1.
         -2   -1    0    0    0  501 -0.00000000000E+00 -0.00000000000E+00 -0.12020166151E+02  0.12020166151E+02  0.00000000000E+00 0. -1.
          6    2    1    2  502    0  0.28736291547E+02  0.10608903764E+02  0.11794676451E+04  0.11922934454E+04  0.17170151635E+03 0.  0.
         24    2    3    3    0    0 -0.26373906252E+02  0.41942127000E+02  0.41765965846E+03  0.42783781991E+03  0.78427577344E+02 0.  0.
         -6    2    1    2    0  501 -0.28736291547E+02 -0.10608903764E+02  0.13594881093E+04  0.13707026413E+04  0.17227735882E+03 0.  0.
        -24    2    5    5    0    0  0.21006388780E+02 -0.44863126580E+02  0.48978911390E+03  0.49889640219E+03  0.80933772468E+02 0.  0.
          5    1    3    3  502    0  0.55110197799E+02 -0.31333223236E+02  0.76180798667E+03  0.76445562548E+03  0.47000000000E+01 0. -1.
        -13    1    4    4    0    0  0.25282035385E+01  0.39307994806E+02  0.36961556428E+03  0.37170845514E+03  0.00000000000E+00 0.  1.
         14    1    4    4    0    0 -0.28902109791E+02  0.26341321939E+01  0.48044094184E+02  0.56129364764E+02  0.00000000000E+00 0. -1.
         -5    1    5    5    0  501 -0.49742680327E+02  0.34254222816E+02  0.86969899537E+03  0.87180623912E+03  0.47000000000E+01 0.  1.
         11    1    6    6    0    0  0.17071148810E+02  0.16244356374E+02  0.55271083187E+02  0.60084905529E+02  0.00000000000E+00 0. -1.
        -12    1    6    6    0    0  0.39352399704E+01 -0.61107482954E+02  0.43451803072E+03  0.43881149666E+03  0.00000000000E+00 0.  1.
</event>
<event>
12    1  0.2625820E-002  0.2422036E+03  0.7818608E-02  0.1118333E+00
         -1   -1    0    0    0  501 -0.00000000000E+00  0.00000000000E+00  0.28059848547E+03  0.28059848547E+03  0.00000000000E+00 0. -1.
          1   -1    0    0  502    0  0.00000000000E+00 -0.00000000000E+00 -0.23057947867E+03  0.23057947867E+03  0.00000000000E+00 0.  1.
          6    2    1    2  502    0  0.15396793305E+03 -0.45767454275E+02  0.10318179293E+03  0.26428998326E+03  0.18276194511E+03 0.  0.
         24    2    3    3    0    0  0.17086520200E+03 -0.50701084210E+02  0.12801988457E+03  0.23348610040E+03  0.79756824431E+02 0.  0.
         -6    2    1    2    0  501 -0.15396793305E+03  0.45767454275E+02 -0.53162786123E+02  0.24688798089E+03  0.17979602054E+03 0.  0.
        -24    2    5    5    0    0 -0.88508803142E+02 -0.28153804824E+02 -0.64432681682E+02  0.14739752516E+03  0.94593947984E+02 0.  0.
          5    1    3    3  502    0 -0.16897268950E+02  0.49336299348E+01 -0.24838091641E+02  0.30803882851E+02  0.47000000000E+01 0. -1.
        -13    1    4    4    0    0  0.88930747993E+02  0.12442965722E+02  0.42872265489E+02  0.99506464527E+02  0.00000000000E+00 0.  1.
         14    1    4    4    0    0  0.81934454005E+02 -0.63144049932E+02  0.85147619079E+02  0.13397963588E+03  0.00000000000E+00 0. -1.
         -5    1    5    5    0  501 -0.65459129906E+02  0.73921259099E+02  0.11269895558E+02  0.99490455727E+02  0.47000000000E+01 0.  1.
         13    1    6    6    0    0 -0.47122607976E+02 -0.21926305641E+02  0.17955813081E+02  0.54988310439E+02  0.00000000000E+00 0. -1.
        -14    1    6    6    0    0 -0.41386195166E+02 -0.62274991827E+01 -0.82388494763E+02  0.92409214723E+02  0.00000000000E+00 0.  1.
</event>
<event>
12    1  0.2625820E-002  0.2529033E+03  0.7818608E-02  0.1111484E+00
          2   -1    0    0  502    0  0.00000000000E+00  0.00000000000E+00  0.11863218592E+04  0.11863218592E+04  0.00000000000E+00 0.  1.
         -2   -1    0    0    0  501 -0.00000000000E+00 -0.00000000000E+00 -0.55776303272E+02  0.55776303272E+02  0.00000000000E+00 0. -1.
          6    2    1    2  502    0 -0.18345571274E+03  0.25411642557E+02  0.67862591378E+03  0.72420122536E+03  0.17214102894E+03 0.  0.
         24    2    3    3    0    0 -0.16793661063E+03  0.33974834524E+02  0.68011381570E+03  0.70580354510E+03  0.79037000188E+02 0.  0.
         -6    2    1    2    0  501  0.18345571274E+03 -0.25411642557E+02  0.45191964213E+03  0.51789693709E+03  0.17229081343E+03 0.  0.
        -24    2    5    5    0    0  0.83773554109E+02  0.36492064426E+02  0.14930912019E+03  0.19329900168E+03  0.81985434945E+02 0.  0.
          5    1    3    3  502    0 -0.15519102109E+02 -0.85631919667E+01 -0.14879019166E+01  0.18397680262E+02  0.47000000000E+01 0. -1.
        -13    1    4    4    0    0 -0.69895044544E+02 -0.24586844164E+02  0.29027240479E+03  0.29957953725E+03  0.00000000000E+00 0.  1.
         14    1    4    4    0    0 -0.98041566090E+02  0.58561678688E+02  0.38984141091E+03  0.40622400784E+03  0.00000000000E+00 0. -1.
         -5    1    5    5    0  501  0.99682158635E+02 -0.61903706983E+02  0.30261052193E+03  0.32459793541E+03  0.47000000000E+01 0.  1.
         13    1    6    6    0    0  0.46002975168E+01  0.33473562386E+02  0.14155281378E+02  0.36633510710E+02  0.00000000000E+00 0. -1.
        -14    1    6    6    0    0  0.79173256592E+02  0.30185020397E+01  0.13515383881E+03  0.15666549097E+03  0.00000000000E+00 0.  1.
</event>
<event>
12    1  0.2625820E-002  0.1761481E+03  0.7818608E-02  0.1171584E+00
          2   -1    0    0  502    0  0.00000000000E+00  0.00000000000E+00  0.99709581366E+03  0.99709581366E+03  0.00000000000E+00 0. -1.
         -2   -1    0    0    0  501 -0.00000000000E+00 -0.00000000000E+00 -0.39220008330E+02  0.39220008330E+02  0.00000000000E+00 0.  1.
          6    2    1    2  502    0 -0.34235833988E+02 -0.17187504419E+02  0.24171696685E+03  0.29861953712E+03  0.17111117219E+03 0.  0.
         24    2    3    3    0    0 -0.27933843793E+02  0.16210344461E+02  0.42065365016E+02  0.96041197937E+02  0.80070855314E+02 0.  0.
         -6    2    1    2    0  501  0.34235833988E+02  0.17187504419E+02  0.71615883847E+03  0.73769628487E+03  0.17275654588E+03 0.  0.
        -24    2    5    5    0    0 -0.42677446966E+02  0.21020307676E+02  0.29782259399E+03  0.31230511593E+03  0.81073855993E+02 0.  0.
          5    1    3    3  502    0 -0.63019901946E+01 -0.33397848880E+02  0.19965160184E+03  0.20257833918E+03  0.47000000000E+01 0. -1.
        -13    1    4    4    0    0 -0.56348327855E+02  0.10081499369E+02  0.29048607374E+02  0.64191839605E+02  0.00000000000E+00 0.  1.
         14    1    4    4    0    0  0.28414484062E+02  0.61288450923E+01  0.13016757642E+02  0.31849358332E+02  0.00000000000E+00 0. -1.
         -5    1    5    5    0  501  0.76913280953E+02 -0.38328032571E+01  0.41833624448E+03  0.42539116894E+03  0.47000000000E+01 0.  1.
         11    1    6    6    0    0  0.56962410786E+01  0.39742757058E+02  0.99088920081E+02  0.10691374086E+03  0.00000000000E+00 0. -1.
        -12    1    6    6    0    0 -0.48373688044E+02 -0.18722449382E+02  0.19873367391E+03  0.20539137507E+03  0.00000000000E+00 0.  1.
</event>
<event>
12    1  0.2625820E-002  0.1934305E+03  0.7818608E-02  0.1155403E+00
          2   -1    0    0  502    0  0.00000000000E+00  0.00000000000E+00  0.45670937863E+03  0.45670937863E+03  0.00000000000E+00 0. -1.
         -2   -1    0    0    0  501 -0.00000000000E+00 -0.00000000000E+00 -0.82069647255E+02  0.82069647255E+02  0.00000000000E+00 0.  1.
          6    2    1    2  502    0  0.68674167524E+02 -0.58266622487E+02  0.17372051233E+03  0.25751322391E+03  0.16740102599E+03 0.  0.
         24    2    3    3    0    0  0.57894693750E+02  0.28439413844E+02  0.88638601754E+02  0.13546751404E+03  0.79586743962E+02 0.  0.
         -6    2    1    2    0  501 -0.68674167524E+02  0.58266622487E+02  0.20091921905E+03  0.28126580198E+03  0.17501650836E+03 0.  0.
        -24    2    5    5    0    0 -0.63558922182E+02  0.70007809135E+02  0.55353282992E+02  0.13506199581E+03  0.78974216330E+02 0.  0.
          5    1    3    3  502    0  0.10779473773E+02 -0.86706036331E+02  0.85081910578E+02  0.12204570987E+03  0.47000000000E+01 0. -1.
        -11    1    4    4    0    0  0.30986643563E+02  0.85988659563E+01 -0.80603672494E+01  0.33152407081E+02  0.00000000000E+00 0.  1.
         12    1    4    4    0    0  0.26908050187E+02  0.19840547888E+02  0.96698969003E+02  0.10231510696E+03  0.00000000000E+00 0. -1.
         -5    1    5    5    0  501 -0.51152453419E+01 -0.11741186648E+02  0.14556593605E+03  0.14620380617E+03  0.47000000000E+01 0.  1.
         13    1    6    6    0    0  0.46141081424E+01  0.25416875052E+02  0.46405420057E+02  0.53110926767E+02  0.00000000000E+00 0. -1.
        -14    1    6    6    0    0 -0.68173030324E+02  0.44590934082E+02  0.89478629349E+01  0.81951069041E+02  0.00000000000E+00 0.  1.
</event>
<event>
12    1  0.3986401E-002  0.1853932E+03  0.7818608E-02  0.1162683E+00
         -2   -1    0    0    0  501 -0.00000000000E+00  0.00000000000E+00  0.59157812549E+02  0.59157812549E+02  0.00000000000E+00 0. -1.
          2   -1    0    0  502    0  0.00000000000E+00 -0.00000000000E+00 -0.81534631069E+03  0.81534631069E+03  0.00000000000E+00 0.  1.
          6    2    1    2  502    0  0.53350963509E+02  0.13218900171E+02 -0.13684454836E+03  0.22657331341E+03  0.17201154411E+03 0.  0.
         24    2    3    3    0    0  0.25717613587E+02  0.74676230949E+02 -0.80809052390E+02  0.13880844377E+03  0.80621002209E+02 0.  0.
         -6    2    1    2    0  501 -0.53350963509E+02 -0.13218900171E+02 -0.61934394978E+03  0.64793080983E+03  0.18222607267E+03 0.  0.
        -24    2    5    5    0    0  0.34574703375E+02 -0.27331695338E+02 -0.41335425005E+03  0.42346713731E+03  0.80748056710E+02 0.  0.
          5    1    3    3  502    0  0.27633349922E+02 -0.61457330778E+02 -0.56035495965E+02  0.87764869636E+02  0.47000000000E+01 0. -1.
        -13    1    4    4    0    0  0.32283381262E+02  0.32601458352E+02 -0.84408926957E+02  0.96072570187E+02  0.00000000000E+00 0.  1.
         14    1    4    4    0    0 -0.65657676747E+01  0.42074772597E+02  0.35998745668E+01  0.42735873586E+02  0.00000000000E+00 0. -1.
         -5    1    5    5    0  501 -0.87925666883E+02  0.14112795167E+02 -0.20598969973E+03  0.22446367252E+03  0.47000000000E+01 0.  1.
         13    1    6    6    0    0  0.14440189990E+02 -0.16600178513E+02 -0.20887154388E+02  0.30337406482E+02  0.00000000000E+00 0. -1.
        -14    1    6    6    0    0  0.20134513385E+02 -0.10731516825E+02 -0.39246709566E+03  0.39312973083E+03  0.00000000000E+00 0.  1.
</event>
<event>
12    1  0.2625820E-002  0.2190011E+03  0.7818608E-02  0.1134630E+00
          2   -1    0    0  502    0  0.00000000000E+00  0.00000000000E+00  0.55386517677E+03  0.55386517677E+03  0.00000000000E+00 0. -1.
         -2   -1    0    0    0  501 -0.00000000000E+00 -0.00000000000E+00 -0.10402181141E+03  0.10402181141E+03  0.00000000000E+00 0.  1.
          6    2    1    2  502    0 -0.73679142462E+02 -0.11593371270E+03  0.90408861250E+02  0.23706761931E+03  0.17075729020E+03 0.  0.
         24    2    3    3    0    0  0.43622351187E+01 -0.33977014878E+02  0.53811629174E+02  0.11803483253E+03  0.99312957971E+02 0.  0.
         -6    2    1    2    0  501  0.73679142462E+02  0.11593371270E+03  0.35943450411E+03  0.42081936886E+03  0.17037176025E+03 0.  0.
        -24    2    5    5    0    0  0.74871118985E+02  0.10360827932E+03  0.37234562539E+03  0.40232277002E+03  0.82957739383E+02 0.  0.
          5    1    3    3  502    0 -0.78041377581E+02 -0.81956697820E+02  0.36597232076E+02  0.11903278678E+03  0.47000000000E+01 0. -1.
        -13    1    4    4    0    0  0.42192919579E+02  0.97300089420E+01  0.74545244358E+01  0.43937290212E+02  0.00000000000E+00 0.  1.
         14    1    4    4    0    0 -0.37830684460E+02 -0.43707023820E+02  0.46357104738E+02  0.74097542318E+02  0.00000000000E+00 0. -1.
         -5    1    5    5    0  501 -0.11919765227E+01  0.12325433382E+02 -0.12911121284E+02  0.18496598846E+02  0.47000000000E+01 0.  1.
         13    1    6    6    0    0  0.53906779777E+02  0.17557854316E+02  0.20851048105E+03  0.21608063278E+03  0.00000000000E+00 0. -1.
        -14    1    6    6    0    0  0.20964339208E+02  0.86050425001E+02  0.16383514434E+03  0.18624213724E+03  0.00000000000E+00 0.  1.
</event>
<event>
12    1  0.2625820E-002  0.1954202E+03  0.7818608E-02  0.1153662E+00
         -2   -1    0    0    0  501 -0.00000000000E+00  0.00000000000E+00  0.30302275068E+02  0.30302275068E+02  0.00000000000E+00 0. -1.
          2   -1    0    0  502    0  0.00000000000E+00 -0.00000000000E+00 -0.16374195115E+04  0.16374195115E+04  0.00000000000E+00 0.  1.
          6    2    1    2  502    0  0.46859779441E+02  0.80923227424E+02 -0.12037399332E+04  0.12194988190E+04  0.17159002048E+03 0.  0.
         24    2    3    3    0    0 -0.30844739727E+02  0.33925421026E+02 -0.82402828591E+03  0.82905060069E+03  0.78739763532E+02 0.  0.
         -6    2    1    2    0  501 -0.46859779441E+02 -0.80923227424E+02 -0.40337730321E+03  0.44822296753E+03  0.17159887008E+03 0.  0.
        -24    2    5    5    0    0 -0.13601209965E+02 -0.10708298992E+03 -0.35851654350E+03  0.38637603245E+03  0.95396891174E+02 0.  0.
          5    1    3    3  502    0  0.77704519168E+02  0.46997806397E+02 -0.37971164727E+03  0.39044821831E+03  0.47000000000E+01 0. -1.
        -13    1    4    4    0    0  0.75738584119E+01  0.47560213893E+02 -0.53469970992E+03  0.53686415141E+03  0.00000000000E+00 0.  1.
         14    1    4    4    0    0 -0.38418598139E+02 -0.13634792867E+02 -0.28932857599E+03  0.29218644928E+03  0.00000000000E+00 0. -1.
         -5    1    5    5    0  501 -0.33258569476E+02  0.26159762498E+02 -0.44860759716E+02  0.61846935088E+02  0.47000000000E+01 0.  1.
         13    1    6    6    0    0 -0.44958756004E+02 -0.60679708227E+02 -0.12334815731E+03  0.14463085647E+03  0.00000000000E+00 0. -1.
        -14    1    6    6    0    0  0.31357546039E+02 -0.46403281695E+02 -0.23516838619E+03  0.24174517598E+03  0.00000000000E+00 0.  1.
</event>
<event>
12    1  0.2625820E-002  0.2598195E+03  0.7818608E-02  0.1107252E+00
          2   -1    0    0  502    0  0.00000000000E+00  0.00000000000E+00  0.18212014977E+04  0.18212014977E+04  0.00000000000E+00 0.  1.
         -2   -1    0    0    0  501 -0.00000000000E+00 -0.00000000000E+00 -0.55513236272E+02  0.55513236272E+02  0.00000000000E+00 0. -1.
          6    2    1    2  502    0  0.14026830689E+03  0.13230765762E+03  0.34156292386E+03  0.42905313498E+03  0.17389895772E+03 0.  0.
         24    2    3    3    0    0  0.15252564126E+03  0.15644641404E+03  0.31012058212E+03  0.38729630725E+03  0.78000656708E+02 0.  0.
         -6    2    1    2    0  501 -0.14026830689E+03 -0.13230765762E+03  0.14241253376E+04  0.14476615990E+04  0.17438639261E+03 0.  0.
        -24    2    5    5    0    0 -0.16800975315E+03 -0.96265685755E+02  0.10086679466E+04  0.10296956372E+04  0.73264720064E+02 0.  0.
          5    1    3    3  502    0 -0.12257334369E+02 -0.24138756428E+02  0.31442341746E+02  0.41756827732E+02  0.47000000000E+01 0. -1.
        -11    1    4    4    0    0  0.27632608437E+02  0.47142688453E+02  0.13687902495E+03  0.14738338303E+03  0.00000000000E+00 0.  1.
         12    1    4    4    0    0  0.12489303282E+03  0.10930372559E+03  0.17324155717E+03  0.23991292422E+03  0.00000000000E+00 0. -1.
         -5    1    5    5    0  501  0.27741446259E+02 -0.36041971861E+02  0.41545739091E+03  0.41796596182E+03  0.47000000000E+01 0.  1.
         11    1    6    6    0    0 -0.11265402422E+03 -0.88240062967E+02  0.57991441750E+03  0.59730893976E+03  0.00000000000E+00 0. -1.
        -12    1    6    6    0    0 -0.55355728929E+02 -0.80256227883E+01  0.42875352914E+03  0.43238669741E+03  0.00000000000E+00 0.  1.
</event>
<event>
12    1  0.2625820E-002  0.1847633E+03  0.7818608E-02  0.1163271E+00
          2   -1    0    0  502    0  0.00000000000E+00  0.00000000000E+00  0.38543210888E+02  0.38543210888E+02  0.00000000000E+00 0.  1.
         -2   -1    0    0    0  501 -0.00000000000E+00 -0.00000000000E+00 -0.99314506086E+03  0.99314506086E+03  0.00000000000E+00 0. -1.
          6    2    1    2  502    0 -0.82714660930E+01  0.67091191240E+02 -0.30711688271E+03  0.35829678336E+03  0.17171534653E+03 0.  0.
         24    2    3    3    0    0 -0.70216144657E+02  0.60932403752E+02 -0.22567810880E+03  0.25568373468E+03  0.76161004387E+02 0.  0.
         -6    2    1    2    0  501  0.82714660930E+01 -0.67091191240E+02 -0.64748496727E+03  0.67339148839E+03  0.17219079156E+03 0.  0.
        -24    2    5    5    0    0 -0.48948873063E+02 -0.75953947907E+02 -0.51117825935E+03  0.52522157143E+03  0.79934297275E+02 0.  0.
          5    1    3    3  502    0  0.61944678564E+02  0.61587874879E+01 -0.81438773906E+02  0.10261304869E+03  0.47000000000E+01 0. -1.
        -13    1    4    4    0    0  0.12365793801E+01  0.38210672100E+02 -0.12119333845E+03  0.12708032843E+03  0.00000000000E+00 0.  1.
         14    1    4    4    0    0 -0.71452724037E+02  0.22721731652E+02 -0.10448477035E+03  0.12860340624E+03  0.00000000000E+00 0. -1.
         -5    1    5    5    0  501  0.57220339156E+02  0.88627566671E+01 -0.13630670791E+03  0.14816991696E+03  0.47000000000E+01 0.  1.
         13    1    6    6    0    0 -0.50412065305E+02 -0.28537111761E+02 -0.40240825461E+03  0.40655644928E+03  0.00000000000E+00 0. -1.
        -14    1    6    6    0    0  0.14631922424E+01 -0.47416836145E+02 -0.10877000474E+03  0.11866512214E+03  0.00000000000E+00 0.  1.
</event>
<event>
12    1  0.2625820E-002  0.1732641E+03  0.7818608E-02  0.1174486E+00
         -2   -1    0    0    0  501 -0.00000000000E+00  0.00000000000E+00  0.35612590142E+02  0.35612590142E+02  0.00000000000E+00 0. -1.
          2   -1    0    0  502    0  0.00000000000E+00 -0.00000000000E+00 -0.12985958986E+04  0.12985958986E+04  0.00000000000E+00 0.  1.
          6    2    1    2  502    0 -0.14809987770E+01  0.16227267433E+02 -0.10273916536E+04  0.10419523644E+04  0.17281667240E+03 0.  0.
         24    2    3    3    0    0  0.18087468596E+02 -0.52082375055E+02 -0.60464563490E+03  0.61325034844E+03  0.86254946245E+02 0.  0.
         -6    2    1    2    0  501  0.14809987770E+01 -0.16227267433E+02 -0.23559165484E+03  0.29225612431E+03  0.17217635378E+03 0.  0.
        -24    2    5    5    0    0 -0.47649664221E+02  0.23111132551E+02 -0.19488354532E+03  0.21715238312E+03  0.79818207881E+02 0.  0.
          5    1    3    3  502    0 -0.19568467373E+02  0.68309642488E+02 -0.42274601873E+03  0.42870201600E+03  0.47000000000E+01 0. -1.
        -11    1    4    4    0    0 -0.25857596674E+02  0.55390254749E+01 -0.24160200316E+03  0.24304490129E+03  0.00000000000E+00 0.  1.
         12    1    4    4    0    0  0.43945065269E+02 -0.57621400530E+02 -0.36304363174E+03  0.37020544716E+03  0.00000000000E+00 0. -1.
         -5    1    5    5    0  501  0.49130662998E+02 -0.39338399984E+02 -0.40708109519E+02  0.75103741189E+02  0.47000000000E+01 0.  1.
         13    1    6    6    0    0 -0.38183241695E+02  0.26794614506E+02 -0.38620436411E+02  0.60559470122E+02  0.00000000000E+00 0. -1.
        -14    1    6    6    0    0 -0.94664225264E+01 -0.36834819551E+01 -0.15626310891E+03  0.15659291300E+03  0.00000000000E+00 0.  1.
</event>
<event>
12    1  0.2625820E-002  0.2116193E+03  0.7818608E-02  0.1140290E+00
          2   -1    0    0  502    0  0.00000000000E+00  0.00000000000E+00  0.17055130019E+04  0.17055130019E+04  0.00000000000E+00 0.  1.
         -2   -1    0    0    0  501 -0.00000000000E+00 -0.00000000000E+00 -0.31123623556E+02  0.31123623556E+02  0.00000000000E+00 0. -1.
          6    2    1    2  502    0 -0.50431610481E+02 -0.10654574622E+03  0.11965641426E+04  0.12160207708E+04  0.18178400452E+03 0.  0.
         24    2    3    3    0    0 -0.98604943719E+02 -0.10157439910E+03  0.78870923808E+03  0.80527377146E+03  0.79770240649E+02 0.  0.
         -6    2    1    2    0  501  0.50431610481E+02  0.10654574622E+03  0.47782523573E+03  0.52061585463E+03  0.16978977833E+03 0.  0.
        -24    2    5    5    0    0  0.29913209053E+02  0.52177990746E+02  0.10970353554E+03  0.14790613678E+03  0.78892438130E+02 0.  0.
          5    1    3    3  502    0  0.48173333238E+02 -0.49713471176E+01  0.40785490452E+03  0.41074699934E+03  0.47000000000E+01 0. -1.
        -11    1    4    4    0    0 -0.67976814429E+00 -0.11536188248E+02  0.25409399979E+03  0.25435665207E+03  0.00000000000E+00 0.  1.
         12    1    4    4    0    0 -0.97925175575E+02 -0.90038210852E+02  0.53461523828E+03  0.55091711938E+03  0.00000000000E+00 0. -1.
         -5    1    5    5    0  501  0.20518401429E+02  0.54367755471E+02  0.36812170019E+03  0.37270971785E+03  0.47000000000E+01 0.  1.
         13    1    6    6    0    0 -0.19963886445E+02  0.33254881294E+02  0.74497450863E+02  0.83989964144E+02  0.00000000000E+00 0. -1.
        -14    1    6    6    0    0  0.49877095497E+02  0.18923109452E+02  0.35206084677E+02  0.63916172639E+02  0.00000000000E+00 0.  1.
</event>
<event>
12    1  0.2625820E-002  0.2049214E+03  0.7818608E-02  0.1145652E+00
          2   -1    0    0  502    0  0.00000000000E+00  0.00000000000E+00  0.42792867416E+03  0.42792867416E+03  0.00000000000E+00 0. -1.
         -2   -1    0    0    0  501 -0.00000000000E+00 -0.00000000000E+00 -0.11543147604E+03  0.11543147604E+03  0.00000000000E+00 0.  1.
          6    2    1    2  502    0  0.74856582125E+01  0.11164618136E+03  0.51343405667E+02  0.21166518073E+03  0.17217752042E+03 0.  0.
         24    2    3    3    0    0  0.16890460168E+02  0.14709026892E+03  0.51319407521E+02  0.17469459486E+03  0.77224899026E+02 0.  0.
         -6    2    1    2    0  501 -0.74856582125E+01 -0.11164618136E+03  0.26115379245E+03  0.33169496947E+03  0.17117051314E+03 0.  0.
        -24    2    5    5    0    0  0.44457720531E+02 -0.55611697020E+02  0.80764489195E+02  0.13573484914E+03  0.82655288977E+02 0.  0.
          5    1    3    3  502    0 -0.94048019556E+01 -0.35444087567E+02  0.23998146415E-01  0.36970585865E+02  0.47000000000E+01 0. -1.
        -13    1    4    4    0    0  0.39420681953E+02  0.48738551968E+02  0.28310674779E+01  0.62749115983E+02  0.00000000000E+00 0.  1.
         14    1    4    4    0    0 -0.22530221785E+02  0.98351716955E+02  0.48488340043E+02  0.11194547888E+03  0.00000000000E+00 0. -1.
         -5    1    5    5    0  501 -0.51943378744E+02 -0.56034484337E+02  0.18038930326E+03  0.19596012033E+03  0.47000000000E+01 0.  1.
         13    1    6    6    0    0  0.41407972696E+02  0.10412471951E+02  0.36660047331E+02  0.56276094794E+02  0.00000000000E+00 0. -1.
        -14    1    6    6    0    0  0.30497478355E+01 -0.66024168971E+02  0.44104441864E+02  0.79458754346E+02  0.00000000000E+00 0.  1.
</event>
<event>
12    1  0.2625820E-002  0.1790165E+03  0.7818608E-02  0.1168758E+00
          3   -1    0    0  502    0  0.00000000000E+00  0.00000000000E+00  0.15621551974E+03  0.15621551974E+03  0.00000000000E+00 0. -1.
         -3   -1    0    0    0  501 -0.00000000000E+00 -0.00000000000E+00 -0.36963139932E+03  0.36963139932E+03  0.00000000000E+00 0.  1.
          6    2    1    2  502    0  0.44465521779E+02  0.13402098874E+02  0.69086854288E+02  0.19073188530E+03  0.17160670078E+03 0.  0.
         24    2    3    3    0    0  0.15970684167E+00 -0.13371794474E+01 -0.26394986989E+02  0.84340515458E+02  0.80092531827E+02 0.  0.
         -6    2    1    2    0  501 -0.44465521779E+02 -0.13402098874E+02 -0.28250273387E+03  0.33511503377E+03  0.17417661246E+03 0.  0.
        -24    2    5    5    0    0 -0.91010577948E+02 -0.22436334736E+02 -0.15328219534E+03  0.19739031830E+03  0.81738558436E+02 0.  0.
          5    1    3    3  502    0  0.44305814938E+02  0.14739278322E+02  0.95481841276E+02  0.10639136984E+03  0.47000000000E+01 0. -1.
        -11    1    4    4    0    0  0.27527745974E+02  0.26887571863E+02 -0.23115536751E+02  0.44889267742E+02  0.00000000000E+00 0.  1.
         12    1    4    4    0    0 -0.27368039132E+02 -0.28224751311E+02 -0.32794502373E+01  0.39451247716E+02  0.00000000000E+00 0. -1.
         -5    1    5    5    0  501  0.46545056168E+02  0.90342358618E+01 -0.12922053854E+03  0.13772471547E+03  0.47000000000E+01 0.  1.
         13    1    6    6    0    0 -0.62740288467E+02 -0.34223911693E+01 -0.30265172466E+02  0.69742649954E+02  0.00000000000E+00 0. -1.
        -14    1    6    6    0    0 -0.28270289481E+02 -0.19013943567E+02 -0.12301702287E+03  0.12764766834E+03  0.00000000000E+00 0.  1.
</event>
<event>
12    1  0.2625820E-002  0.2174638E+03  0.7818608E-02  0.1135788E+00
          1   -1    0    0  502    0  0.00000000000E+00  0.00000000000E+00  0.32484499595E+03  0.32484499595E+03  0.00000000000E+00 0. -1.
         -1   -1    0    0    0  501 -0.00000000000E+00 -0.00000000000E+00 -0.14580282326E+03  0.14580282326E+03  0.00000000000E+00 0.  1.
          6    2    1    2  502    0  0.12982507938E+03 -0.27658826258E+02  0.80212802424E+02  0.23159302763E+03  0.17199324076E+03 0.  0.
         24    2    3    3    0    0 -0.48057789640E+01 -0.21743610758E+02  0.26393158514E+02  0.86406589341E+02  0.79206185017E+02 0.  0.
         -6    2    1    2    0  501 -0.12982507938E+03  0.27658826258E+02  0.98829370270E+02  0.23905479158E+03  0.17251199102E+03 0.  0.
        -24    2    5    5    0    0 -0.13284955576E+03  0.65505420971E+02  0.44750639506E+02  0.17281197076E+03  0.76950587132E+02 0.  0.
          5    1    3    3  502    0  0.13463085834E+03 -0.59152154993E+01  0.53819643910E+02  0.14518643829E+03  0.47000000000E+01 0. -1.
        -13    1    4    4    0    0  0.34632902430E+02  0.38261630673E+01  0.15624392665E+02  0.38186373233E+02  0.00000000000E+00 0.  1.
         14    1    4    4    0    0 -0.39438681394E+02 -0.25569773826E+02  0.10768765849E+02  0.48220216108E+02  0.00000000000E+00 0. -1.
         -5    1    5    5    0  501  0.30244763857E+01 -0.37846594713E+02  0.54078730765E+02  0.66242820818E+02  0.47000000000E+01 0.  1.
         11    1    6    6    0    0 -0.69524799881E+02  0.75552668542E+02  0.24266501466E+02  0.10550244839E+03  0.00000000000E+00 0. -1.
        -12    1    6    6    0    0 -0.63324755880E+02 -0.10047247572E+02  0.20484138040E+02  0.67309522375E+02  0.00000000000E+00 0.  1.
</event>
<event>
12    1  0.2625820E-002  0.1836037E+03  0.7818608E-02  0.1164360E+00
         -2   -1    0    0    0  501 -0.00000000000E+00  0.00000000000E+00  0.25238756061E+02  0.25238756061E+02  0.00000000000E+00 0.  1.
          2   -1    0    0  502    0  0.00000000000E+00 -0.00000000000E+00 -0.19697808530E+04  0.19697808530E+04  0.00000000000E+00 0. -1.
          6    2    1    2  502    0 -0.43494014027E+02 -0.48168517809E+02 -0.15381900961E+04  0.15491073795E+04  0.17173516300E+03 0.  0.
         24    2    3    3    0    0  0.40057633223E+02 -0.31868206169E+02 -0.68756842158E+03  0.69422381957E+03  0.81093654302E+02 0.  0.
         -6    2    1    2    0  501  0.43494014027E+02  0.48168517809E+02 -0.40635200083E+03  0.44591222952E+03  0.17176679683E+03 0.  0.
        -24    2    5    5    0    0  0.89874153130E+01  0.88233095901E+02 -0.34273522145E+03  0.36305656954E+03  0.80478492882E+02 0.  0.
          5    1    3    3  502    0 -0.83551647249E+02 -0.16300311641E+02 -0.85062167449E+03  0.85488355992E+03  0.47000000000E+01 0. -1.
        -13    1    4    4    0    0  0.24942435780E+02 -0.52811010646E+02 -0.29031066607E+03  0.29612735568E+03  0.00000000000E+00 0.  1.
         14    1    4    4    0    0  0.15115197443E+02  0.20942804477E+02 -0.39725775551E+03  0.39809646389E+03  0.00000000000E+00 0. -1.
         -5    1    5    5    0  501  0.34506598714E+02 -0.40064578092E+02 -0.63616779382E+02  0.82855659984E+02  0.47000000000E+01 0.  1.
         13    1    6    6    0    0  0.23863574871E+02  0.90190295279E+02 -0.33131735974E+03  0.34420190649E+03  0.00000000000E+00 0. -1.
        -14    1    6    6    0    0 -0.14876159558E+02 -0.19571993779E+01 -0.11417861714E+02  0.18854663050E+02  0.00000000000E+00 0.  1.
</event>
<event>
12    1  0.2625820E-002  0.1992370E+03  0.7818608E-02  0.1150384E+00
         -2   -1    0    0    0  501 -0.00000000000E+00  0.00000000000E+00  0.61593013854E+02  0.61593013854E+02  0.00000000000E+00 0. -1.
          2   -1    0    0  502    0  0.00000000000E+00 -0.00000000000E+00 -0.71254329419E+03  0.71254329419E+03  0.00000000000E+00 0.  1.
          6    2    1    2  502    0 -0.74036989674E+02  0.67052569058E+02 -0.44460845850E+03  0.48707148033E+03  0.17200122882E+03 0.  0.
         24    2    3    3    0    0 -0.34231530603E+02  0.13349338488E+02 -0.39269317611E+03  0.40230239344E+03  0.79304997810E+02 0.  0.
         -6    2    1    2    0  501  0.74036989674E+02 -0.67052569058E+02 -0.20634182183E+03  0.28706482772E+03  0.17277657544E+03 0.  0.
        -24    2    5    5    0    0  0.11863001046E+03 -0.44107346810E+02 -0.15488270955E+03  0.21505683536E+03  0.79007919181E+02 0.  0.
          5    1    3    3  502    0 -0.39805459071E+02  0.53703230570E+02 -0.51915282394E+02  0.84769086887E+02  0.47000000000E+01 0. -1.
        -11    1    4    4    0    0  0.11651151771E+02 -0.20506879097E+02 -0.55224702657E+02  0.60050388937E+02  0.00000000000E+00 0.  1.
         12    1    4    4    0    0 -0.45882682373E+02  0.33856217585E+02 -0.33746847345E+03  0.34225200450E+03  0.00000000000E+00 0. -1.
         -5    1    5    5    0  501 -0.44593020785E+02 -0.22945222248E+02 -0.51459112282E+02  0.72007992359E+02  0.47000000000E+01 0.  1.
         11    1    6    6    0    0  0.10019771651E+03 -0.79804920024E+01 -0.74810859320E+02  0.12529938276E+03  0.00000000000E+00 0. -1.
        -12    1    6    6    0    0  0.18432293945E+02 -0.36126854807E+02 -0.80071850231E+02  0.89757452603E+02  0.00000000000E+00 0.  1.
</event>
<event>
12    1  0.2625820E-002  0.1921331E+03  0.7818608E-02  0.1156551E+00
         -3   -1    0    0    0  501 -0.00000000000E+00  0.00000000000E+00  0.25011036180E+02  0.25011036180E+02  0.00000000000E+00 0. -1.
          3   -1    0    0  502    0  0.00000000000E+00 -0.00000000000E+00 -0.14802080708E+04  0.14802080708E+04  0.00000000000E+00 0.  1.
          6    2    1    2  502    0 -0.58643527731E+02 -0.59061912886E+02 -0.76865154241E+03  0.79234618489E+03  0.17337794023E+03 0.  0.
         24    2    3    3    0    0  0.20498967675E+02  0.13341528463E+02 -0.31302273864E+03  0.32423776825E+03  0.80923985319E+02 0.  0.
         -6    2    1    2    0  501  0.58643527731E+02  0.59061912886E+02 -0.68654549223E+03  0.71287292211E+03  0.17296160638E+03 0.  0.
        -24    2    5    5    0    0 -0.29648712620E+02  0.50874899032E+02 -0.29214220949E+03  0.30859753783E+03  0.80112847136E+02 0.  0.
          5    1    3    3  502    0 -0.79142495405E+02 -0.72403441349E+02 -0.45562880378E+03  0.46810841664E+03  0.47000000000E+01 0. -1.
        -11    1    4    4    0    0 -0.24985997474E+01 -0.81627339445E+00 -0.28607335992E+03  0.28608543577E+03  0.00000000000E+00 0.  1.
         12    1    4    4    0    0  0.22997567422E+02  0.14157801857E+02 -0.26949378719E+02  0.38152332486E+02  0.00000000000E+00 0. -1.
         -5    1    5    5    0  501  0.88292240351E+02  0.81870138543E+01 -0.39440328273E+03  0.40427538428E+03  0.47000000000E+01 0.  1.
         13    1    6    6    0    0 -0.24287371481E+02  0.70951418950E+02 -0.25752650748E+03  0.26822356779E+03  0.00000000000E+00 0. -1.
        -14    1    6    6    0    0 -0.53613411390E+01 -0.20076519918E+02 -0.34615702014E+02  0.40373970039E+02  0.00000000000E+00 0.  1.
</event>
<event>
12    1  0.2625820E-002  0.1858256E+03  0.7818608E-02  0.1162281E+00
         -1   -1    0    0    0  501 -0.00000000000E+00  0.00000000000E+00  0.27023705633E+02  0.27023705633E+02  0.00000000000E+00 0. -1.
          1   -1    0    0  502    0  0.00000000000E+00 -0.00000000000E+00 -0.13240699778E+04  0.13240699778E+04  0.00000000000E+00 0.  1.
          6    2    1    2  502    0  0.28090806234E+02 -0.62436055911E+02 -0.77505736463E+03  0.79704092057E+03  0.17283794757E+03 0.  0.
         24    2    3    3    0    0 -0.40355631916E+02 -0.62056844114E+02 -0.58523518640E+03  0.59520036953E+03  0.79269335519E+02 0.  0.
         -6    2    1    2    0  501 -0.28090806234E+02  0.62436055911E+02 -0.52198890755E+03  0.55405276288E+03  0.17266930814E+03 0.  0.
        -24    2    5    5    0    0  0.37509371302E+02  0.47434972361E+02 -0.42035875061E+03  0.43207245873E+03  0.79549361027E+02 0.  0.
          5    1    3    3  502    0  0.68446438150E+02 -0.37921179681E+00 -0.18982217823E+03  0.20184055104E+03  0.47000000000E+01 0. -1.
        -11    1    4    4    0    0 -0.20258041913E+02 -0.52686731586E+02 -0.16514801864E+03  0.17452835875E+03  0.00000000000E+00 0.  1.
         12    1    4    4    0    0 -0.20097590002E+02 -0.93701125289E+01 -0.42008716776E+03  0.42067201078E+03  0.00000000000E+00 0. -1.
         -5    1    5    5    0  501 -0.65600177536E+02  0.15001083550E+02 -0.10163015694E+03  0.12198030415E+03  0.47000000000E+01 0.  1.
         13    1    6    6    0    0  0.85593330778E+01  0.94026572925E+01 -0.45180995126E+01  0.13493901219E+02  0.00000000000E+00 0. -1.
        -14    1    6    6    0    0  0.28950038224E+02  0.38032315068E+02 -0.41584065110E+03  0.41857855751E+03  0.00000000000E+00 0.  1.
</event>
<event>
12    1  0.2625820E-002  0.1785303E+03  0.7818608E-02  0.1169233E+00
          1   -1    0    0  502    0  0.00000000000E+00  0.00000000000E+00  0.16308132686E+04  0.16308132686E+04  0.00000000000E+00 0. -1.
         -1   -1    0    0    0  501 -0.00000000000E+00 -0.00000000000E+00 -0.24522788418E+02  0.24522788418E+02  0.00000000000E+00 0.  1.
          6    2    1    2  502    0 -0.32944160204E+02 -0.35206261176E+02  0.11778562119E+04  0.11913846430E+04  0.17241610506E+03 0.  0.
         24    2    3    3    0    0 -0.78092360449E+02  0.24022102890E+01  0.92847332040E+03  0.93512954811E+03  0.79374918499E+02 0.  0.
         -6    2    1    2    0  501  0.32944160204E+02  0.35206261176E+02  0.42843426831E+03  0.46395141399E+03  0.17137734320E+03 0.  0.
        -24    2    5    5    0    0  0.81751380518E+01 -0.29242879753E+02  0.34595853207E+03  0.35628743072E+03  0.79570399515E+02 0.  0.
          5    1    3    3  502    0  0.45148200245E+02 -0.37608471465E+02  0.24938289148E+03  0.25625509492E+03  0.47000000000E+01 0. -1.
        -13    1    4    4    0    0  0.86176612656E+01  0.19149278757E+02  0.11747430490E+03  0.11933637867E+03  0.00000000000E+00 0.  1.
         14    1    4    4    0    0 -0.86710021715E+02 -0.16747068467E+02  0.81099901550E+03  0.81579316944E+03  0.00000000000E+00 0. -1.
         -5    1    5    5    0  501  0.24769022152E+02  0.64449140929E+02  0.82475736243E+02  0.10766398327E+03  0.47000000000E+01 0.  1.
         13    1    6    6    0    0  0.43344058339E+02 -0.18619972875E+02  0.16362871467E+03  0.17029317969E+03  0.00000000000E+00 0. -1.
        -14    1    6    6    0    0 -0.35168920287E+02 -0.10622906878E+02  0.18232981740E+03  0.18599425103E+03  0.00000000000E+00 0.  1.
</event>
<event>
12    1  0.2625820E-002  0.1836961E+03  0.7818608E-02  0.1164273E+00
         -1   -1    0    0    0  501 -0.00000000000E+00  0.00000000000E+00  0.49368369464E+03  0.49368369464E+03  0.00000000000E+00 0. -1.
          1   -1    0    0  502    0  0.00000000000E+00 -0.00000000000E+00 -0.10617753566E+03  0.10617753566E+03  0.00000000000E+00 0.  1.
          6    2    1    2  502    0 -0.21539542296E+02 -0.29758016027E+02  0.37758766329E+03  0.42337383580E+03  0.18794539094E+03 0.  0.
         24    2    3    3    0    0  0.63020978028E+02 -0.68074818610E+01  0.24804654908E+03  0.26691234250E+03  0.75479285825E+02 0.  0.
         -6    2    1    2    0  501  0.21539542296E+02  0.29758016027E+02  0.99184957003E+01  0.17648739450E+03  0.17233668344E+03 0.  0.
        -24    2    5    5    0    0  0.49746321596E+02  0.22680556238E+02 -0.55646376063E+02  0.10460864072E+03  0.69694651160E+02 0.  0.
          5    1    3    3  502    0 -0.84560520323E+02 -0.22950534166E+02  0.12954111421E+03  0.15646149330E+03  0.47000000000E+01 0. -1.
        -11    1    4    4    0    0  0.38705422319E+02  0.32328384134E+02  0.10227261992E+03  0.11403035965E+03  0.00000000000E+00 0.  1.
         12    1    4    4    0    0  0.24315555709E+02 -0.39135865995E+02  0.14577392917E+03  0.15288198285E+03  0.00000000000E+00 0. -1.
         -5    1    5    5    0  501 -0.28206779300E+02  0.70774597891E+01  0.65564871763E+02  0.71878753779E+02  0.47000000000E+01 0.  1.
         11    1    6    6    0    0 -0.12209807758E+02 -0.12322622707E+02 -0.92516688176E+01  0.19660107115E+02  0.00000000000E+00 0. -1.
        -12    1    6    6    0    0  0.61956129354E+02  0.35003178945E+02 -0.46394707245E+02  0.84948533602E+02  0.00000000000E+00 0.  1.
</event>
<event>
12    1  0.2625820E-002  0.2489300E+03  0.7818608E-02  0.1113983E+00
         -2   -1    0    0    0  501 -0.00000000000E+00  0.00000000000E+00  0.24971183033E+03  0.24971183033E+03  0.00000000000E+00 0. -1.
          2   -1    0    0  502    0  0.00000000000E+00 -0.00000000000E+00 -0.46589088847E+03  0.46589088847E+03  0.00000000000E+00 0.  1.
          6    2    1    2  502    0  0.74216684012E+02 -0.16409982444E+03 -0.35274657203E+03  0.43186096175E+03  0.17215364544E+03 0.  0.
         24    2    3    3    0    0  0.73495231119E+02 -0.42244452689E+02 -0.23019052887E+03  0.25896988091E+03  0.83015521790E+02 0.  0.
         -6    2    1    2    0  501 -0.74216684012E+02  0.16409982444E+03  0.13656751389E+03  0.28374175706E+03  0.17152792859E+03 0.  0.
        -24    2    5    5    0    0 -0.10700435418E+03  0.10367699214E+03  0.55304588190E+02  0.17719738570E+03  0.78367502894E+02 0.  0.
          5    1    3    3  502    0  0.72145289288E+00 -0.12185537175E+03 -0.12255604316E+03  0.17289108084E+03  0.47000000000E+01 0. -1.
        -13    1    4    4    0    0  0.70670490447E+02 -0.62590204794E+02 -0.15937701604E+03  0.18523737527E+03  0.00000000000E+00 0.  1.
         14    1    4    4    0    0  0.28247406722E+01  0.20345752105E+02 -0.70813512828E+02  0.73732505638E+02  0.00000000000E+00 0. -1.
         -5    1    5    5    0  501  0.32787670163E+02  0.60422832293E+02  0.81262925696E+02  0.10654437137E+03  0.47000000000E+01 0.  1.
         11    1    6    6    0    0 -0.25514460742E+02  0.78305514464E+02  0.19444517713E+02  0.84621690905E+02  0.00000000000E+00 0. -1.
        -12    1    6    6    0    0 -0.81489893433E+02  0.25371477681E+02  0.35860070477E+02  0.92575694791E+02  0.00000000000E+00 0.  1.
</event>
<event>
12    1  0.2625820E-002  0.1927003E+03  0.7818608E-02  0.1156048E+00
          2   -1    0    0  502    0  0.00000000000E+00  0.00000000000E+00  0.14512381350E+04  0.14512381350E+04  0.00000000000E+00 0. -1.
         -2   -1    0    0    0  501 -0.00000000000E+00 -0.00000000000E+00 -0.37589054183E+02  0.37589054183E+02  0.00000000000E+00 0.  1.
          6    2    1    2  502    0 -0.29555015236E+02 -0.86661012906E+02  0.28038443047E+03  0.33889534257E+03  0.16688617163E+03 0.  0.
         24    2    3    3    0    0 -0.80892356664E+02 -0.43758035987E+02  0.20068623908E+03  0.23473162641E+03  0.79784903342E+02 0.  0.
         -6    2    1    2    0  501  0.29555015236E+02  0.86661012906E+02  0.11332646504E+04  0.11499318467E+04  0.17225229766E+03 0.  0.
        -24    2    5    5    0    0  0.72811206298E+02  0.19987195537E+02  0.78037258504E+03  0.78817032884E+03  0.80809257080E+02 0.  0.
          5    1    3    3  502    0  0.51337341427E+02 -0.42902976919E+02  0.79698191388E+02  0.10416371616E+03  0.47000000000E+01 0. -1.
        -13    1    4    4    0    0 -0.51560659617E+02 -0.56750595773E+02  0.84075102406E+02  0.11378820055E+03  0.00000000000E+00 0.  1.
         14    1    4    4    0    0 -0.29331697047E+02  0.12992559787E+02  0.11661113668E+03  0.12094342586E+03  0.00000000000E+00 0. -1.
         -5    1    5    5    0  501 -0.43256191062E+02  0.66673817368E+02  0.35289206535E+03  0.36176151782E+03  0.47000000000E+01 0.  1.
         13    1    6    6    0    0  0.54405126904E+02  0.19299216738E+02  0.75280889960E+03  0.75501895136E+03  0.00000000000E+00 0. -1.
        -14    1    6    6    0    0  0.18406079394E+02  0.68797879935E+00  0.27563685446E+02  0.33151377480E+02  0.00000000000E+00 0.  1.
</event>
<event>
12    1  0.2625820E-002  0.1766283E+03  0.7818608E-02  0.1171107E+00
         -2   -1    0    0    0  501 -0.00000000000E+00  0.00000000000E+00  0.34461591471E+02  0.34461591471E+02  0.00000000000E+00 0. -1.
          2   -1    0    0  502    0  0.00000000000E+00 -0.00000000000E+00 -0.90699932963E+03  0.90699932963E+03  0.00000000000E+00 0.  1.
          6    2    1    2  502    0  0.11906892933E+02 -0.18528356954E+01 -0.41847198053E+03  0.45461553305E+03  0.17723226937E+03 0.  0.
         24    2    3    3    0    0  0.19626823605E+02 -0.69043188158E+02 -0.24944155636E+03  0.27249602534E+03  0.82950706767E+02 0.  0.
         -6    2    1    2    0  501 -0.11906892933E+02  0.18528356954E+01 -0.45406575763E+03  0.48684538805E+03  0.17520705611E+03 0.  0.
        -24    2    5    5    0    0  0.44860659130E+02 -0.37942130023E+02 -0.20176232698E+03  0.22514841561E+03  0.80818862257E+02 0.  0.
          5    1    3    3  502    0 -0.77199306716E+01  0.67190352462E+02 -0.16903042417E+03  0.18211950771E+03  0.47000000000E+01 0. -1.
        -11    1    4    4    0    0 -0.85094697904E+01 -0.91943209290E+01 -0.16386837787E+03  0.16434656029E+03  0.00000000000E+00 0.  1.
         12    1    4    4    0    0  0.28136293395E+02 -0.59848867229E+02 -0.85573178490E+02  0.10814946505E+03  0.00000000000E+00 0. -1.
         -5    1    5    5    0  501 -0.56767552063E+02  0.39794965718E+02 -0.25230343065E+03  0.26169697244E+03  0.47000000000E+01 0.  1.
         13    1    6    6    0    0 -0.50622317451E+01 -0.34888797734E+02 -0.30125113097E+02  0.46372155834E+02  0.00000000000E+00 0. -1.
        -14    1    6    6    0    0  0.49922890876E+02 -0.30533322891E+01 -0.17163721388E+03  0.17877625978E+03  0.00000000000E+00 0.  1.
</event>
<event>
12    1  0.2625820E-002  0.1708134E+03  0.7818608E-02  0.1177002E+00
         -2   -1    0    0    0  501 -0.00000000000E+00  0.00000000000E+00  0.14285300009E+03  0.14285300009E+03  0.00000000000E+00 0.  1.
          2   -1    0    0  502    0  0.00000000000E+00 -0.00000000000E+00 -0.20469348654E+03  0.20469348654E+03  0.00000000000E+00 0. -1.
          6    2    1    2  502    0 -0.34902590418E+01  0.12427661351E+02 -0.39094047352E+02  0.17762384249E+03  0.17278673621E+03 0.  0.
         24    2    3    3    0    0  0.48258383905E+02  0.47962703350E+02 -0.29961835009E+01  0.10505796186E+03  0.79993160368E+02 0.  0.
         -6    2    1    2    0  501  0.34902590418E+01 -0.12427661351E+02 -0.22746439097E+02  0.16992264414E+03  0.16789781364E+03 0.  0.
        -24    2    5    5    0    0 -0.60476642285E+00 -0.65778588070E+01 -0.79175630310E+02  0.11284959407E+03  0.80141228332E+02 0.  0.
          5    1    3    3  502    0 -0.51748642947E+02 -0.35535042000E+02 -0.36097863851E+02  0.72565880629E+02  0.47000000000E+01 0. -1.
        -11    1    4    4    0    0 -0.90003027218E+01  0.32160605545E+02  0.22656401058E+02  0.40356195398E+02  0.00000000000E+00 0.  1.
         12    1    4    4    0    0  0.57258686627E+02  0.15802097806E+02 -0.25652584559E+02  0.64701766466E+02  0.00000000000E+00 0. -1.
         -5    1    5    5    0  501  0.40950254646E+01 -0.58498025435E+01  0.56429191213E+02  0.57073050070E+02  0.47000000000E+01 0.  1.
         13    1    6    6    0    0 -0.32177466948E+02 -0.91123274107E+01 -0.73390936971E+02  0.80651432222E+02  0.00000000000E+00 0. -1.
        -14    1    6    6    0    0  0.31572700525E+02  0.25344686037E+01 -0.57846933390E+01  0.32198161851E+02  0.00000000000E+00 0.  1.
</event>
<event>
12    1  0.2625820E-002  0.1805683E+03  0.7818608E-02  0.1167254E+00
          2   -1    0    0  502    0  0.00000000000E+00  0.00000000000E+00  0.26222869807E+03  0.26222869807E+03  0.00000000000E+00 0.  1.
         -2   -1    0    0    0  501 -0.00000000000E+00 -0.00000000000E+00 -0.12577877861E+03  0.12577877861E+03  0.00000000000E+00 0. -1.
          6    2    1    2  502    0 -0.27400699382E+02  0.49155824060E+02  0.47783784440E+02  0.18757846472E+03  0.17243925599E+03 0.  0.
         24    2    3    3    0    0  0.43022247957E+02  0.55428867248E+02  0.78132988635E+01  0.10622447096E+03  0.79368239548E+02 0.  0.
         -6    2    1    2    0  501  0.27400699382E+02 -0.49155824060E+02  0.88666135021E+02  0.20042901196E+03  0.17071324486E+03 0.  0.
        -24    2    5    5    0    0  0.26919112733E+02 -0.96234756472E+02  0.42967653279E+02  0.13464832303E+03  0.79361103083E+02 0.  0.
          5    1    3    3  502    0 -0.70422947338E+02 -0.62730431882E+01  0.39970485576E+02  0.81353993755E+02  0.47000000000E+01 0. -1.
        -11    1    4    4    0    0  0.32716576942E+01 -0.20098931116E+02  0.42392637308E+01  0.20800051276E+02  0.00000000000E+00 0.  1.
         12    1    4    4    0    0  0.39750590263E+02  0.75527798365E+02  0.35740351328E+01  0.85424419689E+02  0.00000000000E+00 0. -1.
         -5    1    5    5    0  501  0.48158664882E+00  0.47078932412E+02  0.45698481742E+02  0.65780688931E+02  0.47000000000E+01 0.  1.
         13    1    6    6    0    0  0.37884515725E+02 -0.27148942824E+02 -0.90475165605E+01  0.47477986310E+02  0.00000000000E+00 0. -1.
        -14    1    6    6    0    0 -0.10965402992E+02 -0.69085813647E+02  0.52015169839E+02  0.87170336718E+02  0.00000000000E+00 0.  1.
</event>
<event>
12    1  0.2625820E-002  0.2171386E+03  0.7818608E-02  0.1136035E+00
          2   -1    0    0  502    0  0.00000000000E+00  0.00000000000E+00  0.18772724073E+03  0.18772724073E+03  0.00000000000E+00 0.  1.
         -2   -1    0    0    0  501 -0.00000000000E+00 -0.00000000000E+00 -0.32979777834E+03  0.32979777834E+03  0.00000000000E+00 0. -1.
          6    2    1    2  502    0 -0.61526340774E+02  0.11974226814E+03 -0.19688116726E+03  0.29165741056E+03  0.16786348540E+03 0.  0.
         24    2    3    3    0    0 -0.95504563153E+02  0.49135978110E+02 -0.10023583351E+03  0.16714966654E+03  0.79726550012E+02 0.  0.
         -6    2    1    2    0  501  0.61526340774E+02 -0.11974226814E+03  0.54810629646E+02  0.22586760851E+03  0.17288224334E+03 0.  0.
        -24    2    5    5    0    0  0.35971073250E+02 -0.12161444268E+03  0.94294471548E+02  0.17856390350E+03  0.83124181146E+02 0.  0.
          5    1    3    3  502    0  0.33978222379E+02  0.70606290026E+02 -0.96645333748E+02  0.12450774403E+03  0.47000000000E+01 0. -1.
        -11    1    4    4    0    0 -0.14465007431E+02  0.81118995674E-01  0.13045975632E+02  0.19479232543E+02  0.00000000000E+00 0.  1.
         12    1    4    4    0    0 -0.81039555722E+02  0.49054859115E+02 -0.11328180914E+03  0.14767043400E+03  0.00000000000E+00 0. -1.
         -5    1    5    5    0  501  0.25555267524E+02  0.18721745429E+01 -0.39483841902E+02  0.47303705004E+02  0.47000000000E+01 0.  1.
         13    1    6    6    0    0 -0.23776827330E+02 -0.14818693592E+02  0.26995397589E+02  0.38906075214E+02  0.00000000000E+00 0. -1.
        -14    1    6    6    0    0  0.59747900580E+02 -0.10679574909E+03  0.67299073959E+02  0.13965782829E+03  0.00000000000E+00 0.  1.
</event>
<event>
12    1  0.2625820E-002  0.1803700E+03  0.7818608E-02  0.1167445E+00
         -1   -1    0    0    0  501 -0.00000000000E+00  0.00000000000E+00  0.12706810126E+03  0.12706810126E+03  0.00000000000E+00 0. -1.
          1   -1    0    0  502    0  0.00000000000E+00 -0.00000000000E+00 -0.30600589602E+03  0.30600589602E+03  0.00000000000E+00 0.  1.
          6    2    1    2  502    0  0.15114287972E+02 -0.45846397574E+02 -0.17689052038E+03  0.25248636400E+03  0.17357642102E+03 0.  0.
         24    2    3    3    0    0 -0.52053699517E+02  0.56725309615E+01 -0.91107275798E+02  0.13187710403E+03  0.79682304321E+02 0.  0.
         -6    2    1    2    0  501 -0.15114287972E+02  0.45846397574E+02 -0.20472743781E+01  0.18058763328E+03  0.17400393125E+03 0.  0.
        -24    2    5    5    0    0 -0.53415146665E+02 -0.15554947097E+02 -0.30549147641E+02  0.10266762504E+03  0.80698553502E+02 0.  0.
          5    1    3    3  502    0  0.67167987489E+02 -0.51518928536E+02 -0.85783244587E+02  0.12060925998E+03  0.47000000000E+01 0. -1.
        -11    1    4    4    0    0  0.10231622891E+02 -0.15151465729E+02 -0.52735332137E+02  0.55814588382E+02  0.00000000000E+00 0.  1.
         12    1    4    4    0    0 -0.62285322408E+02  0.20823996691E+02 -0.38371943661E+02  0.76062515643E+02  0.00000000000E+00 0. -1.
         -5    1    5    5    0  501  0.38300858693E+02  0.61401344671E+02  0.28501873263E+02  0.77920008236E+02  0.47000000000E+01 0.  1.
         11    1    6    6    0    0 -0.83319569653E+01 -0.10934390984E+02  0.26473066185E+02  0.29829610227E+02  0.00000000000E+00 0. -1.
        -12    1    6    6    0    0 -0.45083189700E+02 -0.46205561133E+01 -0.57022213826E+02  0.72838014813E+02  0.00000000000E+00 0.  1.
</event>
<event>
12    1  0.2625820E-002  0.2773973E+03  0.7818608E-02  0.1097119E+00
         -1   -1    0    0    0  501 -0.00000000000E+00  0.00000000000E+00  0.11707506956E+03  0.11707506956E+03  0.00000000000E+00 0.  1.
          1   -1    0    0  502    0  0.00000000000E+00 -0.00000000000E+00 -0.91988095364E+03  0.91988095364E+03  0.00000000000E+00 0. -1.
          6    2    1    2  502    0  0.21889303704E+03 -0.95297942924E+01 -0.67963817438E+03  0.73451445962E+03  0.17204204332E+03 0.  0.
         24    2    3    3    0    0  0.18999155642E+03 -0.54640899120E+02 -0.43997118760E+03  0.48888738066E+03  0.79710762701E+02 0.  0.
         -6    2    1    2    0  501 -0.21889303704E+03  0.95297942924E+01 -0.12316770969E+03  0.30244156359E+03  0.16821306736E+03 0.  0.
        -24    2    5    5    0    0 -0.48495588453E+02  0.41436145056E+02 -0.41766133927E+02  0.11086491511E+03  0.80485049809E+02 0.  0.
          5    1    3    3  502    0  0.28901480614E+02  0.45111104827E+02 -0.23966698679E+03  0.24562707895E+03  0.47000000000E+01 0. -1.
        -11    1    4    4    0    0  0.53861174849E+02  0.14763374099E+02 -0.77507947032E+02  0.95532534898E+02  0.00000000000E+00 0.  1.
         12    1    4    4    0    0  0.13613038158E+03 -0.69404273219E+02 -0.36246324056E+03  0.39335484577E+03  0.00000000000E+00 0. -1.
         -5    1    5    5    0  501 -0.17039744858E+03 -0.31906350764E+02 -0.81401575768E+02  0.19157664847E+03  0.47000000000E+01 0.  1.
         11    1    6    6    0    0 -0.53286975160E+02  0.14169242090E+02 -0.56967310365E+02  0.79281420227E+02  0.00000000000E+00 0. -1.
        -12    1    6    6    0    0  0.47913867063E+01  0.27266902966E+02  0.15201176438E+02  0.31583494883E+02  0.00000000000E+00 0.  1.
</event>
<event>
12    1  0.2625820E-002  0.2348989E+03  0.7818608E-02  0.1123238E+00
         -2   -1    0    0    0  501 -0.00000000000E+00  0.00000000000E+00  0.31236754308E+03  0.31236754308E+03  0.00000000000E+00 0.  1.
          2   -1    0    0  502    0  0.00000000000E+00 -0.00000000000E+00 -0.20033141449E+03  0.20033141449E+03  0.00000000000E+00 0. -1.
          6    2    1    2  502    0 -0.10454048102E+03  0.12215466355E+03  0.14421306410E+03  0.27581559128E+03  0.17154112782E+03 0.  0.
         24    2    3    3    0    0 -0.68537269704E+02  0.33058537250E+02  0.98965741742E+01  0.11059646280E+03  0.79645534592E+02 0.  0.
         -6    2    1    2    0  501  0.10454048102E+03 -0.12215466355E+03 -0.32176935516E+02  0.23688336629E+03  0.17096169175E+03 0.  0.
        -24    2    5    5    0    0  0.11277299160E+03 -0.49686190712E+02  0.18523261013E+02  0.14793364052E+03  0.79716909216E+02 0.  0.
          5    1    3    3  502    0 -0.36003211312E+02  0.89096126303E+02  0.13431648993E+03  0.16521912847E+03  0.47000000000E+01 0. -1.
        -11    1    4    4    0    0 -0.14758272744E+01 -0.18502140789E+02 -0.13356489757E+02  0.22867074552E+02  0.00000000000E+00 0.  1.
         12    1    4    4    0    0 -0.67061442429E+02  0.51560678039E+02  0.23253063931E+02  0.87729388250E+02  0.00000000000E+00 0. -1.
         -5    1    5    5    0  501 -0.82325105892E+01 -0.72468472841E+02 -0.50700196529E+02  0.88949725770E+02  0.47000000000E+01 0.  1.
         11    1    6    6    0    0  0.36522928622E+02 -0.80536013732E+01 -0.30429411191E+02  0.48215494145E+02  0.00000000000E+00 0. -1.
        -12    1    6    6    0    0  0.76250062983E+02 -0.41632589339E+02  0.48952672204E+02  0.99718146372E+02  0.00000000000E+00 0.  1.
</event>
<event>
12    1  0.2625820E-002  0.3065449E+03  0.7818608E-02  0.1082014E+00
         -1   -1    0    0    0  501 -0.00000000000E+00  0.00000000000E+00  0.77531658109E+02  0.77531658109E+02  0.00000000000E+00 0. -1.
          1   -1    0    0  502    0  0.00000000000E+00 -0.00000000000E+00 -0.12122915610E+04  0.12122915610E+04  0.00000000000E+00 0.  1.
          6    2    1    2  502    0  0.86357108613E+02 -0.24108716461E+03 -0.55479128431E+03  0.63278610117E+03  0.16445154158E+03 0.  0.
         24    2    3    3    0    0  0.14433639694E+01 -0.13271386752E+03 -0.37992626150E+03  0.41017661853E+03  0.79283291335E+02 0.  0.
         -6    2    1    2    0  501 -0.86357108613E+02  0.24108716461E+03 -0.57996861854E+03  0.65703711791E+03  0.17249233220E+03 0.  0.
        -24    2    5    5    0    0 -0.69280589357E+02  0.19829373580E+03 -0.31885098419E+03  0.39184399200E+03  0.88065647266E+02 0.  0.
          5    1    3    3  502    0  0.84913744643E+02 -0.10837329710E+03 -0.17486502282E+03  0.22260948263E+03  0.47000000000E+01 0. -1.
        -11    1    4    4    0    0  0.40036943228E+02 -0.70179081947E+02 -0.21205293112E+03  0.22692400923E+03  0.00000000000E+00 0.  1.
         12    1    4    4    0    0 -0.38593579259E+02 -0.62534785569E+02 -0.16787333037E+03  0.18325260930E+03  0.00000000000E+00 0. -1.
         -5    1    5    5    0  501 -0.17076519256E+02  0.42793428810E+02 -0.26111763436E+03  0.26519312591E+03  0.47000000000E+01 0.  1.
         11    1    6    6    0    0 -0.77031604536E+00  0.10190265464E+01  0.57382884988E+01  0.58787546987E+01  0.00000000000E+00 0. -1.
        -12    1    6    6    0    0 -0.68510273312E+02  0.19727470926E+03 -0.32458927269E+03  0.38596523730E+03  0.00000000000E+00 0.  1.
</event>
<event>
12    1  0.2625820E-002  0.3291279E+03  0.7818608E-02  0.1071523E+00
         -2   -1    0    0    0  501 -0.00000000000E+00  0.00000000000E+00  0.16869812342E+03  0.16869812342E+03  0.00000000000E+00 0. -1.
          2   -1    0    0  502    0  0.00000000000E+00 -0.00000000000E+00 -0.10695318799E+04  0.10695318799E+04  0.00000000000E+00 0.  1.
          6    2    1    2  502    0  0.21838891392E+03 -0.17551456904E+03 -0.84209386868E+03  0.90426103737E+03  0.17339797685E+03 0.  0.
         24    2    3    3    0    0  0.19729791475E+03 -0.12205006498E+03 -0.49413138609E+03  0.55155257032E+03  0.78877915678E+02 0.  0.
         -6    2    1    2    0  501 -0.21838891392E+03  0.17551456904E+03 -0.58739887822E+02  0.33396896596E+03  0.17200527357E+03 0.  0.
        -24    2    5    5    0    0 -0.41827360039E+02  0.29164210751E+02 -0.48675744911E+02  0.10436977900E+03  0.76965208957E+02 0.  0.
          5    1    3    3  502    0  0.21090999168E+02 -0.53464504061E+02 -0.34796248259E+03  0.35270846705E+03  0.47000000000E+01 0. -1.
        -13    1    4    4    0    0  0.10563688439E+03 -0.95997958574E+02 -0.35778136891E+03  0.38520418914E+03  0.00000000000E+00 0.  1.
         14    1    4    4    0    0  0.91661030367E+02 -0.26052106403E+02 -0.13635001718E+03  0.16634838118E+03  0.00000000000E+00 0. -1.
         -5    1    5    5    0  501 -0.17656155388E+03  0.14635035829E+03 -0.10064142911E+02  0.22959918696E+03  0.47000000000E+01 0.  1.
         11    1    6    6    0    0 -0.10354703128E+02  0.39258354489E+02  0.54350908258E+01  0.40963135699E+02  0.00000000000E+00 0. -1.
        -12    1    6    6    0    0 -0.31472656911E+02 -0.10094143738E+02 -0.54110835737E+02  0.63406643303E+02  0.00000000000E+00 0.  1.
</event>
<event>
12    1  0.2625820E-002  0.1977892E+03  0.7818608E-02  0.1151618E+00
         -2   -1    0    0    0  501 -0.00000000000E+00  0.00000000000E+00  0.20479231571E+02  0.20479231571E+02  0.00000000000E+00 0.  1.
          2   -1    0    0  502    0  0.00000000000E+00 -0.00000000000E+00 -0.19376780790E+04  0.19376780790E+04  0.00000000000E+00 0. -1.
          6    2    1    2  502    0  0.94505489326E+02  0.55494704357E+01 -0.10876622679E+04  0.11060094201E+04  0.17687720096E+03 0.  0.
         24    2    3    3    0    0  0.21493839685E+02 -0.18772523641E+02 -0.88845303868E+03  0.89240074194E+03  0.78840912602E+02 0.  0.
         -6    2    1    2    0  501 -0.94505489326E+02 -0.55494704357E+01 -0.82953657953E+03  0.85214789047E+03  0.17047875618E+03 0.  0.
        -24    2    5    5    0    0 -0.11356355171E+03 -0.47608378638E+02 -0.67886070144E+03  0.69448536562E+03  0.79339984304E+02 0.  0.
          5    1    3    3  502    0  0.73011649641E+02  0.24321994076E+02 -0.19920922920E+03  0.21360867814E+03  0.47000000000E+01 0. -1.
        -13    1    4    4    0    0  0.35374353169E+01 -0.23850083210E+02 -0.75989156825E+02  0.79722593239E+02  0.00000000000E+00 0.  1.
         14    1    4    4    0    0  0.17956404368E+02  0.50775595698E+01 -0.81246388185E+03  0.81267814870E+03  0.00000000000E+00 0. -1.
         -5    1    5    5    0  501  0.19058062387E+02  0.42058908203E+02 -0.15067587810E+03  0.15766252485E+03  0.47000000000E+01 0.  1.
         11    1    6    6    0    0 -0.48428558761E+02 -0.70793881839E+01 -0.45945882379E+03  0.46205827965E+03  0.00000000000E+00 0. -1.
        -12    1    6    6    0    0 -0.65134992952E+02 -0.40528990454E+02 -0.21940187765E+03  0.23242708597E+03  0.00000000000E+00 0.  1.
</event>
<event>
12    1  0.2625820E-002  0.2060360E+03  0.7818608E-02  0.1144744E+00
         -2   -1    0    0    0  501 -0.00000000000E+00  0.00000000000E+00  0.56568636234E+02  0.56568636234E+02  0.00000000000E+00 0. -1.
          2   -1    0    0  502    0  0.00000000000E+00 -0.00000000000E+00 -0.82174027496E+03  0.82174027496E+03  0.00000000000E+00 0.  1.
          6    2    1    2  502    0  0.11113263048E+03  0.84330254335E+01 -0.25227471170E+03  0.32536650312E+03  0.17262460345E+03 0.  0.
         24    2    3    3    0    0  0.51416046894E+02 -0.39747274227E+02 -0.21676547894E+03  0.24068824592E+03  0.81976235455E+02 0.  0.
         -6    2    1    2    0  501 -0.11113263048E+03 -0.84330254335E+01 -0.51289692703E+03  0.55294240807E+03  0.17395537190E+03 0.  0.
        -24    2    5    5    0    0 -0.25956511101E+02  0.39946937307E+02 -0.13021036496E+03  0.15788964337E+03  0.75530802148E+02 0.  0.
          5    1    3    3  502    0  0.59716583590E+02  0.48180299661E+02 -0.35509232762E+02  0.84678257200E+02  0.47000000000E+01 0. -1.
        -11    1    4    4    0    0 -0.40356956948E+01  0.16282643711E+02 -0.88951253359E+02  0.90519262039E+02  0.00000000000E+00 0.  1.
         12    1    4    4    0    0  0.55451742588E+02 -0.56029917938E+02 -0.12781422558E+03  0.15016898388E+03  0.00000000000E+00 0. -1.
         -5    1    5    5    0  501 -0.85176119383E+02 -0.48379962741E+02 -0.38268656207E+03  0.39505276470E+03  0.47000000000E+01 0.  1.
         11    1    6    6    0    0 -0.17876592066E+02 -0.25652266195E+01  0.25646444358E+01  0.18240897253E+02  0.00000000000E+00 0. -1.
        -12    1    6    6    0    0 -0.80799190347E+01  0.42512163927E+02 -0.13277500939E+03  0.13964874612E+03  0.00000000000E+00 0.  1.
</event>
<event>
12    1  0.2625820E-002  0.2821828E+03  0.7818608E-02  0.1094503E+00
          3   -1    0    0  502    0  0.00000000000E+00  0.00000000000E+00  0.49217464387E+03  0.49217464387E+03  0.00000000000E+00 0. -1.
         -3   -1    0    0    0  501 -0.00000000000E+00 -0.00000000000E+00 -0.17143384499E+03  0.17143384499E+03  0.00000000000E+00 0.  1.
          6    2    1    2  502    0 -0.11004997235E+03 -0.19392464478E+03  0.81792782577E+02  0.29403761324E+03  0.17335020753E+03 0.  0.
         24    2    3    3    0    0 -0.13522294018E+03 -0.16551166475E+03  0.31001026517E+02  0.23045406012E+03  0.80427952015E+02 0.  0.
         -6    2    1    2    0  501  0.11004997235E+03  0.19392464478E+03  0.23894801630E+03  0.36957087562E+03  0.17253612185E+03 0.  0.
        -24    2    5    5    0    0  0.27412644491E+02  0.34331577504E+02  0.36813525392E+02  0.99054115520E+02  0.80785963247E+02 0.  0.
          5    1    3    3  502    0  0.25172967824E+02 -0.28412980031E+02  0.50791756060E+02  0.63583553117E+02  0.47000000000E+01 0. -1.
        -13    1    4    4    0    0 -0.60470566660E+02 -0.12086536458E+03 -0.72706501637E+01  0.13534396234E+03  0.00000000000E+00 0.  1.
         14    1    4    4    0    0 -0.74752373517E+02 -0.44646300165E+02  0.38271676681E+02  0.95110097786E+02  0.00000000000E+00 0. -1.
         -5    1    5    5    0  501  0.82637327863E+02  0.15959306727E+03  0.20213449091E+03  0.27051676010E+03  0.47000000000E+01 0.  1.
         11    1    6    6    0    0  0.25408462100E+00  0.15445417820E+02  0.57833386565E+02  0.59860889504E+02  0.00000000000E+00 0. -1.
        -12    1    6    6    0    0  0.27158559870E+02  0.18886159684E+02 -0.21019861172E+02  0.39193226016E+02  0.00000000000E+00 0.  1.
</event>
<event>
12    1  0.2625820E-002  0.2024633E+03  0.7818608E-02  0.1147677E+00
          2   -1    0    0  502    0  0.00000000000E+00  0.00000000000E+00  0.18428625561E+04  0.18428625561E+04  0.00000000000E+00 0. -1.
         -2   -1    0    0    0  501 -0.00000000000E+00 -0.00000000000E+00 -0.26015937591E+02  0.26015937591E+02  0.00000000000E+00 0.  1.
          6    2    1    2  502    0 -0.10754190914E+03  0.79011077561E+01  0.12628545574E+04  0.12789234341E+04  0.17092637996E+03 0.  0.
         24    2    3    3    0    0 -0.10958256037E+03 -0.14745483848E+02  0.12352395833E+04  0.12428442272E+04  0.81358332918E+02 0.  0.
         -6    2    1    2    0  501  0.10754190914E+03 -0.79011077561E+01  0.55399206106E+03  0.58995505956E+03  0.17179079970E+03 0.  0.
        -24    2    5    5    0    0 -0.12495882037E+01 -0.38462657687E+02  0.21478395538E+03  0.23238852424E+03  0.79945864181E+02 0.  0.
          5    1    3    3  502    0  0.20406512345E+01  0.22646591604E+02  0.27614974163E+02  0.36079206848E+02  0.47000000000E+01 0. -1.
        -13    1    4    4    0    0 -0.90646253217E+02 -0.31198960335E+02  0.64634946539E+03  0.65342004083E+03  0.00000000000E+00 0.  1.
         14    1    4    4    0    0 -0.18936307157E+02  0.16453476487E+02  0.58889011786E+03  0.58942418642E+03  0.00000000000E+00 0. -1.
         -5    1    5    5    0  501  0.10879149734E+03  0.30561549931E+02  0.33920810567E+03  0.35756653532E+03  0.47000000000E+01 0.  1.
         13    1    6    6    0    0  0.20356207377E+02 -0.56622067480E+02  0.13654323055E+03  0.14921289325E+03  0.00000000000E+00 0. -1.
        -14    1    6    6    0    0 -0.21605795581E+02  0.18159409792E+02  0.78240724837E+02  0.83175630985E+02  0.00000000000E+00 0.  1.
</event>
<event>
12    1  0.2625820E-002  0.1712872E+03  0.7818608E-02  0.1176512E+00
          1   -1    0    0  502    0  0.00000000000E+00  0.00000000000E+00  0.49453511525E+03  0.49453511525E+03  0.00000000000E+00 0.  1.
         -1   -1    0    0    0  501 -0.00000000000E+00 -0.00000000000E+00 -0.59377534842E+02  0.59377534842E+02  0.00000000000E+00 0. -1.
          6    2    1    2  502    0 -0.70608553747E+00 -0.22980999457E+02  0.20775054032E+03  0.26811131134E+03  0.16791296368E+03 0.  0.
         24    2    3    3    0    0 -0.12826985256E+02 -0.59540635296E+02  0.90125568301E+02  0.14425152277E+03  0.94743152559E+02 0.  0.
         -6    2    1    2    0  501  0.70608553747E+00  0.22980999457E+02  0.22740704009E+03  0.28580133875E+03  0.17158035569E+03 0.  0.
        -24    2    5    5    0    0  0.47509995511E+02  0.46961067973E+02  0.76626967191E+02  0.12604411651E+03  0.74517686680E+02 0.  0.
          5    1    3    3  502    0  0.12120899718E+02  0.36559635839E+02  0.11762497202E+03  0.12385978857E+03  0.47000000000E+01 0. -1.
        -13    1    4    4    0    0 -0.31127298188E+02 -0.70287252539E+02  0.95268894426E+02  0.12241474097E+03  0.00000000000E+00 0.  1.
         14    1    4    4    0    0  0.18300312932E+02  0.10746617243E+02 -0.51433261242E+01  0.21836781796E+02  0.00000000000E+00 0. -1.
         -5    1    5    5    0  501 -0.46803909973E+02 -0.23980068516E+02  0.15078007290E+03  0.15975722224E+03  0.47000000000E+01 0.  1.
         13    1    6    6    0    0  0.49406443484E+02 -0.26404680834E+01  0.46971489226E+02  0.68222353591E+02  0.00000000000E+00 0. -1.
        -14    1    6    6    0    0 -0.18964479733E+01  0.49601536056E+02  0.29655477965E+02  0.57821762921E+02  0.00000000000E+00 0.  1.
</event>
<event>
12    1  0.2625820E-002  0.2268470E+03  0.7818608E-02  0.1128879E+00
          2   -1    0    0  502    0  0.00000000000E+00  0.00000000000E+00  0.12333914447E+04  0.12333914447E+04  0.00000000000E+00 0. -1.
         -2   -1    0    0    0  501 -0.00000000000E+00 -0.00000000000E+00 -0.41786928962E+02  0.41786928962E+02  0.00000000000E+00 0.  1.
          6    2    1    2  502    0 -0.68805326175E+02 -0.12437156796E+03  0.56173842734E+03  0.60392039215E+03  0.17019788330E+03 0.  0.
         24    2    3    3    0    0 -0.94282769302E+02 -0.12812408259E+03  0.37248460594E+03  0.41286469245E+03  0.80046558229E+02 0.  0.
         -6    2    1    2    0  501  0.68805326175E+02  0.12437156796E+03  0.62986608837E+03  0.67125798148E+03  0.18344898091E+03 0.  0.
        -24    2    5    5    0    0  0.11772022951E+03  0.11291267367E+03  0.50410556233E+03  0.53575235822E+03  0.79377875055E+02 0.  0.
          5    1    3    3  502    0  0.25477443127E+02  0.37525146256E+01  0.18925382140E+03  0.19105569970E+03  0.47000000000E+01 0. -1.
        -13    1    4    4    0    0 -0.27480505872E+02 -0.93585504227E+02  0.25867888631E+03  0.27645649030E+03  0.00000000000E+00 0.  1.
         14    1    4    4    0    0 -0.66802263430E+02 -0.34538578359E+02  0.11380571963E+03  0.13640820215E+03  0.00000000000E+00 0. -1.
         -5    1    5    5    0  501 -0.48914903339E+02  0.11458894289E+02  0.12576052603E+03  0.13550562326E+03  0.47000000000E+01 0.  1.
         13    1    6    6    0    0 -0.82407024673E+00  0.44308059264E+02  0.13198095345E+03  0.13922232321E+03  0.00000000000E+00 0. -1.
        -14    1    6    6    0    0  0.11854429976E+03  0.68604614408E+02  0.37212460889E+03  0.39653003501E+03  0.00000000000E+00 0.  1.
</event>
<event>
12    1  0.2625820E-002  0.1774811E+03  0.7818608E-02  0.1170263E+00
          2   -1    0    0  502    0  0.00000000000E+00  0.00000000000E+00  0.14272338832E+03  0.14272338832E+03  0.00000000000E+00 0. -1.
         -2   -1    0    0    0  501 -0.00000000000E+00 -0.00000000000E+00 -0.39458760018E+03  0.39458760018E+03  0.00000000000E+00 0.  1.
          6    2    1    2  502    0  0.60524031755E+00  0.31966541978E+02 -0.30424814278E+03  0.35219748110E+03  0.17451047874E+03 0.  0.
         24    2    3    3    0    0 -0.25142867166E+02 -0.41389194213E+02 -0.21274002356E+03  0.23203153354E+03  0.78962559261E+02 0.  0.
         -6    2    1    2    0  501 -0.60524031755E+00 -0.31966541978E+02  0.52383930919E+02  0.18511350739E+03  0.17464451975E+03 0.  0.
        -24    2    5    5    0    0 -0.44540011217E+02  0.75810921489E+01 -0.16826282814E+02  0.93973926836E+02  0.80664053793E+02 0.  0.
          5    1    3    3  502    0  0.25748107484E+02  0.73355736191E+02 -0.91508119223E+02  0.12016594757E+03  0.47000000000E+01 0. -1.
        -13    1    4    4    0    0  0.26780481522E+02 -0.27528150962E+02 -0.10051643273E+03  0.10760365484E+03  0.00000000000E+00 0.  1.
         14    1    4    4    0    0 -0.51923348688E+02 -0.13861043251E+02 -0.11222359083E+03  0.12442787870E+03  0.00000000000E+00 0. -1.
         -5    1    5    5    0  501  0.43934770900E+02 -0.39547634127E+02  0.69210213732E+02  0.91139580556E+02  0.47000000000E+01 0.  1.
         11    1    6    6    0    0  0.95436211477E+01 -0.26738849685E+02 -0.58194805663E+01  0.28981254996E+02  0.00000000000E+00 0. -1.
        -12    1    6    6    0    0 -0.54083632365E+02  0.34319941834E+02 -0.11006802248E+02  0.64992671841E+02  0.00000000000E+00 0.  1.
</event>
<event>
12    1  0.2625820E-002  0.1827617E+03  0.7818608E-02  0.1165157E+00
          1   -1    0    0  502    0  0.00000000000E+00  0.00000000000E+00  0.23944028173E+04  0.23944028173E+04  0.00000000000E+00 0. -1.
         -1   -1    0    0    0  501 -0.00000000000E+00 -0.00000000000E+00 -0.24913001950E+02  0.24913001950E+02  0.00000000000E+00 0.  1.
          6    2    1    2  502    0  0.36637158770E+02 -0.54940985086E+02  0.38671831342E+03  0.42824928765E+03  0.17171373036E+03 0.  0.
         24    2    3    3    0    0  0.15712481916E+02  0.27576457217E+02  0.11975733476E+03  0.14800435101E+03  0.80969905570E+02 0.  0.
         -6    2    1    2    0  501 -0.36637158770E+02  0.54940985086E+02  0.19827715019E+04  0.19910665316E+04  0.16912217817E+03 0.  0.
        -24    2    5    5    0    0 -0.78988568232E+02  0.54946080256E+02  0.10617113564E+04  0.10690212379E+04  0.79480420068E+02 0.  0.
          5    1    3    3  502    0  0.20924676854E+02 -0.82517442303E+02  0.26696097866E+03  0.28024493664E+03  0.47000000000E+01 0. -1.
        -13    1    4    4    0    0  0.35912704477E+02 -0.12458768505E+02  0.32978978740E+02  0.50324509876E+02  0.00000000000E+00 0.  1.
         14    1    4    4    0    0 -0.20200222561E+02  0.40035225723E+02  0.86778356016E+02  0.97679841130E+02  0.00000000000E+00 0. -1.
         -5    1    5    5    0  501  0.42351409461E+02 -0.50951700441E-02  0.92106014553E+03  0.92204529368E+03  0.47000000000E+01 0.  1.
         13    1    6    6    0    0 -0.43601242474E+02  0.72101232078E+02  0.65068986912E+03  0.65612267282E+03  0.00000000000E+00 0. -1.
        -14    1    6    6    0    0 -0.35387325758E+02 -0.17155151822E+02  0.41102148729E+03  0.41289856511E+03  0.00000000000E+00 0.  1.
</event>
<event>
12    1  0.2625820E-002  0.1778383E+03  0.7818608E-02  0.1169912E+00
         -1   -1    0    0    0  501 -0.00000000000E+00  0.00000000000E+00  0.66410860078E+02  0.66410860078E+02  0.00000000000E+00 0.  1.
          1   -1    0    0  502    0  0.00000000000E+00 -0.00000000000E+00 -0.48107965020E+03  0.48107965020E+03  0.00000000000E+00 0. -1.
          6    2    1    2  502    0  0.24333701813E+02 -0.36613874108E+02 -0.23526377050E+03  0.29514324042E+03  0.17270722578E+03 0.  0.
         24    2    3    3    0    0  0.15018602991E+02 -0.84195904784E+02 -0.20962833203E+03  0.24009701971E+03  0.79925167902E+02 0.  0.
         -6    2    1    2    0  501 -0.24333701813E+02  0.36613874108E+02 -0.17940501963E+03  0.25234726986E+03  0.17193102895E+03 0.  0.
        -24    2    5    5    0    0  0.46793418205E+01 -0.41579448757E+02 -0.11625878824E+03  0.14763103912E+03  0.80796479316E+02 0.  0.
          5    1    3    3  502    0  0.93150988219E+01  0.47582030676E+02 -0.25635438464E+02  0.55046220711E+02  0.47000000000E+01 0. -1.
        -13    1    4    4    0    0  0.18762003345E+02 -0.11157184491E+01 -0.53546622860E+01  0.19543029586E+02  0.00000000000E+00 0.  1.
         14    1    4    4    0    0 -0.37434003542E+01 -0.83080186335E+02 -0.20427366975E+03  0.22055399012E+03  0.00000000000E+00 0. -1.
         -5    1    5    5    0  501 -0.29013043633E+02  0.78193322865E+02 -0.63146231386E+02  0.10471623074E+03  0.47000000000E+01 0.  1.
         11    1    6    6    0    0  0.19012346486E+02 -0.99048583666E+00 -0.99714753422E+02  0.10151592206E+03  0.00000000000E+00 0. -1.
        -12    1    6    6    0    0 -0.14333004666E+02 -0.40588962921E+02 -0.16544034819E+02  0.46115117064E+02  0.00000000000E+00 0.  1.
</event>
<event>
12    1  0.2625820E-002  0.1754479E+03  0.7818608E-02  0.1172283E+00
          2   -1    0    0  502    0  0.00000000000E+00  0.00000000000E+00  0.14851744956E+04  0.14851744956E+04  0.00000000000E+00 0. -1.
         -2   -1    0    0    0  501 -0.00000000000E+00 -0.00000000000E+00 -0.21548360687E+02  0.21548360687E+02  0.00000000000E+00 0.  1.
          6    2    1    2  502    0  0.75662362773E+01 -0.21641927167E+02  0.58782873693E+03  0.61367751750E+03  0.17473365611E+03 0.  0.
         24    2    3    3    0    0 -0.36264469657E+02  0.11394518324E+02  0.16945703283E+03  0.19169468573E+03  0.81155528185E+02 0.  0.
         -6    2    1    2    0  501 -0.75662362773E+01  0.21641927167E+02  0.87579739799E+03  0.89304533879E+03  0.17315678986E+03 0.  0.
        -24    2    5    5    0    0  0.58794736022E+02 -0.43605277240E+01  0.59612179669E+03  0.60439253997E+03  0.80332500904E+02 0.  0.
          5    1    3    3  502    0  0.43830705934E+02 -0.33036445492E+02  0.41837170411E+03  0.42198283177E+03  0.47000000000E+01 0. -1.
        -13    1    4    4    0    0 -0.62269162321E+01  0.54924992523E+01 -0.80515543200E+01  0.11565879161E+02  0.00000000000E+00 0.  1.
         14    1    4    4    0    0 -0.30037553425E+02  0.59020190719E+01  0.17750858715E+03  0.18012880657E+03  0.00000000000E+00 0. -1.
         -5    1    5    5    0  501 -0.66360972299E+02  0.26002454891E+02  0.27967560130E+03  0.28865279882E+03  0.47000000000E+01 0.  1.
         11    1    6    6    0    0  0.29577907572E+01  0.18684801616E+02  0.36555834968E+03  0.36604750697E+03  0.00000000000E+00 0. -1.
        -12    1    6    6    0    0  0.55836945265E+02 -0.23045329340E+02  0.23056344701E+03  0.23834503300E+03  0.00000000000E+00 0.  1.
</event>
<event>
12    1  0.2625820E-002  0.1800577E+03  0.7818608E-02  0.1167747E+00
         -2   -1    0    0    0  501 -0.00000000000E+00  0.00000000000E+00  0.32549408019E+03  0.32549408019E+03  0.00000000000E+00 0.  1.
          2   -1    0    0  502    0  0.00000000000E+00 -0.00000000000E+00 -0.13967431101E+03  0.13967431101E+03  0.00000000000E+00 0. -1.
          6    2    1    2  502    0  0.53654016883E+02 -0.17643741132E+02  0.21433129760E+03  0.27520138028E+03  0.16311909590E+03 0.  0.
         24    2    3    3    0    0 -0.13960870486E+02 -0.51886230559E+02  0.11019747356E+03  0.14632056563E+03  0.79869505573E+02 0.  0.
         -6    2    1    2    0  501 -0.53654016883E+02  0.17643741132E+02 -0.28511528418E+02  0.18996701092E+03  0.17912147514E+03 0.  0.
        -24    2    5    5    0    0 -0.21712844919E+02 -0.40729785119E+02 -0.65807606510E+02  0.11354192031E+03  0.80192041769E+02 0.  0.
          5    1    3    3  502    0  0.67614887368E+02  0.34242489427E+02  0.10413382404E+03  0.12888081465E+03  0.47000000000E+01 0. -1.
        -13    1    4    4    0    0 -0.26215134928E+02 -0.42531407710E+02  0.11864904484E+03  0.12873907636E+03  0.00000000000E+00 0.  1.
         14    1    4    4    0    0  0.12254264442E+02 -0.93548228494E+01 -0.84515712838E+01  0.17581489264E+02  0.00000000000E+00 0. -1.
         -5    1    5    5    0  501 -0.31941171963E+02  0.58373526251E+02  0.37296078092E+02  0.76425090608E+02  0.47000000000E+01 0.  1.
         13    1    6    6    0    0  0.21806351826E+02  0.81413433990E+01 -0.41747096375E+01  0.23647973547E+02  0.00000000000E+00 0. -1.
        -14    1    6    6    0    0 -0.43519196746E+02 -0.48871128519E+02 -0.61632896872E+02  0.89893946764E+02  0.00000000000E+00 0.  1.
</event>
<event>
12    1  0.2625820E-002  0.2561226E+03  0.7818608E-02  0.1109495E+00
         -2   -1    0    0    0  501 -0.00000000000E+00  0.00000000000E+00  0.54200650713E+02  0.54200650713E+02  0.00000000000E+00 0.  1.
          2   -1    0    0  502    0  0.00000000000E+00 -0.00000000000E+00 -0.13023049097E+04  0.13023049097E+04  0.00000000000E+00 0. -1.
          6    2    1    2  502    0 -0.12390631983E+03 -0.14490714789E+03 -0.80475611295E+03  0.84458688578E+03  0.17130017131E+03 0.  0.
         24    2    3    3    0    0 -0.10210918815E+03 -0.50934779269E+02 -0.30042512627E+03  0.33109126249E+03  0.79658832245E+02 0.  0.
         -6    2    1    2    0  501  0.12390631983E+03  0.14490714789E+03 -0.44334814606E+03  0.51191867466E+03  0.17074042653E+03 0.  0.
        -24    2    5    5    0    0  0.53220377879E+01  0.60043021281E+02 -0.25325253866E+03  0.27228858080E+03  0.79816880455E+02 0.  0.
          5    1    3    3  502    0 -0.21797131678E+02 -0.93972368617E+02 -0.50433098668E+03  0.51349562329E+03  0.47000000000E+01 0. -1.
        -13    1    4    4    0    0 -0.10164423701E+03 -0.60239828364E+02 -0.21643234055E+03  0.24658334468E+03  0.00000000000E+00 0.  1.
         14    1    4    4    0    0 -0.46495114259E+00  0.93050490957E+01 -0.83992785721E+02  0.84507917803E+02  0.00000000000E+00 0. -1.
         -5    1    5    5    0  501  0.11858428204E+03  0.84864126604E+02 -0.19009560740E+03  0.23963009386E+03  0.47000000000E+01 0.  1.
         13    1    6    6    0    0  0.33473008205E+02  0.55970401314E+02 -0.21464954991E+03  0.22433804265E+03  0.00000000000E+00 0. -1.
        -14    1    6    6    0    0 -0.28150970417E+02  0.40726199672E+01 -0.38602988750E+02  0.47950538154E+02  0.00000000000E+00 0.  1.
</event>
<event>
12    1  0.2625820E-002  0.2165942E+03  0.7818608E-02  0.1136448E+00
          1   -1    0    0  502    0  0.00000000000E+00  0.00000000000E+00  0.18057693727E+04  0.18057693727E+04  0.00000000000E+00 0.  1.
         -1   -1    0    0    0  501 -0.00000000000E+00 -0.00000000000E+00 -0.26473675345E+02  0.26473675345E+02  0.00000000000E+00 0. -1.
          6    2    1    2  502    0  0.12943731614E+03 -0.17089795656E+02  0.10162606065E+04  0.10391611333E+04  0.17327481248E+03 0.  0.
         24    2    3    3    0    0  0.98196604473E+02  0.51448071356E+02  0.53491492857E+03  0.55193513546E+03  0.78796800486E+02 0.  0.
         -6    2    1    2    0  501 -0.12943731614E+03  0.17089795656E+02  0.76303509083E+03  0.79308191475E+03  0.17236674200E+03 0.  0.
        -24    2    5    5    0    0 -0.27034007505E+02  0.59422835490E+02  0.31738537305E+03  0.33383874950E+03  0.80330098336E+02 0.  0.
          5    1    3    3  502    0  0.31240711668E+02 -0.68537867012E+02  0.48134567796E+03  0.48722599784E+03  0.47000000000E+01 0. -1.
        -13    1    4    4    0    0  0.42197159078E+02  0.24910777528E+02  0.40548451784E+03  0.40843462302E+03  0.00000000000E+00 0.  1.
         14    1    4    4    0    0  0.55999445395E+02  0.26537293828E+02  0.12943041073E+03  0.14350051244E+03  0.00000000000E+00 0. -1.
         -5    1    5    5    0  501 -0.10240330864E+03 -0.42333039834E+02  0.44564971777E+03  0.45924316526E+03  0.47000000000E+01 0.  1.
         13    1    6    6    0    0 -0.17103532396E+02  0.36262390529E+02  0.44919658330E+02  0.60210194251E+02  0.00000000000E+00 0. -1.
        -14    1    6    6    0    0 -0.99304751085E+01  0.23160444961E+02  0.27246571472E+03  0.27362855524E+03  0.00000000000E+00 0.  1.
</event>
<event>
12    1  0.2625820E-002  0.1872812E+03  0.7818608E-02  0.1160937E+00
         -2   -1    0    0    0  501 -0.00000000000E+00  0.00000000000E+00  0.79539153926E+02  0.79539153926E+02  0.00000000000E+00 0. -1.
          2   -1    0    0  502    0  0.00000000000E+00 -0.00000000000E+00 -0.98765503264E+03  0.98765503264E+03  0.00000000000E+00 0.  1.
          6    2    1    2  502    0  0.51672897866E+02 -0.52813089815E+02 -0.85223672818E+03  0.87281061029E+03  0.17329630621E+03 0.  0.
         24    2    3    3    0    0  0.94028253601E+02 -0.69165892768E+02 -0.59167128446E+03  0.60827737838E+03  0.79380268306E+02 0.  0.
         -6    2    1    2    0  501 -0.51672897866E+02  0.52813089815E+02 -0.55879150531E+02  0.19438357627E+03  0.17088939239E+03 0.  0.
        -24    2    5    5    0    0  0.23484005130E+02  0.11997187024E+02  0.13194251654E+02  0.84348477882E+02  0.79026239002E+02 0.  0.
          5    1    3    3  502    0 -0.42355355735E+02  0.16352802953E+02 -0.26056544372E+03  0.26453323191E+03  0.47000000000E+01 0. -1.
        -13    1    4    4    0    0  0.82354180317E+02 -0.52514582523E+02 -0.57095007016E+03  0.57924431375E+03  0.00000000000E+00 0.  1.
         14    1    4    4    0    0  0.11674073284E+02 -0.16651310245E+02 -0.20721214303E+02  0.29033064635E+02  0.00000000000E+00 0. -1.
         -5    1    5    5    0  501 -0.75156902996E+02  0.40815902791E+02 -0.69073402184E+02  0.11003509839E+03  0.47000000000E+01 0.  1.
         13    1    6    6    0    0  0.24617743388E+02 -0.27806097867E+02  0.22545834604E+02  0.43445679026E+02  0.00000000000E+00 0. -1.
        -14    1    6    6    0    0 -0.11337382579E+01  0.39803284890E+02 -0.93515829501E+01  0.40902798855E+02  0.00000000000E+00 0.  1.
</event>
<event>
12    1  0.2625820E-002  0.1897188E+03  0.7818608E-02  0.1158715E+00
         -2   -1    0    0    0  501 -0.00000000000E+00  0.00000000000E+00  0.11952507216E+02  0.11952507216E+02  0.00000000000E+00 0. -1.
          2   -1    0    0  502    0  0.00000000000E+00 -0.00000000000E+00 -0.30497037719E+04  0.30497037719E+04  0.00000000000E+00 0.  1.
          6    2    1    2  502    0 -0.55871720352E+02 -0.60981408148E+02 -0.13280231197E+04  0.13411449815E+04  0.16788113012E+03 0.  0.
         24    2    3    3    0    0  0.31264267162E+01 -0.78541196933E+01 -0.31806232948E+03  0.32805753326E+03  0.79916443579E+02 0.  0.
         -6    2    1    2    0  501  0.55871720352E+02  0.60981408148E+02 -0.17097281450E+04  0.17205112976E+04  0.17363298640E+03 0.  0.
        -24    2    5    5    0    0  0.98992802374E+01 -0.25224143883E+02 -0.56506132792E+03  0.57167315640E+03  0.82350715013E+02 0.  0.
          5    1    3    3  502    0 -0.58998147068E+02 -0.53127288455E+02 -0.10099607902E+04  0.10130874483E+04  0.47000000000E+01 0. -1.
        -11    1    4    4    0    0 -0.35656629882E+01 -0.41621493112E+02 -0.22472049609E+03  0.22857026054E+03  0.00000000000E+00 0.  1.
         12    1    4    4    0    0  0.66920897044E+01  0.33767373419E+02 -0.93341833387E+02  0.99487272715E+02  0.00000000000E+00 0. -1.
         -5    1    5    5    0  501  0.45972440114E+02  0.86205552031E+02 -0.11446668171E+04  0.11488381412E+04  0.47000000000E+01 0.  1.
         13    1    6    6    0    0  0.20618884442E+01  0.30187564969E+02 -0.17073510591E+03  0.17339555027E+03  0.00000000000E+00 0. -1.
        -14    1    6    6    0    0  0.78373917932E+01 -0.55411708851E+02 -0.39432622200E+03  0.39827760613E+03  0.00000000000E+00 0.  1.
</event>
<event>
12    1  0.2625820E-002  0.1849686E+03  0.7818608E-02  0.1163079E+00
         -2   -1    0    0    0  501 -0.00000000000E+00  0.00000000000E+00  0.40424723393E+03  0.40424723393E+03  0.00000000000E+00 0.  1.
          2   -1    0    0  502    0  0.00000000000E+00 -0.00000000000E+00 -0.91269121973E+02  0.91269121973E+02  0.00000000000E+00 0. -1.
          6    2    1    2  502    0  0.66543507386E+02  0.12896844912E+02  0.22280889566E+03  0.28919673299E+03  0.17145430704E+03 0.  0.
         24    2    3    3    0    0  0.91102127206E+02  0.22527649838E+02  0.85999837193E+02  0.14978838787E+03  0.78952495550E+02 0.  0.
         -6    2    1    2    0  501 -0.66543507386E+02 -0.12896844912E+02  0.90169216295E+02  0.20631962291E+03  0.17275107018E+03 0.  0.
        -24    2    5    5    0    0 -0.88236275292E+02 -0.42824820169E+02  0.19745730225E+02  0.12664643249E+03  0.77651912404E+02 0.  0.
          5    1    3    3  502    0 -0.24558619820E+02 -0.96308049255E+01  0.13680905847E+03  0.13940834512E+03  0.47000000000E+01 0. -1.
        -11    1    4    4    0    0  0.38507046894E+02 -0.29615208115E+02  0.34184295621E+02  0.59400498982E+02  0.00000000000E+00 0.  1.
         12    1    4    4    0    0  0.52595080312E+02  0.52142857953E+02  0.51815541573E+02  0.90387888884E+02  0.00000000000E+00 0. -1.
         -5    1    5    5    0  501  0.21692767905E+02  0.29927975257E+02  0.70423486070E+02  0.79673190426E+02  0.47000000000E+01 0.  1.
         13    1    6    6    0    0 -0.80687008426E+02 -0.23819946382E+02  0.43984484189E+02  0.94933755976E+02  0.00000000000E+00 0. -1.
        -14    1    6    6    0    0 -0.75492668658E+01 -0.19004873787E+02 -0.24238753963E+02  0.31712676512E+02  0.00000000000E+00 0.  1.
</event>
<event>
12    1  0.2625820E-002  0.2074383E+03  0.7818608E-02  0.1143611E+00
         -2   -1    0    0    0  501 -0.00000000000E+00  0.00000000000E+00  0.67972904439E+03  0.67972904439E+03  0.00000000000E+00 0. -1.
          2   -1    0    0  502    0  0.00000000000E+00 -0.00000000000E+00 -0.63430710876E+02  0.63430710876E+02  0.00000000000E+00 0.  1.
          6    2    1    2  502    0 -0.84831282023E+02 -0.79407849488E+02  0.29118811905E+03  0.35733756641E+03  0.17145746623E+03 0.  0.
         24    2    3    3    0    0 -0.51758673120E+02 -0.30223512874E+01  0.24422804874E+03  0.26165120376E+03  0.78268242497E+02 0.  0.
         -6    2    1    2    0  501  0.84831282023E+02  0.79407849488E+02  0.32511021447E+03  0.38582218886E+03  0.17222124403E+03 0.  0.
        -24    2    5    5    0    0 -0.14463978520E+02  0.71111801329E+02  0.18548929758E+03  0.21422829732E+03  0.78875781403E+02 0.  0.
          5    1    3    3  502    0 -0.33072608903E+02 -0.76385498200E+02  0.46960070301E+02  0.95686362652E+02  0.47000000000E+01 0. -1.
        -13    1    4    4    0    0 -0.62821576262E+02  0.71161004388E+01  0.11231142844E+03  0.12888384805E+03  0.00000000000E+00 0.  1.
         14    1    4    4    0    0  0.11062903142E+02 -0.10138451726E+02  0.13191662031E+03  0.13276735571E+03  0.00000000000E+00 0. -1.
         -5    1    5    5    0  501  0.99295260542E+02  0.82960481584E+01  0.13962091689E+03  0.17159389154E+03  0.47000000000E+01 0.  1.
         11    1    6    6    0    0 -0.67823316775E+01  0.42148686153E+02  0.17839970216E+03  0.18343654352E+03  0.00000000000E+00 0. -1.
        -12    1    6    6    0    0 -0.76816468422E+01  0.28963115176E+02  0.70895954228E+01  0.30791753802E+02  0.00000000000E+00 0.  1.
</event>
<event>
12    1  0.2625820E-002  0.1965727E+03  0.7818608E-02  0.1152663E+00
          3   -1    0    0  502    0  0.00000000000E+00  0.00000000000E+00  0.67541075818E+03  0.67541075818E+03  0.00000000000E+00 0.  1.
         -3   -1    0    0    0  501 -0.00000000000E+00 -0.00000000000E+00 -0.57528105315E+02  0.57528105315E+02  0.00000000000E+00 0. -1.
          6    2    1    2  502    0 -0.80999390530E+02  0.47057314908E+02  0.33745789416E+03  0.39097271675E+03  0.17380029563E+03 0.  0.
         24    2    3    3    0    0 -0.50929783876E+02  0.76259796886E+02  0.32418987366E+03  0.34675624283E+03  0.82045220762E+02 0.  0.
         -6    2    1    2    0  501  0.80999390530E+02 -0.47057314908E+02  0.28042475870E+03  0.34196614674E+03  0.17183570080E+03 0.  0.
        -24    2    5    5    0    0  0.64508361789E+01  0.24949482614E+02  0.76347132859E+02  0.11302896493E+03  0.79262678779E+02 0.  0.
          5    1    3    3  502    0 -0.30069606654E+02 -0.29202481977E+02  0.13268020494E+02  0.44216473919E+02  0.47000000000E+01 0. -1.
        -13    1    4    4    0    0 -0.57001507235E+02  0.84905301488E+02  0.31898932687E+03  0.33498100350E+03  0.00000000000E+00 0.  1.
         14    1    4    4    0    0  0.60717233584E+01 -0.86455046029E+01  0.52005467919E+01  0.11775239331E+02  0.00000000000E+00 0. -1.
         -5    1    5    5    0  501  0.74548554351E+02 -0.72006797522E+02  0.20407762584E+03  0.22893718181E+03  0.47000000000E+01 0.  1.
         11    1    6    6    0    0  0.32344135347E+02  0.16918009747E+02  0.51727439325E+01  0.36866236924E+02  0.00000000000E+00 0. -1.
        -12    1    6    6    0    0 -0.25893299168E+02  0.80314728668E+01  0.71174388926E+02  0.76162728006E+02  0.00000000000E+00 0.  1.
</event>
<event>
12    1  0.2625820E-002  0.2020246E+03  0.7818608E-02  0.1148042E+00
         -1   -1    0    0    0  501 -0.00000000000E+00  0.00000000000E+00  0.36440526611E+03  0.36440526611E+03  0.00000000000E+00 0.  1.
          1   -1    0    0  502    0  0.00000000000E+00 -0.00000000000E+00 -0.14406822034E+03  0.14406822034E+03  0.00000000000E+00 0. -1.
          6    2    1    2  502    0 -0.85822580125E+02 -0.62434665596E+02  0.23010375656E+03  0.30619020867E+03  0.17187525236E+03 0.  0.
         24    2    3    3    0    0  0.70281295614E+01 -0.27898403195E+02  0.62233395895E+02  0.11121186192E+03  0.87563503595E+02 0.  0.
         -6    2    1    2    0  501  0.85822580125E+02  0.62434665596E+02 -0.97667107942E+01  0.20228327778E+03  0.17192886059E+03 0.  0.
        -24    2    5    5    0    0  0.11477408570E+03  0.66657986624E+02 -0.40571954307E+02  0.15953893144E+03  0.78677882789E+02 0.  0.
          5    1    3    3  502    0 -0.92850709686E+02 -0.34536262401E+02  0.16787036067E+03  0.19497834675E+03  0.47000000000E+01 0. -1.
        -13    1    4    4    0    0 -0.28577231914E+02 -0.12585815253E+02  0.65249312321E+02  0.72336254311E+02  0.00000000000E+00 0.  1.
         14    1    4    4    0    0  0.35605361475E+02 -0.15312587942E+02 -0.30159164260E+01  0.38875607612E+02  0.00000000000E+00 0. -1.
         -5    1    5    5    0  501 -0.28951505579E+02 -0.42233210282E+01  0.30805243513E+02  0.42744346336E+02  0.47000000000E+01 0.  1.
         11    1    6    6    0    0  0.10317416565E+02 -0.10266903412E+02 -0.24938120158E+02  0.28875045061E+02  0.00000000000E+00 0. -1.
        -12    1    6    6    0    0  0.10445666914E+03  0.76924890036E+02 -0.15633834149E+02  0.13066388638E+03  0.00000000000E+00 0.  1.
</event>
<event>
12    1  0.2625820E-002  0.2426487E+03  0.7818608E-02  0.1118041E+00
         -2   -1    0    0    0  501 -0.00000000000E+00  0.00000000000E+00  0.10331414120E+03  0.10331414120E+03  0.00000000000E+00 0. -1.
          2   -1    0    0  502    0  0.00000000000E+00 -0.00000000000E+00 -0.57142094069E+03  0.57142094069E+03  0.00000000000E+00 0.  1.
          6    2    1    2  502    0 -0.31138061160E+02 -0.16865403962E+03 -0.25187958796E+03  0.35004247249E+03  0.17225748687E+03 0.  0.
         24    2    3    3    0    0  0.27669162082E+02 -0.29244935709E+02 -0.78071459602E+02  0.11955485191E+03  0.81100931040E+02 0.  0.
         -6    2    1    2    0  501  0.31138061160E+02  0.16865403962E+03 -0.21622721153E+03  0.32469260940E+03  0.17104771165E+03 0.  0.
        -24    2    5    5    0    0 -0.12468014480E+02  0.76518451271E+02 -0.18662702021E+03  0.21844423154E+03  0.82931977230E+02 0.  0.
          5    1    3    3  502    0 -0.58807223241E+02 -0.13940910391E+03 -0.17380812836E+03  0.23048762059E+03  0.47000000000E+01 0. -1.
        -13    1    4    4    0    0 -0.26386190531E+02 -0.21017830528E+02 -0.42765353578E+02  0.54468850892E+02  0.00000000000E+00 0.  1.
         14    1    4    4    0    0  0.54055352613E+02 -0.82271051812E+01 -0.35306106023E+02  0.65086001016E+02  0.00000000000E+00 0. -1.
         -5    1    5    5    0  501  0.43606075640E+02  0.92135588350E+02 -0.29600191312E+02  0.10624837786E+03  0.47000000000E+01 0.  1.
         11    1    6    6    0    0 -0.25158793450E+02 -0.58500935499E+01 -0.22020917948E+02  0.33942735743E+02  0.00000000000E+00 0. -1.
        -12    1    6    6    0    0  0.12690778970E+02  0.82368544821E+02 -0.16460610227E+03  0.18450149579E+03  0.00000000000E+00 0.  1.
</event>
<event>
12    1  0.2625820E-002  0.6076520E+03  0.7818608E-02  0.9889656E-01
         -2   -1    0    0    0  501 -0.00000000000E+00  0.00000000000E+00  0.12061333672E+04  0.12061333672E+04  0.00000000000E+00 0. -1.
          2   -1    0    0  502    0  0.00000000000E+00 -0.00000000000E+00 -0.33041575046E+03  0.33041575046E+03  0.00000000000E+00 0.  1.
          6    2    1    2  502    0 -0.55563783440E+03 -0.17768522688E+03  0.64599077487E+03  0.88674199009E+03  0.16941615303E+03 0.  0.
         24    2    3    3    0    0 -0.46083622519E+03 -0.87473307452E+02  0.49348547829E+03  0.68573081876E+03  0.81714335021E+02 0.  0.
         -6    2    1    2    0  501  0.55563783440E+03  0.17768522688E+03  0.22972684188E+03  0.64980712757E+03  0.17079062707E+03 0.  0.
        -24    2    5    5    0    0  0.25565823732E+03  0.27254961936E+02  0.69670279437E+02  0.27797757461E+03  0.79458271369E+02 0.  0.
          5    1    3    3  502    0 -0.94801609211E+02 -0.90211919432E+02  0.15250529657E+03  0.20101117133E+03  0.47000000000E+01 0. -1.
        -11    1    4    4    0    0 -0.23644069855E+03 -0.74140158158E+02  0.30028939746E+03  0.38932594212E+03  0.00000000000E+00 0.  1.
         12    1    4    4    0    0 -0.22439552664E+03 -0.13333149294E+02  0.19319608084E+03  0.29640487664E+03  0.00000000000E+00 0. -1.
         -5    1    5    5    0  501  0.29997959708E+03  0.15043026495E+03  0.16005656245E+03  0.37182955297E+03  0.47000000000E+01 0.  1.
         13    1    6    6    0    0  0.18100426373E+03  0.47973100693E+01  0.12876654367E+02  0.18152511093E+03  0.00000000000E+00 0. -1.
        -14    1    6    6    0    0  0.74653973589E+02  0.22457651866E+02  0.56793625070E+02  0.96452463673E+02  0.00000000000E+00 0.  1.
</event>
<event>
12    1  0.2625820E-002  0.2407360E+03  0.7818608E-02  0.1119303E+00
         -1   -1    0    0    0  501 -0.00000000000E+00  0.00000000000E+00  0.29431319886E+03  0.29431319886E+03  0.00000000000E+00 0.  1.
          1   -1    0    0  502    0  0.00000000000E+00 -0.00000000000E+00 -0.22408741526E+03  0.22408741526E+03  0.00000000000E+00 0. -1.
          6    2    1    2  502    0 -0.10857217044E+03 -0.12422005475E+03 -0.55383892844E+02  0.24506729980E+03  0.17254584216E+03 0.  0.
         24    2    3    3    0    0 -0.11689146018E+03 -0.34112776037E+02 -0.16599264419E+02  0.14650326142E+03  0.79751959693E+02 0.  0.
         -6    2    1    2    0  501  0.10857217044E+03  0.12422005475E+03  0.12560967644E+03  0.27333331432E+03  0.17808641639E+03 0.  0.
        -24    2    5    5    0    0 -0.21470645252E+02  0.33632677335E+02  0.51761534965E+02  0.98425210275E+02  0.73594292738E+02 0.  0.
          5    1    3    3  502    0  0.83192897438E+01 -0.90107278716E+02 -0.38784628425E+02  0.98564038379E+02  0.47000000000E+01 0. -1.
        -11    1    4    4    0    0 -0.56735977935E+02 -0.30072129979E+02 -0.46425696122E+02  0.79237929391E+02  0.00000000000E+00 0.  1.
         12    1    4    4    0    0 -0.60155482246E+02 -0.40406460584E+01  0.29826431702E+02  0.67265332028E+02  0.00000000000E+00 0. -1.
         -5    1    5    5    0  501  0.13004281569E+03  0.90587377419E+02  0.73848141478E+02  0.17490810404E+03  0.47000000000E+01 0.  1.
         11    1    6    6    0    0  0.14515838921E+02  0.19270079358E+02 -0.95083251278E+01  0.25931713881E+02  0.00000000000E+00 0. -1.
        -12    1    6    6    0    0 -0.35986484173E+02  0.14362597977E+02  0.61269860093E+02  0.72493496395E+02  0.00000000000E+00 0.  1.
</event>
<event>
12    1  0.2625820E-002  0.1970584E+03  0.7818608E-02  0.1152245E+00
         -1   -1    0    0    0  501 -0.00000000000E+00  0.00000000000E+00  0.26527974348E+02  0.26527974348E+02  0.00000000000E+00 0. -1.
          1   -1    0    0  502    0  0.00000000000E+00 -0.00000000000E+00 -0.14954807027E+04  0.14954807027E+04  0.00000000000E+00 0.  1.
          6    2    1    2  502    0  0.66626159422E+02  0.85318312469E+02 -0.86560994161E+03  0.88920821370E+03  0.17231487667E+03 0.  0.
         24    2    3    3    0    0  0.89757327691E+02  0.93686284926E+01 -0.61184251489E+03  0.62326949461E+03  0.77262221129E+02 0.  0.
         -6    2    1    2    0  501 -0.66626159422E+02 -0.85318312469E+02 -0.60334278669E+03  0.63280046330E+03  0.15714849202E+03 0.  0.
        -24    2    5    5    0    0 -0.79622449705E+02 -0.10513794806E+03 -0.57617992313E+03  0.59644619708E+03  0.79818792088E+02 0.  0.
          5    1    3    3  502    0 -0.23131168269E+02  0.75949683977E+02 -0.25376742673E+03  0.26593871909E+03  0.47000000000E+01 0. -1.
        -13    1    4    4    0    0  0.40340661952E+02  0.42888267619E+02 -0.32225405896E+03  0.32758884447E+03  0.00000000000E+00 0.  1.
         14    1    4    4    0    0  0.49416665739E+02 -0.33519639126E+02 -0.28958845593E+03  0.29568065014E+03  0.00000000000E+00 0. -1.
         -5    1    5    5    0  501  0.12996290283E+02  0.19819635590E+02 -0.27162863559E+02  0.36354266225E+02  0.47000000000E+01 0.  1.
         11    1    6    6    0    0 -0.32819437908E+02 -0.37235934818E+02 -0.85325511278E+02  0.98712072317E+02  0.00000000000E+00 0. -1.
        -12    1    6    6    0    0 -0.46803011798E+02 -0.67902013241E+02 -0.49085441185E+03  0.49773412476E+03  0.00000000000E+00 0.  1.
</event>
<event>
12    1  0.2625820E-002  0.2204755E+03  0.7818608E-02  0.1133529E+00
         -1   -1    0    0    0  501 -0.00000000000E+00  0.00000000000E+00  0.33534554527E+02  0.33534554527E+02  0.00000000000E+00 0. -1.
          1   -1    0    0  502    0  0.00000000000E+00 -0.00000000000E+00 -0.17645389791E+04  0.17645389791E+04  0.00000000000E+00 0.  1.
          6    2    1    2  502    0 -0.26529259291E+02 -0.13939246603E+03 -0.49018802247E+03  0.53806437118E+03  0.17057229839E+03 0.  0.
         24    2    3    3    0    0  0.12115992085E+02 -0.63101256346E+02 -0.40303440881E+03  0.41586925465E+03  0.79887023127E+02 0.  0.
         -6    2    1    2    0  501  0.26529259291E+02  0.13939246603E+03 -0.12408164022E+04  0.12600091625E+04  0.16692418798E+03 0.  0.
        -24    2    5    5    0    0  0.32215062735E+02  0.15944755186E+03 -0.87384121181E+03  0.89241235190E+03  0.79624181729E+02 0.  0.
          5    1    3    3  502    0 -0.38645251376E+02 -0.76291209689E+02 -0.87153613658E+02  0.12219511653E+03  0.47000000000E+01 0. -1.
        -13    1    4    4    0    0  0.16232012178E+02  0.10584496827E+02 -0.17778531420E+03  0.17883827258E+03  0.00000000000E+00 0.  1.
         14    1    4    4    0    0 -0.41160200929E+01 -0.73685753173E+02 -0.22524909461E+03  0.23703098208E+03  0.00000000000E+00 0. -1.
         -5    1    5    5    0  501 -0.56858034444E+01 -0.20055085821E+02 -0.36697519035E+03  0.36759681059E+03  0.47000000000E+01 0. -1.
         11    1    6    6    0    0  0.52230729027E+02  0.10745327926E+03 -0.47977946517E+03  0.49443158422E+03  0.00000000000E+00 0. -1.
        -12    1    6    6    0    0 -0.20015666292E+02  0.51994272592E+02 -0.39406174664E+03  0.39798076768E+03  0.00000000000E+00 0.  1.
</event>
<event>
12    1  0.2625820E-002  0.1781862E+03  0.7818608E-02  0.1169570E+00
         -1   -1    0    0    0  501 -0.00000000000E+00  0.00000000000E+00  0.33744073643E+02  0.33744073643E+02  0.00000000000E+00 0.  1.
          1   -1    0    0  502    0  0.00000000000E+00 -0.00000000000E+00 -0.12723199799E+04  0.12723199799E+04  0.00000000000E+00 0. -1.
          6    2    1    2  502    0  0.23162948019E+02  0.40818698003E+02 -0.28688778909E+03  0.33790164259E+03  0.17225048119E+03 0.  0.
         24    2    3    3    0    0  0.74674874798E+01  0.82668162623E+02 -0.12823437698E+03  0.17300555305E+03  0.81222395112E+02 0.  0.
         -6    2    1    2    0  501 -0.23162948019E+02 -0.40818698003E+02 -0.95168811718E+03  0.96816241096E+03  0.17153860602E+03 0.  0.
        -24    2    5    5    0    0 -0.46133020042E+02 -0.23335419196E+02 -0.91985927320E+03  0.92493678713E+03  0.81817970932E+02 0.  0.
          5    1    3    3  502    0  0.15695460540E+02 -0.41849464620E+02 -0.15865341211E+03  0.16489608954E+03  0.47000000000E+01 0. -1.
        -11    1    4    4    0    0  0.42445266512E+02  0.45345470717E+02 -0.89047677169E+02  0.10856933809E+03  0.00000000000E+00 0.  1.
         12    1    4    4    0    0 -0.34977779032E+02  0.37322691906E+02 -0.39186699810E+02  0.64436214966E+02  0.00000000000E+00 0. -1.
         -5    1    5    5    0  501  0.22970072023E+02 -0.17483278807E+02 -0.31828843972E+02  0.43225623827E+02  0.47000000000E+01 0.  1.
         11    1    6    6    0    0 -0.45692127720E+02 -0.51366839364E+02 -0.65353292268E+03  0.65713895315E+03  0.00000000000E+00 0. -1.
        -12    1    6    6    0    0 -0.44089232281E+00  0.28031420167E+02 -0.26632635052E+03  0.26779783398E+03  0.00000000000E+00 0.  1.
</event>
<event>
12    1  0.2625820E-002  0.2041260E+03  0.7818608E-02  0.1146304E+00
          1   -1    0    0  502    0  0.00000000000E+00  0.00000000000E+00  0.14570310320E+03  0.14570310320E+03  0.00000000000E+00 0. -1.
         -1   -1    0    0    0  501 -0.00000000000E+00 -0.00000000000E+00 -0.38039884798E+03  0.38039884798E+03  0.00000000000E+00 0.  1.
          6    2    1    2  502    0  0.89420324364E+02 -0.67322418973E+02  0.14152905404E+02  0.20358027460E+03  0.16945890643E+03 0.  0.
         24    2    3    3    0    0  0.72865304932E+02  0.21317803736E+02  0.24289219260E+02  0.11271778174E+03  0.79696491321E+02 0.  0.
         -6    2    1    2    0  501 -0.89420324364E+02  0.67322418973E+02 -0.24884865018E+03  0.32252167658E+03  0.17194847677E+03 0.  0.
        -24    2    5    5    0    0  0.51382582819E+01  0.78239764084E+02 -0.12399901207E+03  0.16545469688E+03  0.76496008674E+02 0.  0.
          5    1    3    3  502    0  0.16555019432E+02 -0.88640222709E+02 -0.10136313856E+02  0.90862492861E+02  0.47000000000E+01 0. -1.
        -11    1    4    4    0    0  0.84373709321E+02  0.38460190396E+01  0.55706710259E+01  0.84644828919E+02  0.00000000000E+00 0.  1.
         12    1    4    4    0    0 -0.11508404389E+02  0.17471784696E+02  0.18718548235E+02  0.28072952820E+02  0.00000000000E+00 0. -1.
         -5    1    5    5    0  501 -0.94558582646E+02 -0.10917345111E+02 -0.12484963811E+03  0.15706697971E+03  0.47000000000E+01 0.  1.
         13    1    6    6    0    0 -0.59553716262E+01  0.24387406445E+02  0.46659337412E+01  0.25533957429E+02  0.00000000000E+00 0. -1.
        -14    1    6    6    0    0  0.11093629908E+02  0.53852357640E+02 -0.12866494581E+03  0.13992073945E+03  0.00000000000E+00 0.  1.
</event>
<event>
12    1  0.2625820E-002  0.1942669E+03  0.7818608E-02  0.1154668E+00
         -1   -1    0    0    0  501 -0.00000000000E+00  0.00000000000E+00  0.15255588389E+03  0.15255588389E+03  0.00000000000E+00 0.  1.
          1   -1    0    0  502    0  0.00000000000E+00 -0.00000000000E+00 -0.87938070423E+03  0.87938070423E+03  0.00000000000E+00 0. -1.
          6    2    1    2  502    0  0.34137536297E+02  0.82214328337E+02 -0.80038419937E+03  0.82342667029E+03  0.17173248840E+03 0.  0.
         24    2    3    3    0    0 -0.35535125754E+01 -0.98687852106E+01 -0.51360132942E+03  0.51983744212E+03  0.79590327746E+02 0.  0.
         -6    2    1    2    0  501 -0.34137536297E+02 -0.82214328337E+02  0.73559379029E+02  0.20850991783E+03  0.17361116445E+03 0.  0.
        -24    2    5    5    0    0 -0.76760524373E+02 -0.88726787445E+02  0.82336966546E+02  0.16425760400E+03  0.80228196419E+02 0.  0.
          5    1    3    3  502    0  0.37691048872E+02  0.92083113547E+02 -0.28678286994E+03  0.30358922817E+03  0.47000000000E+01 0. -1.
        -11    1    4    4    0    0 -0.22396551471E+02  0.22012808636E+02 -0.10591241490E+03  0.11046994565E+03  0.00000000000E+00 0.  1.
         12    1    4    4    0    0  0.18843038896E+02 -0.31881593846E+02 -0.40768891452E+03  0.40936749647E+03  0.00000000000E+00 0. -1.
         -5    1    5    5    0  501  0.42622988076E+02  0.65124591085E+01 -0.87775875170E+01  0.44252313824E+02  0.47000000000E+01 0.  1.
         11    1    6    6    0    0  0.75609704807E+01 -0.39767398343E+02  0.70943057122E+01  0.41096756796E+02  0.00000000000E+00 0. -1.
        -12    1    6    6    0    0 -0.84321494854E+02 -0.48959389102E+02  0.75242660834E+02  0.12316084721E+03  0.00000000000E+00 0.  1.
</event>
<event>
12    1  0.2625820E-002  0.2113099E+03  0.7818608E-02  0.1140533E+00
          2   -1    0    0  502    0  0.00000000000E+00  0.00000000000E+00  0.15761582526E+04  0.15761582526E+04  0.00000000000E+00 0. -1.
         -2   -1    0    0    0  501 -0.00000000000E+00 -0.00000000000E+00 -0.43530048382E+02  0.43530048382E+02  0.00000000000E+00 0.  1.
          6    2    1    2  502    0 -0.35542420228E+02 -0.11790652424E+03  0.28922960476E+03  0.35856592444E+03  0.17248346532E+03 0.  0.
         24    2    3    3    0    0  0.32441852269E+02 -0.14330827596E+02  0.12876033470E+03  0.15577967521E+03  0.80188758688E+02 0.  0.
         -6    2    1    2    0  501  0.35542420228E+02  0.11790652424E+03  0.12433985994E+04  0.12611223765E+04  0.17095133629E+03 0.  0.
        -24    2    5    5    0    0  0.45646779926E+02  0.17318906335E+02  0.84256130270E+03  0.84770661072E+03  0.79456755573E+02 0.  0.
          5    1    3    3  502    0 -0.67984272497E+02 -0.10357569664E+03  0.16046927006E+03  0.20278624922E+03  0.47000000000E+01 0. -1.
        -13    1    4    4    0    0 -0.20754850056E+01  0.30144640142E+02  0.33390428254E+02  0.45032517877E+02  0.00000000000E+00 0.  1.
         14    1    4    4    0    0  0.34517337275E+02 -0.44475467739E+02  0.95369906444E+02  0.11074715734E+03  0.00000000000E+00 0. -1.
         -5    1    5    5    0  501 -0.10104359698E+02  0.10058761790E+03  0.40083729672E+03  0.41341576579E+03  0.47000000000E+01 0.  1.
         13    1    6    6    0    0  0.26121156912E+02  0.48094145538E+02  0.58933844429E+03  0.59187428023E+03  0.00000000000E+00 0. -1.
        -14    1    6    6    0    0  0.19525623014E+02 -0.30775239203E+02  0.25322285841E+03  0.25583233049E+03  0.00000000000E+00 0.  1.
</event>
<event>
12    1  0.2625820E-002  0.5359490E+03  0.7818608E-02  0.1004800E+00
          2   -1    0    0  502    0  0.00000000000E+00  0.00000000000E+00  0.26120193664E+04  0.26120193664E+04  0.00000000000E+00 0.  1.
         -2   -1    0    0    0  501 -0.00000000000E+00 -0.00000000000E+00 -0.11173756562E+03  0.11173756562E+03  0.00000000000E+00 0. -1.
          6    2    1    2  502    0  0.50395113076E+03  0.53579482044E+02  0.10773740491E+04  0.12030396443E+04  0.17242981431E+03 0.  0.
         24    2    3    3    0    0  0.49718049645E+03  0.39128693643E+02  0.10728151837E+04  0.11857902956E+04  0.80291382682E+02 0.  0.
         -6    2    1    2    0  501 -0.50395113076E+03 -0.53579482044E+02  0.14229077516E+04  0.15207172877E+04  0.17628697182E+03 0.  0.
        -24    2    5    5    0    0 -0.14075134769E+03  0.23600421799E+02  0.36774688484E+03  0.40212112968E+03  0.78075026989E+02 0.  0.
          5    1    3    3  502    0  0.67706343107E+01  0.14450788401E+02  0.45588654312E+01  0.17249348637E+02  0.47000000000E+01 0. -1.
        -13    1    4    4    0    0  0.32857102252E+02  0.51138008049E+01  0.13143383150E+03  0.13557504265E+03  0.00000000000E+00 0.  1.
         14    1    4    4    0    0  0.46432339419E+03  0.34014892838E+02  0.94138135219E+03  0.10502152530E+04  0.00000000000E+00 0. -1.
         -5    1    5    5    0  501 -0.36319978306E+03 -0.77179903843E+02  0.10551608668E+04  0.11185961580E+04  0.47000000000E+01 0.  1.
         11    1    6    6    0    0 -0.19031292863E+01 -0.45746504534E+01 -0.26028107864E+01  0.55967804889E+01  0.00000000000E+00 0. -1.
        -12    1    6    6    0    0 -0.13884821841E+03  0.28175072252E+02  0.37034969562E+03  0.39652434919E+03  0.00000000000E+00 0.  1.
</event>
<event>
12    1  0.2625820E-002  0.2360810E+03  0.7818608E-02  0.1122431E+00
          1   -1    0    0  502    0  0.00000000000E+00  0.00000000000E+00  0.41629594843E+03  0.41629594843E+03  0.00000000000E+00 0. -1.
         -1   -1    0    0    0  501 -0.00000000000E+00 -0.00000000000E+00 -0.21848623517E+03  0.21848623517E+03  0.00000000000E+00 0.  1.
          6    2    1    2  502    0 -0.27246500780E+02  0.16302736971E+03 -0.98055008129E+02  0.25754968855E+03  0.17145484062E+03 0.  0.
         24    2    3    3    0    0  0.25862511188E+02  0.84112496268E+02 -0.10985328230E+03  0.16158399845E+03  0.79359078938E+02 0.  0.
         -6    2    1    2    0  501  0.27246500780E+02 -0.16302736971E+03  0.29586472139E+03  0.37723249505E+03  0.16567476233E+03 0.  0.
        -24    2    5    5    0    0  0.64861862677E+02 -0.64248654299E+02  0.11020090655E+03  0.16353810529E+03  0.79155045763E+02 0.  0.
          5    1    3    3  502    0 -0.53109011968E+02  0.78914873446E+02  0.11798274170E+02  0.95965690101E+02  0.47000000000E+01 0. -1.
        -11    1    4    4    0    0  0.54392525084E+02  0.48580769169E+02 -0.67462623382E+02  0.99347085874E+02  0.00000000000E+00 0.  1.
         12    1    4    4    0    0 -0.28530013896E+02  0.35531727099E+02 -0.42390658917E+02  0.62236912576E+02  0.00000000000E+00 0. -1.
         -5    1    5    5    0  501 -0.37615361896E+02 -0.98778715415E+02  0.18566381484E+03  0.21369438975E+03  0.47000000000E+01 0.  1.
         11    1    6    6    0    0  0.58224326464E+02 -0.12463665875E+02  0.89235567468E+02  0.10727721874E+03  0.00000000000E+00 0. -1.
        -12    1    6    6    0    0  0.66375362125E+01 -0.51784988424E+02  0.20965339082E+02  0.56260886555E+02  0.00000000000E+00 0.  1.
</event>
<event>
12    1  0.2625820E-002  0.1780806E+03  0.7818608E-02  0.1169674E+00
          1   -1    0    0  502    0  0.00000000000E+00  0.00000000000E+00  0.80361494163E+03  0.80361494163E+03  0.00000000000E+00 0.  1.
         -1   -1    0    0    0  501 -0.00000000000E+00 -0.00000000000E+00 -0.43580936581E+02  0.43580936581E+02  0.00000000000E+00 0. -1.
          6    2    1    2  502    0 -0.14688571142E+02 -0.38914616667E+02  0.50791225122E+03  0.53783639786E+03  0.17193904271E+03 0.  0.
         24    2    3    3    0    0 -0.62450324256E+02 -0.26407638791E+02  0.38577081802E+03  0.40600988588E+03  0.10689947151E+03 0.  0.
         -6    2    1    2    0  501  0.14688571142E+02  0.38914616667E+02  0.25212175383E+03  0.30935948035E+03  0.17437834676E+03 0.  0.
        -24    2    5    5    0    0 -0.45085421635E+02  0.50453536536E+01  0.71794056023E+02  0.11633040020E+03  0.79499840836E+02 0.  0.
          5    1    3    3  502    0  0.47761753114E+02 -0.12506977876E+02  0.12214143320E+03  0.13182651198E+03  0.47000000000E+01 0. -1.
        -13    1    4    4    0    0 -0.33643955724E+00  0.23462642096E+02  0.17630748766E+02  0.29350503705E+02  0.00000000000E+00 0.  1.
         14    1    4    4    0    0 -0.62113884698E+02 -0.49870280887E+02  0.36814006926E+03  0.37665938217E+03  0.00000000000E+00 0. -1.
         -5    1    5    5    0  501  0.59773992776E+02  0.33869263013E+02  0.18032769781E+03  0.19302908016E+03  0.47000000000E+01 0.  1.
         11    1    6    6    0    0 -0.18766988973E+02  0.42093530397E+02  0.36435971386E+02  0.58750703717E+02  0.00000000000E+00 0. -1.
        -12    1    6    6    0    0 -0.26318432662E+02 -0.37048176744E+02  0.35358084636E+02  0.57579696482E+02  0.00000000000E+00 0.  1.
</event>
<event>
12    1  0.2625820E-002  0.2974059E+03  0.7818608E-02  0.1086545E+00
         -1   -1    0    0    0  501 -0.00000000000E+00  0.00000000000E+00  0.15669390270E+03  0.15669390270E+03  0.00000000000E+00 0.  1.
          1   -1    0    0  502    0  0.00000000000E+00 -0.00000000000E+00 -0.62818306014E+03  0.62818306014E+03  0.00000000000E+00 0. -1.
          6    2    1    2  502    0  0.10133755785E+02 -0.24235841763E+03 -0.11036359126E+03  0.31668303752E+03  0.17107813529E+03 0.  0.
         24    2    3    3    0    0  0.47395235568E+02 -0.16422178724E+03 -0.16548491184E+02  0.18894457860E+03  0.78810516199E+02 0.  0.
         -6    2    1    2    0  501 -0.10133755785E+02  0.24235841763E+03 -0.36112556617E+03  0.46819392532E+03  0.17307103039E+03 0.  0.
        -24    2    5    5    0    0 -0.51190529848E+02  0.97012912937E+02 -0.10712996043E+03  0.17264895046E+03  0.79365332796E+02 0.  0.
          5    1    3    3  502    0 -0.37261479783E+02 -0.78136630391E+02 -0.93815100076E+02  0.12773845892E+03  0.47000000000E+01 0. -1.
        -11    1    4    4    0    0 -0.11951168137E+02  0.32974839846E+00  0.44615975143E+01  0.12761073866E+02  0.00000000000E+00 0.  1.
         12    1    4    4    0    0  0.59346403705E+02 -0.16455153564E+03 -0.21010088699E+02  0.17618350474E+03  0.00000000000E+00 0. -1.
         -5    1    5    5    0  501  0.41056774063E+02  0.14534550469E+03 -0.25399560574E+03  0.29554497486E+03  0.47000000000E+01 0.  1.
         11    1    6    6    0    0 -0.66093462306E+02  0.55787820758E+02 -0.92007957480E+02  0.12627783235E+03  0.00000000000E+00 0. -1.
        -12    1    6    6    0    0  0.14902932459E+02  0.41225092179E+02 -0.15122002955E+02  0.46371118106E+02  0.00000000000E+00 0.  1.
</event>
<event>
12    1  0.2625820E-002  0.1730340E+03  0.7818608E-02  0.1174720E+00
         -1   -1    0    0    0  501 -0.00000000000E+00  0.00000000000E+00  0.12168657972E+03  0.12168657972E+03  0.00000000000E+00 0.  1.
          1   -1    0    0  502    0  0.00000000000E+00 -0.00000000000E+00 -0.26961300356E+03  0.26961300356E+03  0.00000000000E+00 0. -1.
          6    2    1    2  502    0  0.88388598944E+01  0.13844142815E+02 -0.13175492983E+03  0.21738478658E+03  0.17212494929E+03 0.  0.
         24    2    3    3    0    0 -0.13605808825E+02 -0.25129647103E+02 -0.90669512332E+01  0.86628717714E+02  0.81275506340E+02 0.  0.
         -6    2    1    2    0  501 -0.88388598944E+01 -0.13844142815E+02 -0.16171494006E+02  0.17391479670E+03  0.17238054866E+03 0.  0.
        -24    2    5    5    0    0  0.41296761240E+02  0.43081211062E+02 -0.11688148943E+02  0.97781579219E+02  0.76571608142E+02 0.  0.
          5    1    3    3  502    0  0.22444668719E+02  0.38973789918E+02 -0.12268797859E+03  0.13075606887E+03  0.47000000000E+01 0. -1.
        -11    1    4    4    0    0  0.69003890680E+01  0.10121580205E+02 -0.35818801250E+02  0.37855624128E+02  0.00000000000E+00 0.  1.
         12    1    4    4    0    0 -0.20506197893E+02 -0.35251227308E+02  0.26751850016E+02  0.48773093587E+02  0.00000000000E+00 0. -1.
         -5    1    5    5    0  501 -0.50135621135E+02 -0.56925353877E+02 -0.44833450629E+01  0.76133217478E+02  0.47000000000E+01 0.  1.
         13    1    6    6    0    0  0.26995764180E+02  0.11301195421E+02 -0.42272602018E+02  0.51414600873E+02  0.00000000000E+00 0. -1.
        -14    1    6    6    0    0  0.14300997060E+02  0.31780015641E+02  0.30584453075E+02  0.46366978346E+02  0.00000000000E+00 0.  1.
</event>
<event>
12    1  0.2625820E-002  0.1961622E+03  0.7818608E-02  0.1153018E+00
         -2   -1    0    0    0  501 -0.00000000000E+00  0.00000000000E+00  0.61327376059E+02  0.61327376059E+02  0.00000000000E+00 0.  1.
          2   -1    0    0  502    0  0.00000000000E+00 -0.00000000000E+00 -0.65314462766E+03  0.65314462766E+03  0.00000000000E+00 0. -1.
          6    2    1    2  502    0 -0.64019953811E+02 -0.62476362977E+02 -0.36278249009E+03  0.41118029777E+03  0.17162823702E+03 0.  0.
         24    2    3    3    0    0 -0.91646418426E+02 -0.57846753622E+02 -0.17368319950E+03  0.21995977970E+03  0.80443383704E+02 0.  0.
         -6    2    1    2    0  501  0.64019953811E+02  0.62476362977E+02 -0.22903476151E+03  0.30329170595E+03  0.17755868466E+03 0.  0.
        -24    2    5    5    0    0  0.11164452546E+03  0.34644071460E+02 -0.14836141350E+03  0.20544991858E+03  0.80832223007E+02 0.  0.
          5    1    3    3  502    0  0.27626464615E+02 -0.46296093551E+01 -0.18909929059E+03  0.19122051807E+03  0.47000000000E+01 0. -1.
        -13    1    4    4    0    0  0.93650160135E+01  0.76830308643E+01 -0.59793335810E+01  0.13508697875E+02  0.00000000000E+00 0.  1.
         14    1    4    4    0    0 -0.10101143444E+03 -0.65529784487E+02 -0.16770386592E+03  0.20645108182E+03  0.00000000000E+00 0. -1.
         -5    1    5    5    0  501 -0.47624571650E+02  0.27832291517E+02 -0.80673348009E+02  0.97841787366E+02  0.47000000000E+01 0.  1.
         11    1    6    6    0    0  0.13309810209E+02 -0.23974179893E+02 -0.33325973357E+02  0.43157071837E+02  0.00000000000E+00 0. -1.
        -12    1    6    6    0    0  0.98334715253E+02  0.58618251353E+02 -0.11503544015E+03  0.16229284675E+03  0.00000000000E+00 0.  1.
</event>
<event>
12    1  0.2625820E-002  0.2387910E+03  0.7818608E-02  0.1120601E+00
         -2   -1    0    0    0  501 -0.00000000000E+00  0.00000000000E+00  0.32791282266E+02  0.32791282266E+02  0.00000000000E+00 0. -1.
          2   -1    0    0  502    0  0.00000000000E+00 -0.00000000000E+00 -0.17959876251E+04  0.17959876251E+04  0.00000000000E+00 0.  1.
          6    2    1    2  502    0 -0.81543392152E+02 -0.14585990094E+03 -0.71921315375E+03  0.75787309156E+03  0.17082045217E+03 0.  0.
         24    2    3    3    0    0 -0.35897534501E+02 -0.18761089088E+02 -0.42443040351E+03  0.43359448891E+03  0.78882202981E+02 0.  0.
         -6    2    1    2    0  501  0.81543392152E+02  0.14585990094E+03 -0.10439831890E+04  0.10709058158E+04  0.17033476371E+03 0.  0.
        -24    2    5    5    0    0  0.33070842265E+01  0.86017804713E+01 -0.37432481167E+03  0.38284684744E+03  0.79797973199E+02 0.  0.
          5    1    3    3  502    0 -0.45645857652E+02 -0.12709881185E+03 -0.29478275024E+03  0.32427860265E+03  0.47000000000E+01 0. -1.
        -11    1    4    4    0    0  0.23690915364E+02 -0.16381333277E+02 -0.12383861666E+03  0.12714405423E+03  0.00000000000E+00 0.  1.
         12    1    4    4    0    0 -0.59588449864E+02 -0.23797558107E+01 -0.30059178685E+03  0.30645043468E+03  0.00000000000E+00 0. -1.
         -5    1    5    5    0  501  0.78236307926E+02  0.13725812047E+03 -0.66965837737E+03  0.68805896832E+03  0.47000000000E+01 0.  1.
         11    1    6    6    0    0  0.35027933264E+02  0.21709456319E+02 -0.13733839996E+03  0.14338790990E+03  0.00000000000E+00 0. -1.
        -12    1    6    6    0    0 -0.31720849038E+02 -0.13107675848E+02 -0.23698641171E+03  0.23945893754E+03  0.00000000000E+00 0.  1.
</event>
<event>
12    1  0.2625820E-002  0.2288537E+03  0.7818608E-02  0.1127449E+00
         -2   -1    0    0    0  501 -0.00000000000E+00  0.00000000000E+00  0.39940179099E+02  0.39940179099E+02  0.00000000000E+00 0. -1.
          2   -1    0    0  502    0  0.00000000000E+00 -0.00000000000E+00 -0.13203302480E+04  0.13203302480E+04  0.00000000000E+00 0.  1.
          6    2    1    2  502    0 -0.13164465753E+03  0.73033673873E+02 -0.69737694483E+03  0.73407798561E+03  0.17283417605E+03 0.  0.
         24    2    3    3    0    0 -0.43288373009E+02 -0.85112669093E+01 -0.44476771502E+03  0.45427462008E+03  0.81245216609E+02 0.  0.
         -6    2    1    2    0  501  0.13164465753E+03 -0.73033673873E+02 -0.58301312407E+03  0.62619244148E+03  0.17189658971E+03 0.  0.
        -24    2    5    5    0    0  0.51021600990E+02 -0.10088206913E+03 -0.41945117446E+03  0.44166544691E+03  0.79678627001E+02 0.  0.
          5    1    3    3  502    0 -0.88356284519E+02  0.81544940782E+02 -0.25260922981E+03  0.27980336554E+03  0.47000000000E+01 0. -1.
        -11    1    4    4    0    0 -0.54341127642E+02 -0.29924512048E+02 -0.23215296205E+03  0.24029863163E+03  0.00000000000E+00 0.  1.
         12    1    4    4    0    0  0.11052754633E+02  0.21413245139E+02 -0.21261475297E+03  0.21397598845E+03  0.00000000000E+00 0. -1.
         -5    1    5    5    0  501  0.80623056538E+02  0.27848395257E+02 -0.16356194961E+03  0.18452699456E+03  0.47000000000E+01 0.  1.
         13    1    6    6    0    0  0.54393297101E+02 -0.10647815139E+03 -0.31372186686E+03  0.33573447431E+03  0.00000000000E+00 0. -1.
        -14    1    6    6    0    0 -0.33716961107E+01  0.55960822589E+01 -0.10572930760E+03  0.10593097260E+03  0.00000000000E+00 0.  1.
</event>
<event>
12    1  0.2625820E-002  0.2044566E+03  0.7818608E-02  0.1146033E+00
         -2   -1    0    0    0  501 -0.00000000000E+00  0.00000000000E+00  0.12630275269E+02  0.12630275269E+02  0.00000000000E+00 0.  1.
          2   -1    0    0  502    0  0.00000000000E+00 -0.00000000000E+00 -0.33965344671E+04  0.33965344671E+04  0.00000000000E+00 0. -1.
          6    2    1    2  502    0 -0.17746570529E+02 -0.10847132589E+03 -0.14188919645E+04  0.14335377768E+04  0.17232289868E+03 0.  0.
         24    2    3    3    0    0 -0.76252548920E+02 -0.66576683609E+02 -0.10106701277E+04  0.10189955370E+04  0.81552997617E+02 0.  0.
         -6    2    1    2    0  501  0.17746570529E+02  0.10847132589E+03 -0.19650122273E+04  0.19756269655E+04  0.17247574914E+03 0.  0.
        -24    2    5    5    0    0  0.33678997308E+02 -0.49494200163E+01 -0.62713500687E+03  0.63284788658E+03  0.77713313450E+02 0.  0.
          5    1    3    3  502    0  0.58505978391E+02 -0.41894642282E+02 -0.40822183681E+03  0.41454223984E+03  0.47000000000E+01 0. -1.
        -11    1    4    4    0    0 -0.48451014709E+02  0.18621829333E+01 -0.24372954670E+03  0.24850565484E+03  0.00000000000E+00 0.  1.
         12    1    4    4    0    0 -0.27801534211E+02 -0.68438866542E+02 -0.76694058099E+03  0.77048988217E+03  0.00000000000E+00 0. -1.
         -5    1    5    5    0  501 -0.15932426779E+02  0.11342074591E+03 -0.13378772205E+04  0.13427790789E+04  0.47000000000E+01 0.  1.
         13    1    6    6    0    0  0.58747299866E+02 -0.65039029555E+01 -0.40331295740E+03  0.40762100977E+03  0.00000000000E+00 0. -1.
        -14    1    6    6    0    0 -0.25068302558E+02  0.15544829392E+01 -0.22382204946E+03  0.22522687681E+03  0.00000000000E+00 0.  1.
</event>
<event>
12    1  0.2625820E-002  0.1792817E+03  0.7818608E-02  0.1168500E+00
         -1   -1    0    0    0  501 -0.00000000000E+00  0.00000000000E+00  0.10177572893E+03  0.10177572893E+03  0.00000000000E+00 0. -1.
          1   -1    0    0  502    0  0.00000000000E+00 -0.00000000000E+00 -0.33618033562E+03  0.33618033562E+03  0.00000000000E+00 0.  1.
          6    2    1    2  502    0  0.48202228083E+02 -0.19469531936E+02 -0.17131000925E+03  0.24821483362E+03  0.17193303026E+03 0.  0.
         24    2    3    3    0    0 -0.85496447908E+00 -0.36356665374E+02 -0.23875213804E+02  0.91847022591E+02  0.80890738921E+02 0.  0.
         -6    2    1    2    0  501 -0.48202228083E+02  0.19469531936E+02 -0.63094597437E+02  0.18974123092E+03  0.17122584215E+03 0.  0.
        -24    2    5    5    0    0 -0.52529132269E+02 -0.50263745642E+02 -0.28146418493E+02  0.11147937998E+03  0.79684863204E+02 0.  0.
          5    1    3    3  502    0  0.49057192562E+02  0.16887133437E+02 -0.14743479545E+03  0.15636781103E+03  0.47000000000E+01 0. -1.
        -11    1    4    4    0    0  0.22805060368E+02  0.14272895003E+02 -0.23863579311E+02  0.35961878812E+02  0.00000000000E+00 0.  1.
         12    1    4    4    0    0 -0.23660024848E+02 -0.50629560377E+02 -0.11634493347E-01  0.55885143778E+02  0.00000000000E+00 0. -1.
         -5    1    5    5    0  501  0.43269041855E+01  0.69733277579E+02 -0.34948178944E+02  0.78261850944E+02  0.47000000000E+01 0.  1.
         11    1    6    6    0    0 -0.28092067242E+02 -0.27644422440E+02  0.26495370652E+02  0.47490872807E+02  0.00000000000E+00 0. -1.
        -12    1    6    6    0    0 -0.24437065027E+02 -0.22619323202E+02 -0.54641789145E+02  0.63988507173E+02  0.00000000000E+00 0.  1.
</event>
<event>
12    1  0.2625820E-002  0.1769025E+03  0.7818608E-02  0.1170835E+00
          3   -1    0    0  502    0  0.00000000000E+00  0.00000000000E+00  0.76837004136E+03  0.76837004136E+03  0.00000000000E+00 0.  1.
         -3   -1    0    0    0  501 -0.00000000000E+00 -0.00000000000E+00 -0.94805508967E+02  0.94805508967E+02  0.00000000000E+00 0. -1.
          6    2    1    2  502    0  0.50416711313E+02  0.37199694077E+02  0.66745269556E+03  0.69209602725E+03  0.17198298785E+03 0.  0.
         24    2    3    3    0    0  0.38702874056E+00  0.38836507593E+02  0.60730968251E+03  0.61370648512E+03  0.79386241222E+02 0.  0.
         -6    2    1    2    0  501 -0.50416711313E+02 -0.37199694077E+02  0.61118368351E+01  0.17107952307E+03  0.15907604046E+03 0.  0.
        -24    2    5    5    0    0 -0.42860685326E+02  0.34732524712E+02  0.26181369599E+02  0.95871719131E+02  0.73908969656E+02 0.  0.
          5    1    3    3  502    0  0.50029682573E+02 -0.16368135162E+01  0.60143013042E+02  0.78389542125E+02  0.47000000000E+01 0. -1.
        -11    1    4    4    0    0 -0.14047646670E+02 -0.12186478382E+02  0.42218752946E+02  0.46133173885E+02  0.00000000000E+00 0.  1.
         12    1    4    4    0    0  0.14434675411E+02  0.51022985975E+02  0.56509092957E+03  0.56757331124E+03  0.00000000000E+00 0. -1.
         -5    1    5    5    0  501 -0.75560259872E+01 -0.71932218789E+02 -0.20069532764E+02  0.75207803944E+02  0.47000000000E+01 0.  1.
         13    1    6    6    0    0 -0.34766764239E+02  0.57971149948E+02  0.18253839948E+02  0.70018460386E+02  0.00000000000E+00 0. -1.
        -14    1    6    6    0    0 -0.80939210872E+01 -0.23238625235E+02  0.79275296515E+01  0.25853258746E+02  0.00000000000E+00 0.  1.
</event>
<event>
12    1  0.2625820E-002  0.1864358E+03  0.7818608E-02  0.1161716E+00
         -2   -1    0    0    0  501 -0.00000000000E+00  0.00000000000E+00  0.58275286650E+02  0.58275286650E+02  0.00000000000E+00 0. -1.
          2   -1    0    0  502    0  0.00000000000E+00 -0.00000000000E+00 -0.68404109788E+03  0.68404109788E+03  0.00000000000E+00 0.  1.
          6    2    1    2  502    0  0.67938026895E+01  0.62375360069E+02 -0.18305764559E+03  0.26272271936E+03  0.17769717038E+03 0.  0.
         24    2    3    3    0    0  0.18898484325E+02  0.11108032630E+03 -0.13663833265E+03  0.19419871140E+03  0.79668776558E+02 0.  0.
         -6    2    1    2    0  501 -0.67938026895E+01 -0.62375360069E+02 -0.44270816564E+03  0.47959366516E+03  0.17344371549E+03 0.  0.
        -24    2    5    5    0    0  0.59744982163E+02  0.42146304371E+01 -0.16596880456E+03  0.18724387348E+03  0.62668956165E+02 0.  0.
          5    1    3    3  502    0 -0.12104681635E+02 -0.48704966236E+02 -0.46419312943E+02  0.68524007966E+02  0.47000000000E+01 0. -1.
        -11    1    4    4    0    0 -0.26999503650E+02  0.19658050976E+02 -0.50080708253E+02  0.60195427606E+02  0.00000000000E+00 0.  1.
         12    1    4    4    0    0  0.45897987974E+02  0.91422275328E+02 -0.86557624392E+02  0.13400328379E+03  0.00000000000E+00 0. -1.
         -5    1    5    5    0  501 -0.66538784852E+02 -0.66589990506E+02 -0.27673936108E+03  0.29234979168E+03  0.47000000000E+01 0.  1.
         13    1    6    6    0    0  0.48913021629E+02  0.10755521139E+02 -0.50636568993E+02  0.71219569215E+02  0.00000000000E+00 0. -1.
        -14    1    6    6    0    0  0.10831960534E+02 -0.65408907019E+01 -0.11533223556E+03  0.11602430426E+03  0.00000000000E+00 0.  1.
</event>
<event>
12    1  0.2625820E-002  0.1804833E+03  0.7818608E-02  0.1167336E+00
          2   -1    0    0  502    0  0.00000000000E+00  0.00000000000E+00  0.33018280162E+03  0.33018280162E+03  0.00000000000E+00 0. -1.
         -2   -1    0    0    0  501 -0.00000000000E+00 -0.00000000000E+00 -0.10588449786E+03  0.10588449786E+03  0.00000000000E+00 0.  1.
          6    2    1    2  502    0 -0.52914869142E+02 -0.15328715571E+02  0.55181418210E+02  0.18873707274E+03  0.17187710963E+03 0.  0.
         24    2    3    3    0    0 -0.20584398693E+02 -0.77192755525E+02  0.23657974488E+02  0.11200222888E+03  0.74848918108E+02 0.  0.
         -6    2    1    2    0  501  0.52914869142E+02  0.15328715571E+02  0.16911688555E+03  0.24733022673E+03  0.17186264044E+03 0.  0.
        -24    2    5    5    0    0 -0.11778032084E+02  0.37553267082E+00  0.16147443419E+03  0.18032824012E+03  0.79406663579E+02 0.  0.
          5    1    3    3  502    0 -0.32330470449E+02  0.61864039954E+02  0.31523443722E+02  0.76734843865E+02  0.47000000000E+01 0. -1.
        -11    1    4    4    0    0 -0.42517482391E+02 -0.21377427781E+02  0.15056507004E+00  0.47589425267E+02  0.00000000000E+00 0.  1.
         12    1    4    4    0    0  0.21933083698E+02 -0.55815327745E+02  0.23507409418E+02  0.64412803613E+02  0.00000000000E+00 0. -1.
         -5    1    5    5    0  501  0.64692901226E+02  0.14953182901E+02  0.76424513610E+01  0.67001986618E+02  0.47000000000E+01 0.  1.
         13    1    6    6    0    0 -0.37804210366E+02  0.13374463187E+01  0.14419280228E+03  0.14907216814E+03  0.00000000000E+00 0. -1.
        -14    1    6    6    0    0  0.26026178282E+02 -0.96191364791E+00  0.17281631911E+02  0.31256071976E+02  0.00000000000E+00 0.  1.
</event>
<event>
12    1  0.2625820E-002  0.2070451E+03  0.7818608E-02  0.1143928E+00
          2   -1    0    0  502    0  0.00000000000E+00  0.00000000000E+00  0.77738407159E+03  0.77738407159E+03  0.00000000000E+00 0.  1.
         -2   -1    0    0    0  501 -0.00000000000E+00 -0.00000000000E+00 -0.55143869849E+02  0.55143869849E+02  0.00000000000E+00 0. -1.
          6    2    1    2  502    0  0.94170353645E+02  0.64468251344E+02  0.35990231656E+03  0.41494755131E+03  0.17212664503E+03 0.  0.
         24    2    3    3    0    0  0.87722933098E+02 -0.20848371630E+02  0.22452498284E+03  0.25473017437E+03  0.79661949653E+02 0.  0.
         -6    2    1    2    0  501 -0.94170353645E+02 -0.64468251344E+02  0.36233788518E+03  0.41758039013E+03  0.17337943434E+03 0.  0.
        -24    2    5    5    0    0 -0.13243246181E+03 -0.50569859639E+02  0.25597473510E+03  0.30359633902E+03  0.80944452647E+02 0.  0.
          5    1    3    3  502    0  0.64474205472E+01  0.85316622974E+02  0.13537733372E+03  0.16021737694E+03  0.47000000000E+01 0. -1.
        -11    1    4    4    0    0  0.53780505396E+02  0.21190155684E+02  0.16248364385E+03  0.17245956041E+03  0.00000000000E+00 0.  1.
         12    1    4    4    0    0  0.33942427703E+02 -0.42038527314E+02  0.62041338998E+02  0.82270613963E+02  0.00000000000E+00 0. -1.
         -5    1    5    5    0  501  0.38262108161E+02 -0.13898391705E+02  0.10636315008E+03  0.11398405111E+03  0.47000000000E+01 0.  1.
         13    1    6    6    0    0 -0.78249444684E+01 -0.11221215752E+02 -0.25571533586E+01  0.13917056880E+02  0.00000000000E+00 0. -1.
        -14    1    6    6    0    0 -0.12460751734E+03 -0.39348643887E+02  0.25853188845E+03  0.28967928214E+03  0.00000000000E+00 0.  1.
</event>
<event>
12    1  0.2625820E-002  0.1915813E+03  0.7818608E-02  0.1157043E+00
         -3   -1    0    0    0  501 -0.00000000000E+00  0.00000000000E+00  0.16694640982E+03  0.16694640982E+03  0.00000000000E+00 0. -1.
          3   -1    0    0  502    0  0.00000000000E+00 -0.00000000000E+00 -0.27037113984E+03  0.27037113984E+03  0.00000000000E+00 0.  1.
          6    2    1    2  502    0  0.72259153746E+02 -0.36947844203E+02  0.43226953853E+02  0.19441558830E+03  0.17129600972E+03 0.  0.
         24    2    3    3    0    0  0.52302516145E+02  0.20414678542E+02  0.73441525390E+02  0.12641752412E+03  0.86228884124E+02 0.  0.
         -6    2    1    2    0  501 -0.72259153746E+02  0.36947844203E+02 -0.14665168388E+03  0.24290196136E+03  0.17580704751E+03 0.  0.
        -24    2    5    5    0    0 -0.24650293883E+02 -0.15138764861E+02 -0.15058784674E+03  0.17206975287E+03  0.78067157474E+02 0.  0.
          5    1    3    3  502    0  0.19956637600E+02 -0.57362522746E+02 -0.30214571537E+02  0.67998064187E+02  0.47000000000E+01 0. -1.
        -11    1    4    4    0    0 -0.18272211282E+02 -0.39148339238E+00 -0.49199248773E+01  0.18927034241E+02  0.00000000000E+00 0.  1.
         12    1    4    4    0    0  0.70574727427E+02  0.20806161935E+02  0.78361450267E+02  0.10749048988E+03  0.00000000000E+00 0. -1.
         -5    1    5    5    0  501 -0.47608859862E+02  0.52086609064E+02  0.39361628602E+01  0.70832208488E+02  0.47000000000E+01 0.  1.
         13    1    6    6    0    0 -0.14264575927E+02 -0.47431221581E+01  0.49597880915E+01  0.15829555651E+02  0.00000000000E+00 0. -1.
        -14    1    6    6    0    0 -0.10385717956E+02 -0.10395642703E+02 -0.15554763483E+03  0.15624019722E+03  0.00000000000E+00 0.  1.
</event>
<event>
12    1  0.2625820E-002  0.1839704E+03  0.7818608E-02  0.1164015E+00
          2   -1    0    0  502    0  0.00000000000E+00  0.00000000000E+00  0.69402953311E+03  0.69402953311E+03  0.00000000000E+00 0. -1.
         -2   -1    0    0    0  501 -0.00000000000E+00 -0.00000000000E+00 -0.11490062956E+03  0.11490062956E+03  0.00000000000E+00 0.  1.
          6    2    1    2  502    0 -0.64421661567E+02 -0.21813363016E+02  0.59614618732E+03  0.62376709869E+03  0.17049675499E+03 0.  0.
         24    2    3    3    0    0 -0.83329479494E+01 -0.54814765320E+02  0.48625527707E+03  0.49596593083E+03  0.80398467323E+02 0.  0.
         -6    2    1    2    0  501  0.64421661567E+02  0.21813363016E+02 -0.17017283765E+02  0.18516306398E+03  0.17137619155E+03 0.  0.
        -24    2    5    5    0    0  0.10934427598E+03  0.71819306933E+01 -0.20968768236E+02  0.13752039060E+03  0.80401603049E+02 0.  0.
          5    1    3    3  502    0 -0.56088713617E+02  0.33001402304E+02  0.10989091025E+03  0.12780116785E+03  0.47000000000E+01 0. -1.
        -11    1    4    4    0    0 -0.13589631892E+01  0.18317890404E+02  0.44470859768E+02  0.48114958779E+02  0.00000000000E+00 0.  1.
         12    1    4    4    0    0 -0.69739847602E+01 -0.73132655724E+02  0.44178441731E+03  0.44785097206E+03  0.00000000000E+00 0. -1.
         -5    1    5    5    0  501 -0.44922614410E+02  0.14631432323E+02  0.39514844706E+01  0.47642673380E+02  0.47000000000E+01 0.  1.
         13    1    6    6    0    0  0.56625445839E+01 -0.26332643544E+02 -0.49405843142E+01  0.27383971600E+02  0.00000000000E+00 0. -1.
        -14    1    6    6    0    0  0.10368173139E+03  0.33514574238E+02 -0.16028183922E+02  0.11013641900E+03  0.00000000000E+00 0.  1.
</event>
<event>
12    1  0.2625820E-002  0.1797078E+03  0.7818608E-02  0.1168086E+00
         -2   -1    0    0    0  501 -0.00000000000E+00  0.00000000000E+00  0.94443480710E+02  0.94443480710E+02  0.00000000000E+00 0.  1.
          2   -1    0    0  502    0  0.00000000000E+00 -0.00000000000E+00 -0.38664408819E+03  0.38664408819E+03  0.00000000000E+00 0. -1.
          6    2    1    2  502    0 -0.30050939834E+02 -0.42679804542E+02 -0.22862404419E+03  0.29144804741E+03  0.17305601999E+03 0.  0.
         24    2    3    3    0    0 -0.51843866225E+02  0.13825327258E+01 -0.22213337458E+03  0.24164202370E+03  0.79736651862E+02 0.  0.
         -6    2    1    2    0  501  0.30050939834E+02  0.42679804542E+02 -0.63576563288E+02  0.18963952149E+03  0.17086996228E+03 0.  0.
        -24    2    5    5    0    0  0.70545248227E+01  0.77418393459E+02  0.45836915084E+01  0.10961755577E+03  0.77146771410E+02 0.  0.
          5    1    3    3  502    0  0.21792926391E+02 -0.44062337267E+02 -0.64906696071E+01  0.49806023713E+02  0.47000000000E+01 0. -1.
        -13    1    4    4    0    0 -0.27428340755E+02  0.23404284376E+02 -0.30552701257E+02  0.47260363497E+02  0.00000000000E+00 0.  1.
         14    1    4    4    0    0 -0.24415525470E+02 -0.22021751650E+02 -0.19158067332E+03  0.19438166020E+03  0.00000000000E+00 0. -1.
         -5    1    5    5    0  501  0.22996415011E+02 -0.34738588918E+02 -0.68160254796E+02  0.80021965717E+02  0.47000000000E+01 0.  1.
         11    1    6    6    0    0  0.37919688007E+02  0.53895479496E+02 -0.12740951953E+02  0.67118978727E+02  0.00000000000E+00 0. -1.
        -12    1    6    6    0    0 -0.30865163184E+02  0.23522913963E+02  0.17324643461E+02  0.42498577044E+02  0.00000000000E+00 0.  1.
</event>
<event>
12    1  0.2625820E-002  0.2117150E+03  0.7818608E-02  0.1140215E+00
         -1   -1    0    0    0  501 -0.00000000000E+00  0.00000000000E+00  0.34263238605E+03  0.34263238605E+03  0.00000000000E+00 0.  1.
          1   -1    0    0  502    0  0.00000000000E+00 -0.00000000000E+00 -0.13226903685E+03  0.13226903685E+03  0.00000000000E+00 0. -1.
          6    2    1    2  502    0 -0.95344952559E+02  0.59513743802E+02  0.81635312536E+02  0.22913145842E+03  0.18222062262E+03 0.  0.
         24    2    3    3    0    0 -0.12164836916E+03  0.49081715745E+02  0.11930799920E+02  0.15375569300E+03  0.79316635099E+02 0.  0.
         -6    2    1    2    0  501  0.95344952559E+02 -0.59513743802E+02  0.12872803666E+03  0.24576996448E+03  0.17663358213E+03 0.  0.
        -24    2    5    5    0    0  0.77509428314E+02 -0.63677847656E+02  0.13937158434E+02  0.12943217436E+03  0.80596920623E+02 0.  0.
          5    1    3    3  502    0  0.26303416602E+02  0.10432028057E+02  0.69704512615E+02  0.75375765424E+02  0.47000000000E+01 0. -1.
        -13    1    4    4    0    0 -0.22883149308E+02  0.40602274686E+02  0.26419344290E+02  0.53573920751E+02  0.00000000000E+00 0.  1.
         14    1    4    4    0    0 -0.98765219852E+02  0.84794410592E+01 -0.14488544369E+02  0.10018177225E+03  0.00000000000E+00 0. -1.
         -5    1    5    5    0  501  0.17835524245E+02  0.41641038541E+01  0.11479087823E+03  0.11633779012E+03  0.47000000000E+01 0.  1.
         11    1    6    6    0    0  0.16531358621E+02 -0.71489676813E+00 -0.27799827134E+02  0.32351619495E+02  0.00000000000E+00 0. -1.
        -12    1    6    6    0    0  0.60978069693E+02 -0.62962950888E+02  0.41736985568E+02  0.97080554862E+02  0.00000000000E+00 0.  1.
</event>
<event>
12    1  0.2625820E-002  0.2279797E+03  0.7818608E-02  0.1128070E+00
          2   -1    0    0  502    0  0.00000000000E+00  0.00000000000E+00  0.10047269363E+04  0.10047269363E+04  0.00000000000E+00 0.  1.
         -2   -1    0    0    0  501 -0.00000000000E+00 -0.00000000000E+00 -0.52463008232E+02  0.52463008232E+02  0.00000000000E+00 0. -1.
          6    2    1    2  502    0 -0.13430467913E+03 -0.67201735707E+02  0.53858591286E+03  0.58484652788E+03  0.17151342668E+03 0.  0.
         24    2    3    3    0    0 -0.11534224274E+03  0.75632383934E+01  0.25762904915E+03  0.29345636915E+03  0.79892916394E+02 0.  0.
         -6    2    1    2    0  501  0.13430467913E+03  0.67201735707E+02  0.41367801519E+03  0.47234341663E+03  0.17153711803E+03 0.  0.
        -24    2    5    5    0    0 -0.24168103641E+01  0.18496848915E+02  0.17195873819E+03  0.19035896571E+03  0.79490589346E+02 0.  0.
          5    1    3    3  502    0 -0.18962436388E+02 -0.74764974100E+02  0.28095686370E+03  0.29139015873E+03  0.47000000000E+01 0. -1.
        -13    1    4    4    0    0 -0.65555231929E+02 -0.32757393499E+02  0.10618523569E+03  0.12901875655E+03  0.00000000000E+00 0.  1.
         14    1    4    4    0    0 -0.49787010811E+02  0.40320631892E+02  0.15144381346E+03  0.16443761260E+03  0.00000000000E+00 0. -1.
         -5    1    5    5    0  501  0.13672148949E+03  0.48704886792E+02  0.24171927701E+03  0.28198445092E+03  0.47000000000E+01 0.  1.
         11    1    6    6    0    0  0.11312288148E+02  0.47207845116E+02  0.86871048949E+02  0.99514459498E+02  0.00000000000E+00 0. -1.
        -12    1    6    6    0    0 -0.13729098512E+02 -0.28710996201E+02  0.85087689237E+02  0.90844506210E+02  0.00000000000E+00 0.  1.
</event>
<event>
12    1  0.2625820E-002  0.2091589E+03  0.7818608E-02  0.1142234E+00
          1   -1    0    0  502    0  0.00000000000E+00  0.00000000000E+00  0.21891286305E+03  0.21891286305E+03  0.00000000000E+00 0.  1.
         -1   -1    0    0    0  501 -0.00000000000E+00 -0.00000000000E+00 -0.24620677093E+03  0.24620677093E+03  0.00000000000E+00 0. -1.
          6    2    1    2  502    0  0.69842097455E+02  0.95392305264E+02 -0.11458416815E+03  0.23873133877E+03  0.17287426077E+03 0.  0.
         24    2    3    3    0    0  0.58639515549E+01  0.10496856757E+03 -0.91536236683E+02  0.16989671741E+03  0.97124795264E+02 0.  0.
         -6    2    1    2    0  501 -0.69842097455E+02 -0.95392305264E+02  0.87290260269E+02  0.22638829522E+03  0.17220470434E+03 0.  0.
        -24    2    5    5    0    0  0.11797192802E+02 -0.36521550910E+01  0.63413610670E+02  0.10119479194E+03  0.77888304021E+02 0.  0.
          5    1    3    3  502    0  0.63978145900E+02 -0.95762623048E+01 -0.23047931466E+02  0.68834621357E+02  0.47000000000E+01 0. -1.
        -13    1    4    4    0    0 -0.43358976489E+02  0.44491567199E+02 -0.23532995769E+02  0.66432689874E+02  0.00000000000E+00 0.  1.
         14    1    4    4    0    0  0.49222928044E+02  0.60477000370E+02 -0.68003240914E+02  0.10346402754E+03  0.00000000000E+00 0. -1.
         -5    1    5    5    0  501 -0.81639290257E+02 -0.91740150173E+02  0.23876649599E+02  0.12519350328E+03  0.47000000000E+01 0.  1.
         13    1    6    6    0    0 -0.32782242335E+02 -0.26067403448E+01  0.17750251252E+02  0.37370334856E+02  0.00000000000E+00 0. -1.
        -14    1    6    6    0    0  0.44579435137E+02 -0.10454147461E+01  0.45663359418E+02  0.63824457087E+02  0.00000000000E+00 0.  1.
</event>
<event>
12    1  0.2625820E-002  0.4980127E+03  0.7818608E-02  0.1014299E+00
         -2   -1    0    0    0  501 -0.00000000000E+00  0.00000000000E+00  0.20135694075E+03  0.20135694075E+03  0.00000000000E+00 0.  1.
          2   -1    0    0  502    0  0.00000000000E+00 -0.00000000000E+00 -0.12317297685E+04  0.12317297685E+04  0.00000000000E+00 0. -1.
          6    2    1    2  502    0  0.36263826051E+03  0.29516187129E+03 -0.51609621790E+03  0.71704584847E+03  0.17079931039E+03 0.  0.
         24    2    3    3    0    0  0.84490656711E+02  0.89145099982E+02 -0.20347652858E+03  0.25061025838E+03  0.79481343698E+02 0.  0.
         -6    2    1    2    0  501 -0.36263826051E+03 -0.29516187129E+03 -0.51427660989E+03  0.71604086082E+03  0.17206697720E+03 0.  0.
        -24    2    5    5    0    0 -0.25701067054E+03 -0.15937405039E+03 -0.24915306720E+03  0.39995843019E+03  0.80217967294E+02 0.  0.
          5    1    3    3  502    0  0.27814760379E+03  0.20601677131E+03 -0.31261968932E+03  0.46643559009E+03  0.47000000000E+01 0. -1.
        -11    1    4    4    0    0  0.13063739164E+02  0.91408608900E+01  0.45358933032E+01  0.16576819563E+02  0.00000000000E+00 0.  1.
         12    1    4    4    0    0  0.71426917546E+02  0.80004239092E+02 -0.20801242189E+03  0.23403343881E+03  0.00000000000E+00 0. -1.
         -5    1    5    5    0  501 -0.10562758997E+03 -0.13578782090E+03 -0.26512354269E+03  0.31608243063E+03  0.47000000000E+01 0.  1.
         11    1    6    6    0    0 -0.22062242596E+03 -0.11643541435E+03 -0.23312737224E+03  0.34143788928E+03  0.00000000000E+00 0. -1.
        -12    1    6    6    0    0 -0.36388244581E+02 -0.42938636047E+02 -0.16025694955E+02  0.58520540907E+02  0.00000000000E+00 0.  1.
</event>
<event>
12    1  0.2625820E-002  0.1979497E+03  0.7818608E-02  0.1151480E+00
          2   -1    0    0  502    0  0.00000000000E+00  0.00000000000E+00  0.28974042989E+02  0.28974042989E+02  0.00000000000E+00 0.  1.
         -2   -1    0    0    0  501 -0.00000000000E+00 -0.00000000000E+00 -0.13617872332E+04  0.13617872332E+04  0.00000000000E+00 0. -1.
          6    2    1    2  502    0 -0.20772463227E+02 -0.94732618597E+02 -0.60923463374E+03  0.64064216602E+03  0.17277089360E+03 0.  0.
         24    2    3    3    0    0  0.52795887585E+01 -0.86361153702E+02 -0.21079808538E+03  0.24123940700E+03  0.79211714828E+02 0.  0.
         -6    2    1    2    0  501  0.20772463227E+02  0.94732618597E+02 -0.72357855644E+03  0.75011911014E+03  0.17235715188E+03 0.  0.
        -24    2    5    5    0    0 -0.24678824928E+02  0.55369558733E+01 -0.20390184467E+03  0.22086712800E+03  0.81034706706E+02 0.  0.
          5    1    3    3  502    0 -0.26052051985E+02 -0.83714648941E+01 -0.39843654836E+03  0.39940275901E+03  0.47000000000E+01 0. -1.
        -11    1    4    4    0    0 -0.36175171264E+02 -0.36315333034E+02 -0.10925845557E+03  0.12068494745E+03  0.00000000000E+00 0.  1.
         12    1    4    4    0    0  0.41454760022E+02 -0.50045820668E+02 -0.10153962981E+03  0.12055445955E+03  0.00000000000E+00 0. -1.
         -5    1    5    5    0  501  0.45451288155E+02  0.89195662723E+02 -0.51967671177E+03  0.52925198214E+03  0.47000000000E+01 0.  1.
         13    1    6    6    0    0 -0.51622467187E+02  0.18479637780E+02 -0.12519270334E+03  0.13667329329E+03  0.00000000000E+00 0. -1.
        -14    1    6    6    0    0  0.26943642259E+02 -0.12942681906E+02 -0.78709141332E+02  0.84193834705E+02  0.00000000000E+00 0.  1.
</event>
<event>
12    1  0.2625820E-002  0.2609326E+03  0.7818608E-02  0.1106584E+00
          2   -1    0    0  502    0  0.00000000000E+00  0.00000000000E+00  0.15299945966E+04  0.15299945966E+04  0.00000000000E+00 0. -1.
         -2   -1    0    0    0  501 -0.00000000000E+00 -0.00000000000E+00 -0.45010064029E+02  0.45010064029E+02  0.00000000000E+00 0.  1.
          6    2    1    2  502    0  0.10728125748E+03 -0.16041251774E+03  0.66768826427E+03  0.71797196308E+03  0.18009630052E+03 0.  0.
         24    2    3    3    0    0  0.38513039568E+02 -0.16249981762E+01  0.17774918261E+03  0.19835196933E+03  0.79138088057E+02 0.  0.
         -6    2    1    2    0  501 -0.10728125748E+03  0.16041251774E+03  0.81729626827E+03  0.85703269753E+03  0.17114441400E+03 0.  0.
        -24    2    5    5    0    0 -0.12429594374E+02  0.30661262848E+02  0.41832971883E+03  0.42688316107E+03  0.78325421749E+02 0.  0.
          5    1    3    3  502    0  0.68768217915E+02 -0.15878751957E+03  0.48993908166E+03  0.51961999375E+03  0.47000000000E+01 0. -1.
        -13    1    4    4    0    0  0.13540289385E+02 -0.25189040296E+02  0.15536943976E+02  0.32545718855E+02  0.00000000000E+00 0.  1.
         14    1    4    4    0    0  0.24972750184E+02  0.23564042120E+02  0.16221223864E+03  0.16580625047E+03  0.00000000000E+00 0. -1.
         -5    1    5    5    0  501 -0.94851663110E+02  0.12975125489E+03  0.39896654945E+03  0.43014953646E+03  0.47000000000E+01 0.  1.
         13    1    6    6    0    0  0.24084917977E+02  0.36127541519E+02  0.15460137220E+03  0.16058289702E+03  0.00000000000E+00 0. -1.
        -14    1    6    6    0    0 -0.36514512351E+02 -0.54662786714E+01  0.26372834663E+03  0.26630026404E+03  0.00000000000E+00 0.  1.
</event>
<event>
12    1  0.2625820E-002  0.3044798E+03  0.7818608E-02  0.1083022E+00
         -1   -1    0    0    0  501 -0.00000000000E+00  0.00000000000E+00  0.48506812957E+02  0.48506812957E+02  0.00000000000E+00 0. -1.
          1   -1    0    0  502    0  0.00000000000E+00 -0.00000000000E+00 -0.20424484996E+04  0.20424484996E+04  0.00000000000E+00 0.  1.
          6    2    1    2  502    0  0.23243785112E+03  0.96451349079E+02 -0.12615161235E+04  0.12977067638E+04  0.17114233090E+03 0.  0.
         24    2    3    3    0    0  0.23826616486E+03  0.64958950390E+02 -0.12045867258E+04  0.12322179346E+04  0.79633082844E+02 0.  0.
         -6    2    1    2    0  501 -0.23243785112E+03 -0.96451349079E+02 -0.73242556308E+03  0.79324854876E+03  0.17165616004E+03 0.  0.
        -24    2    5    5    0    0 -0.56406066939E+02 -0.77030077554E+02 -0.23204069569E+03  0.26242703417E+03  0.76875136254E+02 0.  0.
          5    1    3    3  502    0 -0.58283137350E+01  0.31492398689E+02 -0.56929397696E+02  0.65488829110E+02  0.47000000000E+01 0. -1.
        -13    1    4    4    0    0  0.15799030199E+03  0.64048152301E+02 -0.65608161858E+03  0.67786886016E+03  0.00000000000E+00 0.  1.
         14    1    4    4    0    0  0.80275862869E+02  0.91079808916E+00 -0.54850510725E+03  0.55434907449E+03  0.00000000000E+00 0. -1.
         -5    1    5    5    0  501 -0.17603178418E+03 -0.19421271525E+02 -0.50038486739E+03  0.53082151459E+03  0.47000000000E+01 0.  1.
         11    1    6    6    0    0 -0.57657810496E+02 -0.15389664988E+02 -0.13283698264E+03  0.14562598964E+03  0.00000000000E+00 0. -1.
        -12    1    6    6    0    0  0.12517435563E+01 -0.61640412566E+02 -0.99203713041E+02  0.11680104453E+03  0.00000000000E+00 0.  1.
</event>
<event>
12    1  0.2625820E-002  0.2029748E+03  0.7818608E-02  0.1147253E+00
          2   -1    0    0  502    0  0.00000000000E+00  0.00000000000E+00  0.17757112848E+03  0.17757112848E+03  0.00000000000E+00 0.  1.
         -2   -1    0    0    0  501 -0.00000000000E+00 -0.00000000000E+00 -0.24888753731E+03  0.24888753731E+03  0.00000000000E+00 0. -1.
          6    2    1    2  502    0 -0.55676721035E+02  0.87790514124E+02 -0.91111947275E+02  0.22211693989E+03  0.17386050850E+03 0.  0.
         24    2    3    3    0    0 -0.32383707698E+02  0.12507590303E+03 -0.92240481296E+02  0.17788880082E+03  0.80270997410E+02 0.  0.
         -6    2    1    2    0  501  0.55676721035E+02 -0.87790514124E+02  0.19795538450E+02  0.20434172590E+03  0.17480447924E+03 0.  0.
        -24    2    5    5    0    0 -0.26129734204E+01 -0.14622901208E+01 -0.16187310041E+02  0.94037119805E+02  0.92585014837E+02 0.  0.
          5    1    3    3  502    0 -0.23293013337E+02 -0.37285388910E+02  0.11285340209E+01  0.44228139070E+02  0.47000000000E+01 0. -1.
        -13    1    4    4    0    0 -0.19650387420E+02  0.14477463932E+02  0.10338067509E+02  0.26506797759E+02  0.00000000000E+00 0.  1.
         14    1    4    4    0    0 -0.12733320278E+02  0.11059843910E+03 -0.10257854881E+03  0.15138200307E+03  0.00000000000E+00 0. -1.
         -5    1    5    5    0  501  0.58289694455E+02 -0.86328224003E+02  0.35982848491E+02  0.11030460609E+03  0.47000000000E+01 0.  1.
         13    1    6    6    0    0  0.28495728308E+02  0.25970210581E+02 -0.31538471741E+02  0.49810978401E+02  0.00000000000E+00 0. -1.
        -14    1    6    6    0    0 -0.31108701729E+02 -0.27432500702E+02  0.15351161700E+02  0.44226141405E+02  0.00000000000E+00 0.  1.
</event>
<event>
12    1  0.2625820E-002  0.3742857E+03  0.7818608E-02  0.1053066E+00
         -1   -1    0    0    0  501 -0.00000000000E+00  0.00000000000E+00  0.55620923181E+02  0.55620923181E+02  0.00000000000E+00 0. -1.
          1   -1    0    0  502    0  0.00000000000E+00 -0.00000000000E+00 -0.25188082339E+04  0.25188082339E+04  0.00000000000E+00 0.  1.
          6    2    1    2  502    0  0.55835183831E+02 -0.32747084937E+03 -0.12430027071E+04  0.12982549782E+04  0.17336531897E+03 0.  0.
         24    2    3    3    0    0  0.26262120846E+01 -0.77828856290E+02 -0.25502415514E+03  0.27782564289E+03  0.78009872974E+02 0.  0.
         -6    2    1    2    0  501 -0.55835183831E+02  0.32747084937E+03 -0.12201846036E+04  0.12761741788E+04  0.17150901669E+03 0.  0.
        -24    2    5    5    0    0 -0.88943260313E+02  0.29123842428E+03 -0.11340283585E+04  0.11769072562E+04  0.79747403818E+02 0.  0.
          5    1    3    3  502    0  0.53208971746E+02 -0.24964199308E+03 -0.98797855193E+03  0.10204293354E+04  0.47000000000E+01 0. -1.
        -13    1    4    4    0    0 -0.27145570966E+01 -0.83584632244E+02 -0.14398772635E+03  0.16651193623E+03  0.00000000000E+00 0.  1.
         14    1    4    4    0    0  0.53407691811E+01  0.57557759536E+01 -0.11103642879E+03  0.11131370666E+03  0.00000000000E+00 0. -1.
         -5    1    5    5    0  501  0.33108076483E+02  0.36232425086E+02 -0.86156245110E+02  0.99266922626E+02  0.47000000000E+01 0.  1.
         11    1    6    6    0    0 -0.43718544510E+01  0.10876561362E+03 -0.50138157942E+03  0.51306194558E+03  0.00000000000E+00 0. -1.
        -12    1    6    6    0    0 -0.84571405862E+02  0.18247281066E+03 -0.63264677912E+03  0.66384531063E+03  0.00000000000E+00 0.  1.
</event>
<event>
12    1  0.2625820E-002  0.1950096E+03  0.7818608E-02  0.1154019E+00
         -2   -1    0    0    0  501 -0.00000000000E+00  0.00000000000E+00  0.10852552535E+04  0.10852552535E+04  0.00000000000E+00 0.  1.
          2   -1    0    0  502    0  0.00000000000E+00 -0.00000000000E+00 -0.35070642208E+02  0.35070642208E+02  0.00000000000E+00 0. -1.
          6    2    1    2  502    0 -0.22140981619E+02  0.91391521042E+02  0.51070534433E+03  0.54689828641E+03  0.17156676185E+03 0.  0.
         24    2    3    3    0    0 -0.17566177996E+02  0.24270315089E+02  0.44496515428E+03  0.45271735573E+03  0.77854973205E+02 0.  0.
         -6    2    1    2    0  501  0.22140981619E+02 -0.91391521042E+02  0.53947926693E+03  0.57342760926E+03  0.17011381610E+03 0.  0.
        -24    2    5    5    0    0 -0.46177391097E+02 -0.17569023730E+02  0.26638875983E+03  0.28236459851E+03  0.79534728788E+02 0.  0.
          5    1    3    3  502    0 -0.45748036231E+01  0.67121205953E+02  0.65740190045E+02  0.94180930681E+02  0.47000000000E+01 0. -1.
        -11    1    4    4    0    0 -0.37816795268E+00  0.40363040833E+02  0.39933970642E+03  0.40137453731E+03  0.00000000000E+00 0.  1.
         12    1    4    4    0    0 -0.17188010044E+02 -0.16092725743E+02  0.45625447861E+02  0.51342818423E+02  0.00000000000E+00 0. -1.
         -5    1    5    5    0  501  0.68318372716E+02 -0.73822497312E+02  0.27309050710E+03  0.29106301076E+03  0.47000000000E+01 0.  1.
         13    1    6    6    0    0  0.21407252649E+02 -0.77067144572E+01  0.41435591900E+02  0.47271261775E+02  0.00000000000E+00 0. -1.
        -14    1    6    6    0    0 -0.67584643746E+02 -0.98623092732E+01  0.22495316793E+03  0.23509333673E+03  0.00000000000E+00 0.  1.
</event>
<event>
12    1  0.2625820E-002  0.2655577E+03  0.7818608E-02  0.1103849E+00
         -1   -1    0    0    0  501 -0.00000000000E+00  0.00000000000E+00  0.74094490964E+02  0.74094490964E+02  0.00000000000E+00 0. -1.
          1   -1    0    0  502    0  0.00000000000E+00 -0.00000000000E+00 -0.10553738257E+04  0.10553738257E+04  0.00000000000E+00 0.  1.
          6    2    1    2  502    0 -0.10782332904E+03 -0.17229167226E+03 -0.31218473875E+03  0.40926275329E+03  0.16948864125E+03 0.  0.
         24    2    3    3    0    0 -0.11100541604E+01 -0.78671359126E+02 -0.77318395040E+02  0.13478729816E+03  0.77453641398E+02 0.  0.
         -6    2    1    2    0  501  0.10782332904E+03  0.17229167226E+03 -0.66909459600E+03  0.72020556338E+03  0.17233161204E+03 0.  0.
        -24    2    5    5    0    0  0.13532934449E+03  0.17781360797E+03 -0.57794215885E+03  0.62471771359E+03  0.79519632992E+02 0.  0.
          5    1    3    3  502    0 -0.10671327488E+03 -0.93620313138E+02 -0.23486634371E+03  0.27447545514E+03  0.47000000000E+01 0. -1.
        -11    1    4    4    0    0  0.12490870940E+02 -0.71026729126E+02 -0.89538371793E+02  0.11496929212E+03  0.00000000000E+00 0.  1.
         12    1    4    4    0    0 -0.13600925101E+02 -0.76446300001E+01  0.12219976753E+02  0.19818006037E+02  0.00000000000E+00 0. -1.
         -5    1    5    5    0  501 -0.27506015452E+02 -0.55219357048E+01 -0.91152437148E+02  0.95487849793E+02  0.47000000000E+01 0.  1.
         11    1    6    6    0    0  0.42498496586E+02  0.11826082213E+03 -0.27596219296E+03  0.30322743314E+03  0.00000000000E+00 0. -1.
        -12    1    6    6    0    0  0.92830847907E+02  0.59552785837E+02 -0.30197996589E+03  0.32149028045E+03  0.00000000000E+00 0.  1.
</event>
<event>
12    1  0.2625820E-002  0.1834656E+03  0.7818608E-02  0.1164491E+00
         -2   -1    0    0    0  501 -0.00000000000E+00  0.00000000000E+00  0.67149887804E+02  0.67149887804E+02  0.00000000000E+00 0.  1.
          2   -1    0    0  502    0  0.00000000000E+00 -0.00000000000E+00 -0.54585962901E+03  0.54585962901E+03  0.00000000000E+00 0. -1.
          6    2    1    2  502    0 -0.60642975430E+02 -0.17734223739E+02 -0.32672188127E+03  0.37460963440E+03  0.17202650182E+03 0.  0.
         24    2    3    3    0    0 -0.10535204108E+03 -0.21855921505E+02 -0.27506124185E+03  0.30600350779E+03  0.80017036615E+02 0.  0.
         -6    2    1    2    0  501  0.60642975430E+02  0.17734223739E+02 -0.15198785994E+03  0.23839988241E+03  0.17245904211E+03 0.  0.
        -24    2    5    5    0    0  0.67963008696E+02 -0.48608814862E+02 -0.10643429476E+03  0.15745422806E+03  0.80509548500E+02 0.  0.
          5    1    3    3  502    0  0.44709065649E+02  0.41216977664E+01 -0.51660639419E+02  0.68606126614E+02  0.47000000000E+01 0. -1.
        -11    1    4    4    0    0 -0.22725104600E+01  0.17294824417E+02 -0.13202581799E+02  0.21876549580E+02  0.00000000000E+00 0.  1.
         12    1    4    4    0    0 -0.10307953062E+03 -0.39150745922E+02 -0.26185866005E+03  0.28412695821E+03  0.00000000000E+00 0. -1.
         -5    1    5    5    0  501 -0.73200332652E+01  0.66343038601E+02 -0.45553565180E+02  0.80945654352E+02  0.47000000000E+01 0.  1.
         13    1    6    6    0    0 -0.11406487619E+02  0.60134912101E+01  0.12541125794E+01  0.12955417195E+02  0.00000000000E+00 0. -1.
        -14    1    6    6    0    0  0.79369496315E+02 -0.54622306072E+02 -0.10768840734E+03  0.14449881087E+03  0.00000000000E+00 0.  1.
</event>
<event>
12    1  0.2625820E-002  0.2529113E+03  0.7818608E-02  0.1111479E+00
         -1   -1    0    0    0  501 -0.00000000000E+00  0.00000000000E+00  0.31462087040E+03  0.31462087040E+03  0.00000000000E+00 0. -1.
          1   -1    0    0  502    0  0.00000000000E+00 -0.00000000000E+00 -0.20740376009E+03  0.20740376009E+03  0.00000000000E+00 0.  1.
          6    2    1    2  502    0 -0.12099713375E+03  0.14234534868E+03  0.16747781261E+02  0.25259573902E+03  0.16917923788E+03 0.  0.
         24    2    3    3    0    0 -0.66869973006E+02  0.35951385303E+01  0.97259705428E+01  0.10342212818E+03  0.78211404432E+02 0.  0.
         -6    2    1    2    0  501  0.12099713375E+03 -0.14234534868E+03  0.90469329052E+02  0.26942889147E+03  0.17176939015E+03 0.  0.
        -24    2    5    5    0    0  0.39797876217E+02  0.91965044792E+00  0.35441402289E+02  0.95738528690E+02  0.79530221748E+02 0.  0.
          5    1    3    3  502    0 -0.54127160740E+02  0.13875021015E+03  0.70218107184E+01  0.14917361084E+03  0.47000000000E+01 0. -1.
        -11    1    4    4    0    0 -0.50687406028E+01  0.29997983581E+02 -0.12130516643E+02  0.32752413411E+02  0.00000000000E+00 0.  1.
         12    1    4    4    0    0 -0.61801232403E+02 -0.26402845050E+02  0.21856487186E+02  0.70669714768E+02  0.00000000000E+00 0. -1.
         -5    1    5    5    0  501  0.81199257529E+02 -0.14326499913E+03  0.55027926763E+02  0.17369036278E+03  0.47000000000E+01 0.  1.
         11    1    6    6    0    0  0.49211642941E+02 -0.29110620540E+02  0.19136766355E+02  0.60294525918E+02  0.00000000000E+00 0. -1.
        -12    1    6    6    0    0 -0.94137667245E+01  0.30030270988E+02  0.16304635934E+02  0.35444002772E+02  0.00000000000E+00 0.  1.
</event>
<event>
12    1  0.2625820E-002  0.1722838E+03  0.7818608E-02  0.1175487E+00
         -2   -1    0    0    0  501 -0.00000000000E+00  0.00000000000E+00  0.30344611754E+02  0.30344611754E+02  0.00000000000E+00 0. -1.
          2   -1    0    0  502    0  0.00000000000E+00 -0.00000000000E+00 -0.11576466289E+04  0.11576466289E+04  0.00000000000E+00 0.  1.
          6    2    1    2  502    0 -0.66406019485E+01 -0.86596260689E+01 -0.80920077995E+03  0.82827445786E+03  0.17639044351E+03 0.  0.
         24    2    3    3    0    0 -0.35578217862E+02 -0.56571382063E+02 -0.30251256451E+03  0.31848238295E+03  0.73831197408E+02 0.  0.
         -6    2    1    2    0  501  0.66406019485E+01  0.86596260689E+01 -0.31810123724E+03  0.35971678283E+03  0.16759677801E+03 0.  0.
        -24    2    5    5    0    0  0.39310323010E+02  0.16931957755E+02 -0.88405258795E+02  0.12751412424E+03  0.81316476857E+02 0.  0.
          5    1    3    3  502    0  0.28937615914E+02  0.47911755994E+02 -0.50668821544E+03  0.50979207491E+03  0.47000000000E+01 0. -1.
        -11    1    4    4    0    0  0.16460587599E+02 -0.33693456822E+02 -0.17342062978E+03  0.17742861891E+03  0.00000000000E+00 0.  1.
         12    1    4    4    0    0 -0.52038805462E+02 -0.22877925241E+02 -0.12909193473E+03  0.14105376404E+03  0.00000000000E+00 0. -1.
         -5    1    5    5    0  501 -0.32669721061E+02 -0.82723316865E+01 -0.22969597844E+03  0.23220265859E+03  0.47000000000E+01 0.  1.
         13    1    6    6    0    0 -0.24311658303E+02 -0.38690370733E+01 -0.28782298479E+02  0.37874092504E+02  0.00000000000E+00 0. -1.
        -14    1    6    6    0    0  0.63621981312E+02  0.20800994829E+02 -0.59622960316E+02  0.89640031732E+02  0.00000000000E+00 0.  1.
</event>
<event>
12    1  0.2625820E-002  0.2102396E+03  0.7818608E-02  0.1141376E+00
          2   -1    0    0  502    0  0.00000000000E+00  0.00000000000E+00  0.22263958848E+04  0.22263958848E+04  0.00000000000E+00 0.  1.
         -2   -1    0    0    0  501 -0.00000000000E+00 -0.00000000000E+00 -0.20335476678E+02  0.20335476678E+02  0.00000000000E+00 0. -1.
          6    2    1    2  502    0 -0.11900353613E+03  0.56591292613E+01  0.12706371861E+04  0.12877437171E+04  0.17196265511E+03 0.  0.
         24    2    3    3    0    0 -0.20483747824E+02  0.48641808962E+02  0.44359135236E+03  0.45372899263E+03  0.79442440566E+02 0.  0.
         -6    2    1    2    0  501  0.11900353613E+03 -0.56591292613E+01  0.93542322198E+03  0.95898764438E+03  0.17449020174E+03 0.  0.
        -24    2    5    5    0    0  0.10302606591E+03 -0.39281789102E+02  0.40538745739E+03  0.42762546606E+03  0.79794231619E+02 0.  0.
          5    1    3    3  502    0 -0.98519788309E+02 -0.42982679700E+02  0.82704583375E+03  0.83401472443E+03  0.47000000000E+01 0. -1.
        -11    1    4    4    0    0 -0.50981931293E+02  0.24968741960E+02  0.26508921749E+03  0.27109940728E+03  0.00000000000E+00 0.  1.
         12    1    4    4    0    0  0.30498183469E+02  0.23673067001E+02  0.17850213486E+03  0.18262958535E+03  0.00000000000E+00 0. -1.
         -5    1    5    5    0  501  0.15977470220E+02  0.33622659841E+02  0.53003576458E+03  0.53136217832E+03  0.47000000000E+01 0.  1.
         13    1    6    6    0    0  0.28410596552E+02 -0.33980802719E+02  0.26379860569E+03  0.26749123595E+03  0.00000000000E+00 0. -1.
        -14    1    6    6    0    0  0.74615469360E+02 -0.53009863832E+01  0.14158885171E+03  0.16013423011E+03  0.00000000000E+00 0.  1.
</event>
<event>
12    1  0.2625820E-002  0.1741656E+03  0.7818608E-02  0.1173572E+00
          2   -1    0    0  502    0  0.00000000000E+00  0.00000000000E+00  0.12013728713E+04  0.12013728713E+04  0.00000000000E+00 0. -1.
         -2   -1    0    0    0  501 -0.00000000000E+00 -0.00000000000E+00 -0.25407422561E+02  0.25407422561E+02  0.00000000000E+00 0.  1.
          6    2    1    2  502    0  0.19673675875E+02 -0.17504668668E+02  0.63589085740E+03  0.65927170837E+03  0.17201318548E+03 0.  0.
         24    2    3    3    0    0 -0.52879448942E+02 -0.13780153511E+02  0.30067392079E+03  0.31624064195E+03  0.81346224428E+02 0.  0.
         -6    2    1    2    0  501 -0.19673675875E+02  0.17504668668E+02  0.54007459132E+03  0.56750858548E+03  0.17231356143E+03 0.  0.
        -24    2    5    5    0    0  0.18055557910E+02 -0.47096618029E+02  0.24464859116E+03  0.26272106458E+03  0.81396130221E+02 0.  0.
          5    1    3    3  502    0  0.72553124817E+02 -0.37245151573E+01  0.33521693662E+03  0.34303106642E+03  0.47000000000E+01 0. -1.
        -11    1    4    4    0    0  0.11289626615E+02 -0.27367437868E+02  0.61799463066E+02  0.68524491679E+02  0.00000000000E+00 0.  1.
         12    1    4    4    0    0 -0.64169075557E+02  0.13587284357E+02  0.23887445772E+03  0.24771615027E+03  0.00000000000E+00 0. -1.
         -5    1    5    5    0  501 -0.37729233785E+02  0.64601286697E+02  0.29542600016E+03  0.30478752090E+03  0.47000000000E+01 0.  1.
         11    1    6    6    0    0 -0.18884179667E+02 -0.41147307045E+02  0.19701307396E+03  0.20214812498E+03  0.00000000000E+00 0. -1.
        -12    1    6    6    0    0  0.36939737576E+02 -0.59493109842E+01  0.47635517197E+02  0.60572939602E+02  0.00000000000E+00 0.  1.
</event>
<event>
12    1  0.2625820E-002  0.1748344E+03  0.7818608E-02  0.1172898E+00
          2   -1    0    0  502    0  0.00000000000E+00  0.00000000000E+00  0.10360918665E+04  0.10360918665E+04  0.00000000000E+00 0.  1.
         -2   -1    0    0    0  501 -0.00000000000E+00 -0.00000000000E+00 -0.31780199543E+02  0.31780199543E+02  0.00000000000E+00 0. -1.
          6    2    1    2  502    0  0.29204644443E+02 -0.15840730007E+02  0.35689244482E+03  0.39703155860E+03  0.17075714150E+03 0.  0.
         24    2    3    3    0    0  0.57443970483E+01 -0.42609164932E+02  0.34863726477E+03  0.36019176607E+03  0.79634332563E+02 0.  0.
         -6    2    1    2    0  501 -0.29204644443E+02  0.15840730007E+02  0.64741922217E+03  0.67084050747E+03  0.17254418925E+03 0.  0.
        -24    2    5    5    0    0  0.10454818805E+02  0.67872116684E+02  0.46453017197E+03  0.47654528646E+03  0.81186217534E+02 0.  0.
          5    1    3    3  502    0  0.23460247395E+02  0.26768434925E+02  0.82551800427E+01  0.36839792531E+02  0.47000000000E+01 0. -1.
        -13    1    4    4    0    0  0.35727780977E+02  0.17444787252E+01  0.11198186383E+03  0.11755617962E+03  0.00000000000E+00 0.  1.
         14    1    4    4    0    0 -0.29983383929E+02 -0.44353643657E+02  0.23665540094E+03  0.24263558645E+03  0.00000000000E+00 0. -1.
         -5    1    5    5    0  501 -0.39659463248E+02 -0.52031386677E+02  0.18288905020E+03  0.19429522101E+03  0.47000000000E+01 0.  1.
         13    1    6    6    0    0  0.25268722592E+02 -0.88968908160E+01  0.88177639425E+02  0.92157252033E+02  0.00000000000E+00 0. -1.
        -14    1    6    6    0    0 -0.14813903787E+02  0.76769007500E+02  0.37635253255E+03  0.38438803443E+03  0.00000000000E+00 0.  1.
</event>
<event>
12    1  0.2625820E-002  0.1790165E+03  0.7818608E-02  0.1168758E+00
         -1   -1    0    0    0  501 -0.00000000000E+00  0.00000000000E+00  0.16125136393E+04  0.16125136393E+04  0.00000000000E+00 0.  1.
          1   -1    0    0  502    0  0.00000000000E+00 -0.00000000000E+00 -0.43955577558E+02  0.43955577558E+02  0.00000000000E+00 0. -1.
          6    2    1    2  502    0  0.30268076401E+02  0.34941940109E+02  0.13989049142E+04  0.14104151764E+04  0.17377835094E+03 0.  0.
         24    2    3    3    0    0  0.45154622253E+02 -0.33372818480E+02  0.10472023447E+04  0.10517993612E+04  0.80600624478E+02 0.  0.
         -6    2    1    2    0  501 -0.30268076401E+02 -0.34941940109E+02  0.16965314762E+03  0.24605404052E+03  0.17211422002E+03 0.  0.
        -24    2    5    5    0    0 -0.48920444019E+02 -0.25715073137E+02  0.19264304926E+03  0.21469050327E+03  0.76981770144E+02 0.  0.
          5    1    3    3  502    0 -0.14886545852E+02  0.68314758589E+02  0.35170256949E+03  0.35861581515E+03  0.47000000000E+01 0. -1.
        -11    1    4    4    0    0  0.45479609054E+02 -0.35581059041E+01  0.92074692542E+03  0.92187632339E+03  0.00000000000E+00 0.  1.
         12    1    4    4    0    0 -0.32498680123E+00 -0.29814712576E+02  0.12645541925E+03  0.12992303784E+03  0.00000000000E+00 0. -1.
         -5    1    5    5    0  501  0.18652367618E+02 -0.92268669717E+01 -0.22989901641E+02  0.31363537258E+02  0.47000000000E+01 0.  1.
         11    1    6    6    0    0 -0.14726497918E+02 -0.17943302570E+02  0.49303152237E+01  0.23730567972E+02  0.00000000000E+00 0. -1.
        -12    1    6    6    0    0 -0.34193946101E+02 -0.77717705664E+01  0.18771273404E+03  0.19095993529E+03  0.00000000000E+00 0.  1.
</event>
<event>
12    1  0.2625820E-002  0.2144004E+03  0.7818608E-02  0.1138128E+00
          2   -1    0    0  502    0  0.00000000000E+00  0.00000000000E+00  0.25755414977E+03  0.25755414977E+03  0.00000000000E+00 0. -1.
         -2   -1    0    0    0  501 -0.00000000000E+00 -0.00000000000E+00 -0.18725094865E+03  0.18725094865E+03  0.00000000000E+00 0.  1.
          6    2    1    2  502    0  0.10500761277E+03 -0.69974317032E+02 -0.12895827377E+02  0.21536686508E+03  0.17405051113E+03 0.  0.
         24    2    3    3    0    0  0.12288162139E+03 -0.68841353769E+02  0.34252587905E+02  0.16471287359E+03  0.78218067510E+02 0.  0.
         -6    2    1    2    0  501 -0.10500761277E+03  0.69974317032E+02  0.83199028492E+02  0.22943823334E+03  0.17261755645E+03 0.  0.
        -24    2    5    5    0    0 -0.12211277226E+03  0.85524931764E+02  0.30579359953E+02  0.17177257964E+03  0.79653491806E+02 0.  0.
          5    1    3    3  502    0 -0.17874008620E+02 -0.11329632631E+01 -0.47148415282E+02  0.50653991486E+02  0.47000000000E+01 0. -1.
        -13    1    4    4    0    0  0.61077867060E+02 -0.60545212777E+02  0.51205900768E+02  0.10009132284E+03  0.00000000000E+00 0.  1.
         14    1    4    4    0    0  0.61803754325E+02 -0.82961409921E+01 -0.16953312863E+02  0.64621550748E+02  0.00000000000E+00 0. -1.
         -5    1    5    5    0  501  0.17105159499E+02 -0.15550614731E+02  0.52619668539E+02  0.57665653705E+02  0.47000000000E+01 0.  1.
         11    1    6    6    0    0 -0.58773803878E+02  0.17843111070E+02  0.47370637859E+02  0.77567480081E+02  0.00000000000E+00 0. -1.
        -12    1    6    6    0    0 -0.63338968386E+02  0.67681820693E+02 -0.16791277907E+02  0.94205099556E+02  0.00000000000E+00 0.  1.
</event>
<event>
12    1  0.2625820E-002  0.1976441E+03  0.7818608E-02  0.1151742E+00
         -1   -1    0    0    0  501 -0.00000000000E+00  0.00000000000E+00  0.47537572645E+02  0.47537572645E+02  0.00000000000E+00 0. -1.
          1   -1    0    0  502    0  0.00000000000E+00 -0.00000000000E+00 -0.83644620464E+03  0.83644620464E+03  0.00000000000E+00 0.  1.
          6    2    1    2  502    0 -0.40545893401E+02 -0.92592000975E+02 -0.44948817960E+03  0.49031881749E+03  0.16779651688E+03 0.  0.
         24    2    3    3    0    0 -0.69226098259E+02 -0.45130164640E+02 -0.40002504107E+03  0.41586163428E+03  0.78050502522E+02 0.  0.
         -6    2    1    2    0  501  0.40545893401E+02  0.92592000975E+02 -0.33942045240E+03  0.39366495979E+03  0.17189708824E+03 0.  0.
        -24    2    5    5    0    0 -0.20082486599E+02  0.99614095596E+01 -0.22959755697E+03  0.24337599326E+03  0.77551917981E+02 0.  0.
          5    1    3    3  502    0  0.28680204858E+02 -0.47461836335E+02 -0.49463138526E+02  0.74457183211E+02  0.47000000000E+01 0. -1.
        -13    1    4    4    0    0 -0.38630270538E+02 -0.17225286866E+02 -0.60491043864E+02  0.73811751756E+02  0.00000000000E+00 0.  1.
         14    1    4    4    0    0 -0.30595827720E+02 -0.27904877774E+02 -0.33953399721E+03  0.34204988253E+03  0.00000000000E+00 0. -1.
         -5    1    5    5    0  501  0.60628380000E+02  0.82630591415E+02 -0.10982289543E+03  0.15028896653E+03  0.47000000000E+01 0.  1.
         13    1    6    6    0    0  0.24892449378E+02 -0.15118727108E+02 -0.76991660219E+02  0.82316011132E+02  0.00000000000E+00 0. -1.
        -14    1    6    6    0    0 -0.44974935977E+02  0.25080136668E+02 -0.15260589675E+03  0.16105998213E+03  0.00000000000E+00 0.  1.
</event>
<event>
12    1  0.2625820E-002  0.1891440E+03  0.7818608E-02  0.1159236E+00
          1   -1    0    0  502    0  0.00000000000E+00  0.00000000000E+00  0.28727052498E+04  0.28727052498E+04  0.00000000000E+00 0.  1.
         -1   -1    0    0    0  501 -0.00000000000E+00 -0.00000000000E+00 -0.13843770221E+02  0.13843770221E+02  0.00000000000E+00 0. -1.
          6    2    1    2  502    0 -0.15107389394E+02  0.78464497691E+02  0.96890882660E+03  0.98710871354E+03  0.17092216785E+03 0.  0.
         24    2    3    3    0    0  0.41066786239E+02  0.22085024984E+02  0.38551832969E+03  0.39829571705E+03  0.88548667011E+02 0.  0.
         -6    2    1    2    0  501  0.15107389394E+02 -0.78464497691E+02  0.18899526529E+04  0.18994403065E+04  0.17195213516E+03 0.  0.
        -24    2    5    5    0    0 -0.10807956658E+02  0.17276140330E+02  0.41584177408E+03  0.42198883580E+03  0.68810751498E+02 0.  0.
          5    1    3    3  502    0 -0.56174175633E+02  0.56379472707E+02  0.58339049691E+03  0.58881299649E+03  0.47000000000E+01 0. -1.
        -11    1    4    4    0    0  0.89712782136E+01  0.18394795134E+02  0.34875143853E+03  0.34935142506E+03  0.00000000000E+00 0.  1.
         12    1    4    4    0    0  0.32095508026E+02  0.36902298494E+01  0.36766891169E+02  0.48944291986E+02  0.00000000000E+00 0. -1.
         -5    1    5    5    0  501  0.25915346052E+02 -0.95740638021E+02  0.14741108789E+04  0.14774514707E+04  0.47000000000E+01 0.  1.
         13    1    6    6    0    0 -0.23854840227E+02 -0.62594426290E+01  0.34989353704E+03  0.35076163030E+03  0.00000000000E+00 0. -1.
        -14    1    6    6    0    0  0.13046883569E+02  0.23535582959E+02  0.65948237038E+02  0.71227205508E+02  0.00000000000E+00 0.  1.
</event>
<event>
12    1  0.2625820E-002  0.2025038E+03  0.7818608E-02  0.1147644E+00
          2   -1    0    0  502    0  0.00000000000E+00  0.00000000000E+00  0.27283961011E+04  0.27283961011E+04  0.00000000000E+00 0. -1.
         -2   -1    0    0    0  501 -0.00000000000E+00 -0.00000000000E+00 -0.15407117915E+02  0.15407117915E+02  0.00000000000E+00 0.  1.
          6    2    1    2  502    0  0.59811262459E+01 -0.10846504515E+03  0.11431046807E+04  0.11609363274E+04  0.17112686946E+03 0.  0.
         24    2    3    3    0    0 -0.30380750217E+02 -0.26889602883E+00  0.57112950354E+03  0.57766427597E+03  0.81142119937E+02 0.  0.
         -6    2    1    2    0  501 -0.59811262459E+01  0.10846504515E+03  0.15698843024E+04  0.15828668915E+04  0.17067639951E+03 0.  0.
        -24    2    5    5    0    0 -0.53644953175E+02  0.15795929401E+02  0.71815516310E+03  0.72477364355E+03  0.80141772618E+02 0.  0.
          5    1    3    3  502    0  0.36361876463E+02 -0.10819614912E+03  0.57197517716E+03  0.58327205148E+03  0.47000000000E+01 0. -1.
        -11    1    4    4    0    0 -0.33637388473E+01 -0.27590513550E+02  0.73929583079E+02  0.78981861407E+02  0.00000000000E+00 0.  1.
         12    1    4    4    0    0 -0.27017011370E+02  0.27321617521E+02  0.49719992047E+03  0.49868241457E+03  0.00000000000E+00 0. -1.
         -5    1    5    5    0  501  0.47663826929E+02  0.92669115751E+02  0.85172913934E+03  0.85809324798E+03  0.47000000000E+01 0.  1.
         11    1    6    6    0    0  0.99314294540E+01  0.27805163779E+02  0.32410271915E+03  0.32544482325E+03  0.00000000000E+00 0. -1.
        -12    1    6    6    0    0 -0.63576382629E+02 -0.12009234378E+02  0.39405244395E+03  0.39932882030E+03  0.00000000000E+00 0.  1.
</event>
<event>
12    1  0.2625820E-002  0.2288470E+03  0.7818608E-02  0.1127454E+00
          1   -1    0    0  502    0  0.00000000000E+00  0.00000000000E+00  0.25007784421E+03  0.25007784421E+03  0.00000000000E+00 0. -1.
         -1   -1    0    0    0  501 -0.00000000000E+00 -0.00000000000E+00 -0.36820340627E+03  0.36820340627E+03  0.00000000000E+00 0.  1.
          6    2    1    2  502    0  0.14350637328E+03  0.41273047811E+02  0.14411081468E+03  0.26947211383E+03  0.17190040599E+03 0.  0.
         24    2    3    3    0    0  0.57234293623E+02  0.85053934379E+02  0.81943489968E+02  0.15437865608E+03  0.81290207185E+02 0.  0.
         -6    2    1    2    0  501 -0.14350637328E+03 -0.41273047811E+02 -0.26223637673E+03  0.34880913665E+03  0.17493528198E+03 0.  0.
        -24    2    5    5    0    0 -0.49356885257E+02 -0.60440577668E+02 -0.66337343704E+02  0.13056605786E+03  0.80979545229E+02 0.  0.
          5    1    3    3  502    0  0.86272079652E+02 -0.43780886568E+02  0.62167324709E+02  0.11509345775E+03  0.47000000000E+01 0. -1.
        -11    1    4    4    0    0  0.41995556582E+00  0.72671729787E+02  0.46680483832E+02  0.86373747422E+02  0.00000000000E+00 0.  1.
         12    1    4    4    0    0  0.56814338058E+02  0.12382204592E+02  0.35263006137E+02  0.68004908656E+02  0.00000000000E+00 0. -1.
         -5    1    5    5    0  501 -0.94149488019E+02  0.19167529857E+02 -0.19589903303E+03  0.21824307878E+03  0.47000000000E+01 0.  1.
         13    1    6    6    0    0  0.12867963869E+02 -0.21949183641E+02  0.75916713962E+01  0.26551546682E+02  0.00000000000E+00 0. -1.
        -14    1    6    6    0    0 -0.62224849126E+02 -0.38491394027E+02 -0.73929015100E+02  0.10401451118E+03  0.00000000000E+00 0.  1.
</event>
<event>
12    1  0.2625820E-002  0.2127196E+03  0.7818608E-02  0.1139430E+00
         -2   -1    0    0    0  501 -0.00000000000E+00  0.00000000000E+00  0.61715057166E+02  0.61715057166E+02  0.00000000000E+00 0. -1.
          2   -1    0    0  502    0  0.00000000000E+00 -0.00000000000E+00 -0.73551440356E+03  0.73551440356E+03  0.00000000000E+00 0.  1.
          6    2    1    2  502    0 -0.91406483266E+02  0.83013570172E+02 -0.31391168195E+03  0.37896536803E+03  0.17270729021E+03 0.  0.
         24    2    3    3    0    0  0.14134667867E+02  0.62935266038E+02 -0.12151214539E+03  0.15855269928E+03  0.78823349495E+02 0.  0.
         -6    2    1    2    0  501  0.91406483266E+02 -0.83013570172E+02 -0.35988766445E+03  0.41826409270E+03  0.17372196809E+03 0.  0.
        -24    2    5    5    0    0  0.87466810175E+02 -0.29941199078E+02 -0.11117284563E+03  0.16387590764E+03  0.77129716794E+02 0.  0.
          5    1    3    3  502    0 -0.10554115113E+03  0.20078304135E+02 -0.19239953656E+03  0.22041266875E+03  0.47000000000E+01 0. -1.
        -11    1    4    4    0    0 -0.56592628556E+01  0.47786389061E+01 -0.88504530653E+02  0.88813932420E+02  0.00000000000E+00 0.  1.
         12    1    4    4    0    0  0.19793930723E+02  0.58156627131E+02 -0.33007614735E+02  0.69738766861E+02  0.00000000000E+00 0. -1.
         -5    1    5    5    0  501  0.39396730916E+01 -0.53072371094E+02 -0.24871481882E+03  0.25438818506E+03  0.47000000000E+01 0.  1.
         13    1    6    6    0    0  0.41346174621E+02 -0.32586771342E+02 -0.11309822377E+02  0.53845296029E+02  0.00000000000E+00 0. -1.
        -14    1    6    6    0    0  0.46120635554E+02  0.26455722641E+01 -0.99863023257E+02  0.11003061161E+03  0.00000000000E+00 0.  1.
</event>
<event>
12    1  0.2625820E-002  0.1839493E+03  0.7818608E-02  0.1164035E+00
         -3   -1    0    0    0  501 -0.00000000000E+00  0.00000000000E+00  0.36103372933E+03  0.36103372933E+03  0.00000000000E+00 0.  1.
          3   -1    0    0  502    0  0.00000000000E+00 -0.00000000000E+00 -0.10176943632E+03  0.10176943632E+03  0.00000000000E+00 0. -1.
          6    2    1    2  502    0 -0.64359794146E+01  0.63782869217E+02  0.64664309778E+02  0.19512483107E+03  0.17257621651E+03 0.  0.
         24    2    3    3    0    0  0.37562059882E+02  0.47491085658E+02 -0.16376793741E+02  0.10136449760E+03  0.79625689575E+02 0.  0.
         -6    2    1    2    0  501  0.64359794146E+01 -0.63782869217E+02  0.19459998323E+03  0.26767833458E+03  0.17225812344E+03 0.  0.
        -24    2    5    5    0    0 -0.45156244552E+02  0.74042161180E+01  0.76056540436E+02  0.12001657066E+03  0.80780387797E+02 0.  0.
          5    1    3    3  502    0 -0.43998039297E+02  0.16291783559E+02  0.81041103519E+02  0.93760333474E+02  0.47000000000E+01 0. -1.
        -13    1    4    4    0    0 -0.77333852452E+01 -0.18460765888E+02 -0.38341751705E+01  0.20379058461E+02  0.00000000000E+00 0.  1.
         14    1    4    4    0    0  0.45295445127E+02  0.65951851545E+02 -0.12542618570E+02  0.80985439136E+02  0.00000000000E+00 0. -1.
         -5    1    5    5    0  501  0.51592223966E+02 -0.71187085335E+02  0.11854344279E+03  0.14766176391E+03  0.47000000000E+01 0.  1.
         13    1    6    6    0    0 -0.11812731233E+02 -0.32592286978E+01 -0.16791970562E+02  0.20787820142E+02  0.00000000000E+00 0. -1.
        -14    1    6    6    0    0 -0.33343513319E+02  0.10663444816E+02  0.92848510998E+02  0.99228750523E+02  0.00000000000E+00 0.  1.
</event>
<event>
12    1  0.2625820E-002  0.1750999E+03  0.7818608E-02  0.1172631E+00
          2   -1    0    0  502    0  0.00000000000E+00  0.00000000000E+00  0.11434823090E+04  0.11434823090E+04  0.00000000000E+00 0.  1.
         -2   -1    0    0    0  501 -0.00000000000E+00 -0.00000000000E+00 -0.27609888220E+02  0.27609888220E+02  0.00000000000E+00 0. -1.
          6    2    1    2  502    0 -0.26892349196E+02 -0.87790329522E+01  0.66068470058E+03  0.68377084992E+03  0.17389086162E+03 0.  0.
         24    2    3    3    0    0 -0.74566757098E+02  0.15453969370E+02  0.30478561120E+03  0.32384538625E+03  0.78629122930E+02 0.  0.
         -6    2    1    2    0  501  0.26892349196E+02  0.87790329522E+01  0.45518772020E+03  0.48732134730E+03  0.17171477819E+03 0.  0.
        -24    2    5    5    0    0 -0.18751738206E+01  0.46128034937E+02  0.13713568015E+03  0.16575998689E+03  0.80863258647E+02 0.  0.
          5    1    3    3  502    0  0.47674407902E+02 -0.24233002322E+02  0.35589908938E+03  0.35992546367E+03  0.47000000000E+01 0. -1.
        -11    1    4    4    0    0 -0.71819237824E+02 -0.17262431177E+02  0.17455568170E+03  0.18954070925E+03  0.00000000000E+00 0.  1.
         12    1    4    4    0    0 -0.27475192744E+01  0.32716400547E+02  0.13022992950E+03  0.13430467700E+03  0.00000000000E+00 0. -1.
         -5    1    5    5    0  501  0.28767523016E+02 -0.37349001985E+02  0.31805204005E+03  0.32156136041E+03  0.47000000000E+01 0.  1.
         11    1    6    6    0    0 -0.30829726027E+02  0.23579049300E+01  0.18492126534E+02  0.36027634759E+02  0.00000000000E+00 0. -1.
        -12    1    6    6    0    0  0.28954552207E+02  0.43770130007E+02  0.11864355362E+03  0.12973235213E+03  0.00000000000E+00 0.  1.
</event>
<event>
12    1  0.2625820E-002  0.1893959E+03  0.7818608E-02  0.1159007E+00
          2   -1    0    0  502    0  0.00000000000E+00  0.00000000000E+00  0.71835759252E+03  0.71835759252E+03  0.00000000000E+00 0. -1.
         -2   -1    0    0    0  501 -0.00000000000E+00 -0.00000000000E+00 -0.50163012462E+02  0.50163012462E+02  0.00000000000E+00 0.  1.
          6    2    1    2  502    0  0.29727692106E+01  0.86185118392E+02  0.35149555213E+03  0.39737265901E+03  0.16407070113E+03 0.  0.
         24    2    3    3    0    0 -0.16517331964E+02 -0.31049883256E+01  0.97192462182E+02  0.12710475718E+03  0.80167208912E+02 0.  0.
         -6    2    1    2    0  501 -0.29727692106E+01 -0.86185118392E+02  0.31669902793E+03  0.37114794598E+03  0.17325071868E+03 0.  0.
        -24    2    5    5    0    0  0.14555310204E+02 -0.51077133543E+02  0.66030876230E+02  0.11738345586E+03  0.81228495416E+02 0.  0.
          5    1    3    3  502    0  0.19490101175E+02  0.89290106717E+02  0.25430308995E+03  0.27026790183E+03  0.47000000000E+01 0. -1.
        -13    1    4    4    0    0 -0.23610376385E+02  0.35333672237E+02  0.44948603905E+02  0.61857055053E+02  0.00000000000E+00 0.  1.
         14    1    4    4    0    0  0.70930444210E+01 -0.38438660563E+02  0.52243858277E+02  0.65247702126E+02  0.00000000000E+00 0. -1.
         -5    1    5    5    0  501 -0.17528079415E+02 -0.35107984849E+02  0.25066815170E+03  0.25376449012E+03  0.47000000000E+01 0.  1.
         13    1    6    6    0    0  0.42552423056E+02 -0.51956327682E+02  0.56599061746E+02  0.87827230883E+02  0.00000000000E+00 0. -1.
        -14    1    6    6    0    0 -0.27997112851E+02  0.87919413944E+00  0.94318144841E+01  0.29556224976E+02  0.00000000000E+00 0.  1.
</event>
<event>
12    1  0.2625820E-002  0.1926098E+03  0.7818608E-02  0.1156128E+00
         -2   -1    0    0    0  501 -0.00000000000E+00  0.00000000000E+00  0.23716107111E+02  0.23716107111E+02  0.00000000000E+00 0.  1.
          2   -1    0    0  502    0  0.00000000000E+00 -0.00000000000E+00 -0.18458626999E+04  0.18458626999E+04  0.00000000000E+00 0. -1.
          6    2    1    2  502    0 -0.44154854059E+01  0.85625480483E+02 -0.12760261788E+04  0.12904753372E+04  0.17243134149E+03 0.  0.
         24    2    3    3    0    0 -0.54783626827E+02  0.14008412447E+02 -0.36803506501E+03  0.37826050130E+03  0.66586157613E+02 0.  0.
         -6    2    1    2    0  501  0.44154854059E+01 -0.85625480483E+02 -0.54612041393E+03  0.57910346975E+03  0.17251696364E+03 0.  0.
        -24    2    5    5    0    0 -0.63766432383E+02 -0.53044296851E+02 -0.30950065371E+03  0.33066573436E+03  0.81665891923E+02 0.  0.
          5    1    3    3  502    0  0.50368141421E+02  0.71617068036E+02 -0.90799111382E+03  0.91221483592E+03  0.47000000000E+01 0. -1.
        -11    1    4    4    0    0 -0.16467735023E+02  0.38342458479E+02 -0.16240359484E+03  0.16767903279E+03  0.00000000000E+00 0.  1.
         12    1    4    4    0    0 -0.38315891803E+02 -0.24334046032E+02 -0.20563147016E+03  0.21058146851E+03  0.00000000000E+00 0. -1.
         -5    1    5    5    0  501  0.68181917789E+02 -0.32581183632E+02 -0.23661976022E+03  0.24843773539E+03  0.47000000000E+01 0.  1.
         11    1    6    6    0    0 -0.30625193458E+02  0.14842956711E+02 -0.15490428455E+03  0.15859871755E+03  0.00000000000E+00 0. -1.
        -12    1    6    6    0    0 -0.33141238926E+02 -0.67887253562E+02 -0.15459636917E+03  0.17206701681E+03  0.00000000000E+00 0.  1.
</event>
<event>
12    1  0.2625820E-002  0.2215574E+03  0.7818608E-02  0.1132727E+00
          2   -1    0    0  502    0  0.00000000000E+00  0.00000000000E+00  0.10957932667E+04  0.10957932667E+04  0.00000000000E+00 0.  1.
         -2   -1    0    0    0  501 -0.00000000000E+00 -0.00000000000E+00 -0.53846999963E+02  0.53846999963E+02  0.00000000000E+00 0. -1.
          6    2    1    2  502    0  0.46017015082E+02  0.13191473355E+03  0.28522286819E+03  0.36113646706E+03  0.17189648252E+03 0.  0.
         24    2    3    3    0    0  0.39472166490E+02  0.36292988651E+02  0.23206053222E+03  0.25143379113E+03  0.80570638307E+02 0.  0.
         -6    2    1    2    0  501 -0.46017015082E+02 -0.13191473355E+03  0.75672339857E+03  0.78850379962E+03  0.17201417809E+03 0.  0.
        -24    2    5    5    0    0 -0.72179597196E+02 -0.23541791046E+02  0.34553041945E+03  0.36243933097E+03  0.78783803469E+02 0.  0.
          5    1    3    3  502    0  0.65448485917E+01  0.95621744902E+02  0.53162335969E+02  0.10970267593E+03  0.47000000000E+01 0. -1.
        -13    1    4    4    0    0 -0.10549951853E+02  0.32431428476E+02  0.16021397528E+03  0.16380359249E+03  0.00000000000E+00 0.  1.
         14    1    4    4    0    0  0.50022118343E+02  0.38615601755E+01  0.71846556938E+02  0.87630198644E+02  0.00000000000E+00 0. -1.
         -5    1    5    5    0  501  0.26162582114E+02 -0.10837294251E+03  0.41119297912E+03  0.42606446865E+03  0.47000000000E+01 0.  1.
         13    1    6    6    0    0  0.12477157094E+02  0.84508565894E+01  0.23359306449E+02  0.27798446432E+02  0.00000000000E+00 0. -1.
        -14    1    6    6    0    0 -0.84656754290E+02 -0.31992647635E+02  0.32217111300E+03  0.33464088453E+03  0.00000000000E+00 0.  1.
</event>
<event>
12    1  0.2625820E-002  0.2145837E+03  0.7818608E-02  0.1137987E+00
          2   -1    0    0  502    0  0.00000000000E+00  0.00000000000E+00  0.75116303221E+03  0.75116303221E+03  0.00000000000E+00 0.  1.
         -2   -1    0    0    0  501 -0.00000000000E+00 -0.00000000000E+00 -0.69053462721E+02  0.69053462721E+02  0.00000000000E+00 0. -1.
          6    2    1    2  502    0 -0.54739510424E+02  0.99543422303E+02  0.21597432219E+03  0.31034371527E+03  0.19173681659E+03 0.  0.
         24    2    3    3    0    0 -0.90532161348E+01  0.13831787815E+03  0.17792820246E+03  0.23920797785E+03  0.79675688256E+02 0.  0.
         -6    2    1    2    0  501  0.54739510424E+02 -0.99543422303E+02  0.46613524730E+03  0.50987277966E+03  0.17257715881E+03 0.  0.
        -24    2    5    5    0    0  0.13971830381E+02  0.27822861261E+01  0.10751784145E+03  0.13469137272E+03  0.79866929914E+02 0.  0.
          5    1    3    3  502    0 -0.45686294289E+02 -0.38774455842E+02  0.38046119735E+02  0.71135737423E+02  0.47000000000E+01 0. -1.
        -11    1    4    4    0    0 -0.26754095106E+02  0.12475370363E+03  0.11257254121E+03  0.17015241758E+03  0.00000000000E+00 0.  1.
         12    1    4    4    0    0  0.17700878971E+02  0.13564174516E+02  0.65355661246E+02  0.69055560266E+02  0.00000000000E+00 0. -1.
         -5    1    5    5    0  501  0.40767680043E+02 -0.10232570843E+03  0.35861740585E+03  0.37518140695E+03  0.47000000000E+01 0.  1.
         13    1    6    6    0    0 -0.18235922397E+02 -0.93093889984E+01 -0.13480167485E+01  0.20519033563E+02  0.00000000000E+00 0. -1.
        -14    1    6    6    0    0  0.32207752779E+02  0.12091675124E+02  0.10886585820E+03  0.11417233916E+03  0.00000000000E+00 0.  1.
</event>
<event>
12    1  0.2625820E-002  0.2089352E+03  0.7818608E-02  0.1142412E+00
          1   -1    0    0  502    0  0.00000000000E+00  0.00000000000E+00  0.88283200466E+02  0.88283200466E+02  0.00000000000E+00 0.  1.
         -1   -1    0    0    0  501 -0.00000000000E+00 -0.00000000000E+00 -0.49687573122E+03  0.49687573122E+03  0.00000000000E+00 0. -1.
          6    2    1    2  502    0  0.10661540761E+03  0.50705231778E+02 -0.18364200821E+03  0.27791824331E+03  0.17197760643E+03 0.  0.
         24    2    3    3    0    0 -0.12923244890E+01  0.31138228054E+02 -0.34487798043E+02  0.92726411164E+02  0.80234155848E+02 0.  0.
         -6    2    1    2    0  501 -0.10661540761E+03 -0.50705231778E+02 -0.22495052254E+03  0.30724068837E+03  0.17278957530E+03 0.  0.
        -24    2    5    5    0    0 -0.82813725810E+02 -0.86066633266E+02 -0.22283253025E+03  0.26430440228E+03  0.77051294512E+02 0.  0.
          5    1    3    3  502    0  0.10790773210E+03  0.19567003723E+02 -0.14915421017E+03  0.18519183214E+03  0.47000000000E+01 0. -1.
        -11    1    4    4    0    0 -0.37396891156E+02  0.21049510513E+02 -0.34779148434E+02  0.55237654971E+02  0.00000000000E+00 0.  1.
         12    1    4    4    0    0  0.36104566667E+02  0.10088717541E+02  0.29135039115E+00  0.37488756193E+02  0.00000000000E+00 0. -1.
         -5    1    5    5    0  501 -0.23801681803E+02  0.35361401488E+02 -0.21179922922E+01  0.42936286090E+02  0.47000000000E+01 0.  1.
         11    1    6    6    0    0  0.14007005088E+02 -0.19385474655E+02 -0.28796224879E+02  0.37432811629E+02  0.00000000000E+00 0. -1.
        -12    1    6    6    0    0 -0.96820730899E+02 -0.66681158610E+02 -0.19403630537E+03  0.22687159066E+03  0.00000000000E+00 0.  1.
</event>
<event>
12    1  0.2625820E-002  0.2591417E+03  0.7818608E-02  0.1107660E+00
         -1   -1    0    0    0  501 -0.00000000000E+00  0.00000000000E+00  0.77438695984E+02  0.77438695984E+02  0.00000000000E+00 0. -1.
          1   -1    0    0  502    0  0.00000000000E+00 -0.00000000000E+00 -0.87560688514E+03  0.87560688514E+03  0.00000000000E+00 0.  1.
          6    2    1    2  502    0  0.18866026204E+03  0.45369248834E+02 -0.35221442935E+03  0.43721200396E+03  0.17160497939E+03 0.  0.
         24    2    3    3    0    0  0.13699062509E+03 -0.25715216951E+02 -0.18850965081E+03  0.25135158005E+03  0.90631256205E+02 0.  0.
         -6    2    1    2    0  501 -0.18866026204E+03 -0.45369248834E+02 -0.44595375981E+03  0.51583357716E+03  0.17192574045E+03 0.  0.
        -24    2    5    5    0    0 -0.51935336194E+02  0.17956623024E+02 -0.10175275594E+03  0.14006730345E+03  0.79028518264E+02 0.  0.
          5    1    3    3  502    0  0.51669636952E+02  0.71084465785E+02 -0.16370477853E+03  0.18586042390E+03  0.47000000000E+01 0. -1.
        -11    1    4    4    0    0 -0.10140874670E+02  0.25372237226E+01 -0.36311491168E+02  0.37786230748E+02  0.00000000000E+00 0.  1.
         12    1    4    4    0    0  0.14713149976E+03 -0.28252440673E+02 -0.15219815964E+03  0.21356534931E+03  0.00000000000E+00 0. -1.
         -5    1    5    5    0  501 -0.13672492585E+03 -0.63325871858E+02 -0.34420100387E+03  0.37576627371E+03  0.47000000000E+01 0.  1.
         11    1    6    6    0    0 -0.60198401596E+02  0.11177604002E+02 -0.11045161240E+03  0.12628675729E+03  0.00000000000E+00 0. -1.
        -12    1    6    6    0    0  0.82630654017E+01  0.67790190219E+01  0.86988564600E+01  0.13780546159E+02  0.00000000000E+00 0.  1.
</event>
<event>
12    1  0.2625820E-002  0.1926144E+03  0.7818608E-02  0.1156124E+00
          2   -1    0    0  502    0  0.00000000000E+00  0.00000000000E+00  0.29770882116E+04  0.29770882116E+04  0.00000000000E+00 0.  1.
         -2   -1    0    0    0  501 -0.00000000000E+00 -0.00000000000E+00 -0.12530300556E+02  0.12530300556E+02  0.00000000000E+00 0. -1.
          6    2    1    2  502    0  0.31019693185E+02 -0.80244002042E+02  0.13674648369E+04  0.13808817449E+04  0.17167699867E+03 0.  0.
         24    2    3    3    0    0  0.68709711350E+02 -0.10738524723E+02  0.93889771654E+03  0.94505676221E+03  0.82261906817E+02 0.  0.
         -6    2    1    2    0  501 -0.31019693185E+02  0.80244002042E+02  0.15970930741E+04  0.16087367673E+04  0.17299242115E+03 0.  0.
        -24    2    5    5    0    0 -0.51205637050E+02  0.11911013907E+02  0.12850111754E+04  0.12885898149E+04  0.80287612359E+02 0.  0.
          5    1    3    3  502    0 -0.37690018165E+02 -0.69505477319E+02  0.42856712037E+03  0.43582498266E+03  0.47000000000E+01 0. -1.
        -11    1    4    4    0    0  0.56052332897E+02 -0.37925694484E+02  0.43164548129E+03  0.43691880692E+03  0.00000000000E+00 0.  1.
         12    1    4    4    0    0  0.12657378453E+02  0.27187169760E+02  0.50725223526E+03  0.50813795529E+03  0.00000000000E+00 0. -1.
         -5    1    5    5    0  501  0.20185943865E+02  0.68332988135E+02  0.31208189871E+03  0.32014695235E+03  0.47000000000E+01 0.  1.
         11    1    6    6    0    0 -0.11767972805E+02  0.17985161417E+02  0.77656863444E+02  0.80576297104E+02  0.00000000000E+00 0. -1.
        -12    1    6    6    0    0 -0.39437664245E+02 -0.60741475106E+01  0.12073543120E+04  0.12080135178E+04  0.00000000000E+00 0.  1.
</event>
<event>
12    1  0.2625820E-002  0.1958348E+03  0.7818608E-02  0.1153302E+00
         -2   -1    0    0    0  501 -0.00000000000E+00  0.00000000000E+00  0.31820568150E+02  0.31820568150E+02  0.00000000000E+00 0.  1.
          2   -1    0    0  502    0  0.00000000000E+00 -0.00000000000E+00 -0.15017991650E+04  0.15017991650E+04  0.00000000000E+00 0. -1.
          6    2    1    2  502    0  0.13009398054E+02 -0.93377717503E+02 -0.10740449155E+04  0.10916521697E+04  0.17100683173E+03 0.  0.
         24    2    3    3    0    0 -0.14219866361E+01 -0.12587127073E+03 -0.97377889791E+03  0.98516526838E+03  0.80372042219E+02 0.  0.
         -6    2    1    2    0  501 -0.13009398054E+02  0.93377717503E+02 -0.39593368135E+03  0.44196756347E+03  0.17228814401E+03 0.  0.
        -24    2    5    5    0    0  0.15143708886E+02  0.57249424640E+02 -0.38080128745E+03  0.39350179905E+03  0.79543804241E+02 0.  0.
          5    1    3    3  502    0  0.14431384690E+02  0.32493553228E+02 -0.10026601762E+03  0.10648690133E+03  0.47000000000E+01 0. -1.
        -13    1    4    4    0    0 -0.34307313233E+02 -0.22968869485E+02 -0.27871990152E+03  0.28176114745E+03  0.00000000000E+00 0.  1.
         14    1    4    4    0    0  0.32885326597E+02 -0.10290240125E+03 -0.69505899638E+03  0.70340412093E+03  0.00000000000E+00 0. -1.
         -5    1    5    5    0  501 -0.28153106940E+02  0.36128292863E+02 -0.15132393903E+02  0.48465764420E+02  0.47000000000E+01 0.  1.
         13    1    6    6    0    0 -0.34276713537E+01 -0.99469567443E+01 -0.19120718775E+03  0.19149642171E+03  0.00000000000E+00 0. -1.
        -14    1    6    6    0    0  0.18571380239E+02  0.67196381385E+02 -0.18959409970E+03  0.20200537735E+03  0.00000000000E+00 0.  1.
</event>
<event>
12    1  0.2625820E-002  0.1887984E+03  0.7818608E-02  0.1159550E+00
         -2   -1    0    0    0  501 -0.00000000000E+00  0.00000000000E+00  0.80604883109E+02  0.80604883109E+02  0.00000000000E+00 0. -1.
          2   -1    0    0  502    0  0.00000000000E+00 -0.00000000000E+00 -0.44353815698E+03  0.44353815698E+03  0.00000000000E+00 0.  1.
          6    2    1    2  502    0 -0.84363019266E+02  0.37734609605E+02 -0.16431996859E+03  0.24501238880E+03  0.15648961245E+03 0.  0.
         24    2    3    3    0    0 -0.56318234822E+02  0.83554651025E+02 -0.11872508035E+03  0.17439390705E+03  0.78514118679E+02 0.  0.
         -6    2    1    2    0  501  0.84363019266E+02 -0.37734609605E+02 -0.19861330527E+03  0.27913065129E+03  0.17299033405E+03 0.  0.
        -24    2    5    5    0    0  0.30416342693E+01 -0.69914885118E+02 -0.13034700407E+03  0.16808509455E+03  0.79780416402E+02 0.  0.
          5    1    3    3  502    0 -0.28044784444E+02 -0.45820041420E+02 -0.45594888247E+02  0.70618481749E+02  0.47000000000E+01 0. -1.
        -11    1    4    4    0    0 -0.48670784128E+02  0.54786441684E+02 -0.12412214895E+03  0.14414127542E+03  0.00000000000E+00 0.  1.
         12    1    4    4    0    0 -0.76474506940E+01  0.28768209342E+02  0.53970686064E+01  0.30252631628E+02  0.00000000000E+00 0. -1.
         -5    1    5    5    0  501  0.81321384997E+02  0.32180275513E+02 -0.68266301206E+02  0.11104555673E+03  0.47000000000E+01 0.  1.
         13    1    6    6    0    0  0.41237055528E+02 -0.39841213004E+02 -0.65779679450E+02  0.87262725323E+02  0.00000000000E+00 0. -1.
        -14    1    6    6    0    0 -0.38195421259E+02 -0.30073672114E+02 -0.64567324619E+02  0.80822369231E+02  0.00000000000E+00 0.  1.
</event>
<event>
12    1  0.2625820E-002  0.2138234E+03  0.7818608E-02  0.1138574E+00
          2   -1    0    0  502    0  0.00000000000E+00  0.00000000000E+00  0.30345815044E+04  0.30345815044E+04  0.00000000000E+00 0.  1.
         -2   -1    0    0    0  501 -0.00000000000E+00 -0.00000000000E+00 -0.16870339317E+02  0.16870339317E+02  0.00000000000E+00 0. -1.
          6    2    1    2  502    0 -0.29312922676E+02  0.12427636558E+03  0.20049710299E+04  0.20162939239E+04  0.17096342910E+03 0.  0.
         24    2    3    3    0    0  0.69455000220E+01  0.24694172463E+02  0.13684458058E+04  0.13709895481E+04  0.79437872106E+02 0.  0.
         -6    2    1    2    0  501  0.29312922676E+02 -0.12427636558E+03  0.10127401351E+04  0.10351579198E+04  0.17206241659E+03 0.  0.
        -24    2    5    5    0    0 -0.11978704895E+02 -0.82852378161E+02  0.32541964780E+03  0.34533730000E+03  0.79698793319E+02 0.  0.
          5    1    3    3  502    0 -0.36258422698E+02  0.99582193115E+02  0.63652522413E+03  0.64530437574E+03  0.47000000000E+01 0. -1.
        -13    1    4    4    0    0 -0.35818904917E+02  0.12766872306E+02  0.74095586602E+03  0.74193098222E+03  0.00000000000E+00 0.  1.
         14    1    4    4    0    0  0.42764404939E+02  0.11927300157E+02  0.62748993977E+03  0.62905856590E+03  0.00000000000E+00 0. -1.
         -5    1    5    5    0  501  0.41291627572E+02 -0.41423987417E+02  0.68732048735E+03  0.68982061985E+03  0.47000000000E+01 0.  1.
         13    1    6    6    0    0 -0.41562459345E+02 -0.20798037397E+02  0.11802659363E+03  0.12684744062E+03  0.00000000000E+00 0. -1.
        -14    1    6    6    0    0  0.29583754449E+02 -0.62054340764E+02  0.20739305417E+03  0.21848985938E+03  0.00000000000E+00 0.  1.
</event>
<event>
12    1  0.2625820E-002  0.1747834E+03  0.7818608E-02  0.1172949E+00
         -1   -1    0    0    0  501 -0.00000000000E+00  0.00000000000E+00  0.11783288463E+03  0.11783288463E+03  0.00000000000E+00 0. -1.
          1   -1    0    0  502    0  0.00000000000E+00 -0.00000000000E+00 -0.31337764439E+03  0.31337764439E+03  0.00000000000E+00 0.  1.
          6    2    1    2  502    0  0.29124279244E+02 -0.78328937570E+01 -0.18768010244E+03  0.25692553199E+03  0.17285060100E+03 0.  0.
         24    2    3    3    0    0  0.15238001686E+02  0.61604323907E+02 -0.88478197079E+02  0.13495232210E+03  0.79727338241E+02 0.  0.
         -6    2    1    2    0  501 -0.29124279244E+02  0.78328937570E+01 -0.78646573127E+01  0.17428499704E+03  0.17147544866E+03 0.  0.
        -24    2    5    5    0    0  0.24220448709E+02  0.49016755151E+02  0.24632293918E+02  0.99318922852E+02  0.79172129639E+02 0.  0.
          5    1    3    3  502    0  0.13886277558E+02 -0.69437217664E+02 -0.99201905364E+02  0.12197320988E+03  0.47000000000E+01 0. -1.
        -13    1    4    4    0    0  0.12297912257E+02  0.13248687818E+02 -0.84424514290E+02  0.86338085385E+02  0.00000000000E+00 0.  1.
         14    1    4    4    0    0  0.29400894297E+01  0.48355636089E+02 -0.40536827887E+01  0.48614236717E+02  0.00000000000E+00 0. -1.
         -5    1    5    5    0  501 -0.53344727953E+02 -0.41183861394E+02 -0.32496951230E+02  0.74966074187E+02  0.47000000000E+01 0.  1.
         13    1    6    6    0    0 -0.26157500770E+02  0.13327016156E+01  0.12008602640E+02  0.28813147650E+02  0.00000000000E+00 0. -1.
        -14    1    6    6    0    0  0.50377949479E+02  0.47684053535E+02  0.12623691278E+02  0.70505775202E+02  0.00000000000E+00 0.  1.
</event>
<event>
12    1  0.2625820E-002  0.2135225E+03  0.7818608E-02  0.1138807E+00
         -2   -1    0    0    0  501 -0.00000000000E+00  0.00000000000E+00  0.61613130471E+03  0.61613130471E+03  0.00000000000E+00 0.  1.
          2   -1    0    0  502    0  0.00000000000E+00 -0.00000000000E+00 -0.75456527734E+02  0.75456527734E+02  0.00000000000E+00 0. -1.
          6    2    1    2  502    0 -0.37232721864E+02 -0.12233892545E+03  0.22227414401E+03  0.30823320842E+03  0.17102288567E+03 0.  0.
         24    2    3    3    0    0 -0.42012171649E+02 -0.13462174029E+03  0.10659371445E+03  0.19170955218E+03  0.74177469028E+02 0.  0.
         -6    2    1    2    0  501  0.37232721864E+02  0.12233892545E+03  0.31840063297E+03  0.38335462402E+03  0.17096407935E+03 0.  0.
        -24    2    5    5    0    0 -0.20855136699E+02  0.10534246969E+03  0.13755512407E+03  0.19259229307E+03  0.81476417116E+02 0.  0.
          5    1    3    3  502    0  0.47794497850E+01  0.12282814848E+02  0.11568042955E+03  0.11652365623E+03  0.47000000000E+01 0. -1.
        -11    1    4    4    0    0 -0.63287110168E+02 -0.10344878212E+03  0.86432829416E+02  0.14892126388E+03  0.00000000000E+00 0.  1.
         12    1    4    4    0    0  0.21274938519E+02 -0.31172958174E+02  0.20160885038E+02  0.42788288302E+02  0.00000000000E+00 0. -1.
         -5    1    5    5    0  501  0.58087858562E+02  0.16996455754E+02  0.18084550890E+03  0.19076233095E+03  0.47000000000E+01 0.  1.
         13    1    6    6    0    0  0.27890167978E+02  0.32725935701E+02  0.69702048305E+02  0.81897642672E+02  0.00000000000E+00 0. -1.
        -14    1    6    6    0    0 -0.48745304676E+02  0.72616533991E+02  0.67853075765E+02  0.11069465040E+03  0.00000000000E+00 0.  1.
</event>
<event>
12    1  0.2625820E-002  0.2523684E+03  0.7818608E-02  0.1111817E+00
         -2   -1    0    0    0  501 -0.00000000000E+00  0.00000000000E+00  0.59394577313E+02  0.59394577313E+02  0.00000000000E+00 0.  1.
          2   -1    0    0  502    0  0.00000000000E+00 -0.00000000000E+00 -0.11067966958E+04  0.11067966958E+04  0.00000000000E+00 0. -1.
          6    2    1    2  502    0  0.11975082565E+03 -0.14135944979E+03 -0.42157386870E+03  0.49154032586E+03  0.17194362706E+03 0.  0.
         24    2    3    3    0    0  0.64387742083E+02 -0.86735577365E+02 -0.11668201888E+03  0.17685005186E+03  0.77410629781E+02 0.  0.
         -6    2    1    2    0  501 -0.11975082565E+03  0.14135944979E+03 -0.62582824977E+03  0.67465094723E+03  0.17079270508E+03 0.  0.
        -24    2    5    5    0    0 -0.29084579297E+02  0.12997778226E+03 -0.45677627231E+03  0.48242563239E+03  0.79685577182E+02 0.  0.
          5    1    3    3  502    0  0.55363083565E+02 -0.54623872423E+02 -0.30489184982E+03  0.31469027400E+03  0.47000000000E+01 0. -1.
        -11    1    4    4    0    0  0.80591564280E+02 -0.75069233258E+02 -0.83852609577E+02  0.13842561233E+03  0.00000000000E+00 0.  1.
         12    1    4    4    0    0 -0.16203822198E+02 -0.11666344107E+02 -0.32829409300E+02  0.38424439535E+02  0.00000000000E+00 0. -1.
         -5    1    5    5    0  501 -0.90666246351E+02  0.11381667528E+02 -0.16905197746E+03  0.19222531484E+03  0.47000000000E+01 0.  1.
         13    1    6    6    0    0 -0.29280588040E+02  0.11332071149E+02 -0.53233065898E+02  0.61802329870E+02  0.00000000000E+00 0. -1.
        -14    1    6    6    0    0  0.19600874305E+00  0.11864571111E+03 -0.40354320641E+03  0.42062330252E+03  0.00000000000E+00 0.  1.
</event>
<event>
12    1  0.2625820E-002  0.1885479E+03  0.7818608E-02  0.1159778E+00
         -1   -1    0    0    0  501 -0.00000000000E+00  0.00000000000E+00  0.45388881733E+03  0.45388881733E+03  0.00000000000E+00 0. -1.
          1   -1    0    0  502    0  0.00000000000E+00 -0.00000000000E+00 -0.81340352473E+02  0.81340352473E+02  0.00000000000E+00 0.  1.
          6    2    1    2  502    0 -0.23176528776E+02  0.74279188587E+02  0.23756570451E+03  0.30313622326E+03  0.17146298886E+03 0.  0.
         24    2    3    3    0    0 -0.33106493955E+02  0.11475189938E+03  0.18749143663E+03  0.23782032297E+03  0.84506975176E+02 0.  0.
         -6    2    1    2    0  501  0.23176528776E+02 -0.74279188587E+02  0.13498276035E+03  0.23209294654E+03  0.17202395444E+03 0.  0.
        -24    2    5    5    0    0 -0.41032023930E+02 -0.84852202591E+02  0.91524259661E+02  0.15370124961E+03  0.79773809947E+02 0.  0.
          5    1    3    3  502    0  0.99299651790E+01 -0.40472710792E+02  0.50074267876E+02  0.65315900290E+02  0.47000000000E+01 0. -1.
        -13    1    4    4    0    0 -0.21115041903E+02  0.21538864821E-01  0.70207091529E+02  0.73313581002E+02  0.00000000000E+00 0.  1.
         14    1    4    4    0    0 -0.11991452052E+02  0.11473036051E+03  0.11728434510E+03  0.16450674197E+03  0.00000000000E+00 0. -1.
         -5    1    5    5    0  501  0.64208552706E+02  0.10573014004E+02  0.43458500685E+02  0.78391696929E+02  0.47000000000E+01 0.  1.
         11    1    6    6    0    0 -0.49240051494E+02 -0.19612339011E+02  0.62157903560E+02  0.81687401033E+02  0.00000000000E+00 0. -1.
        -12    1    6    6    0    0  0.82080275641E+01 -0.65239863580E+02  0.29366356101E+02  0.72013848578E+02  0.00000000000E+00 0.  1.
</event>
<event>
12    1  0.2625820E-002  0.2385076E+03  0.7818608E-02  0.1120791E+00
          2   -1    0    0  502    0  0.00000000000E+00  0.00000000000E+00  0.89400487522E+02  0.89400487522E+02  0.00000000000E+00 0.  1.
         -2   -1    0    0    0  501 -0.00000000000E+00 -0.00000000000E+00 -0.69522294268E+03  0.69522294268E+03  0.00000000000E+00 0. -1.
          6    2    1    2  502    0 -0.12996659417E+03 -0.10235663340E+03 -0.41652881613E+03  0.47973061830E+03  0.17110527597E+03 0.  0.
         24    2    3    3    0    0 -0.10895987882E+03 -0.96467199376E+02 -0.19061942613E+03  0.25272156559E+03  0.79713539294E+02 0.  0.
         -6    2    1    2    0  501  0.12996659417E+03  0.10235663340E+03 -0.18929363903E+03  0.30489281191E+03  0.17250898230E+03 0.  0.
        -24    2    5    5    0    0  0.11391373965E+03  0.12522339187E+03 -0.99977851568E+02  0.21119125017E+03  0.77129341973E+02 0.  0.
          5    1    3    3  502    0 -0.21006715354E+02 -0.58894340195E+01 -0.22590939000E+03  0.22700905271E+03  0.47000000000E+01 0. -1.
        -11    1    4    4    0    0 -0.35054072854E+01 -0.44367380560E+02 -0.30133909400E+02  0.53747603051E+02  0.00000000000E+00 0.  1.
         12    1    4    4    0    0 -0.10545447153E+03 -0.52099818816E+02 -0.16048551673E+03  0.19897396254E+03  0.00000000000E+00 0. -1.
         -5    1    5    5    0  501  0.16052854524E+02 -0.22866758475E+02 -0.89315787463E+02  0.93701561736E+02  0.47000000000E+01 0.  1.
         11    1    6    6    0    0  0.70935615689E+02  0.12412210776E+03 -0.79337044983E+02  0.16350084378E+03  0.00000000000E+00 0. -1.
        -12    1    6    6    0    0  0.42978123958E+02  0.11012841057E+01 -0.20640806585E+02  0.47690406395E+02  0.00000000000E+00 0.  1.
</event>
<event>
12    1  0.2625820E-002  0.2464878E+03  0.7818608E-02  0.1115545E+00
         -1   -1    0    0    0  501 -0.00000000000E+00  0.00000000000E+00  0.26584617835E+02  0.26584617835E+02  0.00000000000E+00 0. -1.
          1   -1    0    0  502    0  0.00000000000E+00 -0.00000000000E+00 -0.25890851694E+04  0.25890851694E+04  0.00000000000E+00 0.  1.
          6    2    1    2  502    0 -0.43590948303E+02 -0.17139374733E+03 -0.17313231017E+04  0.17488478170E+04  0.17237464142E+03 0.  0.
         24    2    3    3    0    0  0.15561439475E+02 -0.32064938503E+02 -0.85799552822E+03  0.86248747119E+03  0.80361637848E+02 0.  0.
         -6    2    1    2    0  501  0.43590948303E+02  0.17139374733E+03 -0.83117744988E+03  0.86682197029E+03  0.17102159979E+03 0.  0.
        -24    2    5    5    0    0  0.24176206544E+02  0.13182578710E+03 -0.79351555173E+03  0.80865785553E+03  0.79360376536E+02 0.  0.
          5    1    3    3  502    0 -0.59152387779E+02 -0.13932880882E+03 -0.87332757349E+03  0.88636034578E+03  0.47000000000E+01 0. -1.
        -11    1    4    4    0    0  0.31078769195E+02 -0.14512597381E+02 -0.78657598281E+03  0.78732349267E+03  0.00000000000E+00 0.  1.
         12    1    4    4    0    0 -0.15517329720E+02 -0.17552341122E+02 -0.71419545402E+02  0.75163978513E+02  0.00000000000E+00 0. -1.
         -5    1    5    5    0  501  0.19414741760E+02  0.39567960223E+02 -0.37661898150E+02  0.58164114762E+02  0.47000000000E+01 0.  1.
         11    1    6    6    0    0 -0.20640826350E+02  0.85821049903E+01 -0.74514301161E+02  0.77795098278E+02  0.00000000000E+00 0. -1.
        -12    1    6    6    0    0  0.44817032894E+02  0.12324368211E+03 -0.71900125057E+03  0.73086275725E+03  0.00000000000E+00 0.  1.
</event>
<event>
12    1  0.2625820E-002  0.2821870E+03  0.7818608E-02  0.1094500E+00
          2   -1    0    0  502    0  0.00000000000E+00  0.00000000000E+00  0.10718632213E+04  0.10718632213E+04  0.00000000000E+00 0. -1.
         -2   -1    0    0    0  501 -0.00000000000E+00 -0.00000000000E+00 -0.97743572290E+02  0.97743572290E+02  0.00000000000E+00 0.  1.
          6    2    1    2  502    0 -0.20338360261E+03 -0.98015763556E+02  0.77564090368E+03  0.82593847856E+03  0.17199877670E+03 0.  0.
         24    2    3    3    0    0 -0.44052408462E+02 -0.84525332787E+02  0.31083792632E+03  0.33437737462E+03  0.78120839981E+02 0.  0.
         -6    2    1    2    0  501  0.20338360261E+03  0.98015763556E+02  0.19847874538E+03  0.34366831507E+03  0.16655965509E+03 0.  0.
        -24    2    5    5    0    0  0.53359836207E+02  0.86214389805E+02  0.90034942379E+02  0.15811899193E+03  0.81333459483E+02 0.  0.
          5    1    3    3  502    0 -0.15933119415E+03 -0.13490430769E+02  0.46480297736E+03  0.49156110395E+03  0.47000000000E+01 0. -1.
        -13    1    4    4    0    0 -0.49218988156E+02 -0.73410140344E+02  0.30970312688E+03  0.32206767037E+03  0.00000000000E+00 0.  1.
         14    1    4    4    0    0  0.51665796944E+01 -0.11115192442E+02  0.11347994448E+01  0.12309704243E+02  0.00000000000E+00 0. -1.
         -5    1    5    5    0  501  0.15002376641E+03  0.11801373751E+02  0.10844380300E+03  0.18554932314E+03  0.47000000000E+01 0.  1.
         11    1    6    6    0    0  0.36820237847E+01  0.26102968054E+02  0.73932153799E+02  0.78491309109E+02  0.00000000000E+00 0. -1.
        -12    1    6    6    0    0  0.49677812422E+02  0.60111421751E+02  0.16102788580E+02  0.79627682824E+02  0.00000000000E+00 0.  1.
</event>
<event>
12    1  0.2625820E-002  0.1828904E+03  0.7818608E-02  0.1165035E+00
         -2   -1    0    0    0  501 -0.00000000000E+00  0.00000000000E+00  0.97401856252E+01  0.97401856252E+01  0.00000000000E+00 0.  1.
          2   -1    0    0  502    0  0.00000000000E+00 -0.00000000000E+00 -0.35994272237E+04  0.35994272237E+04  0.00000000000E+00 0. -1.
          6    2    1    2  502    0 -0.60615910471E+02  0.17868259082E+02 -0.21887127728E+04  0.21964050498E+04  0.17244702954E+03 0.  0.
         24    2    3    3    0    0 -0.51317506691E+01  0.52531808167E+02 -0.71968744694E+03  0.72591616802E+03  0.78856426363E+02 0.  0.
         -6    2    1    2    0  501  0.60615910471E+02 -0.17868259082E+02 -0.14009742653E+04  0.14127623594E+04  0.17080699354E+03 0.  0.
        -24    2    5    5    0    0  0.54207326334E+02  0.44292159813E+02 -0.11539624577E+04  0.11579253317E+04  0.65280091787E+02 0.  0.
          5    1    3    3  502    0 -0.55484159802E+02 -0.34663549085E+02 -0.14690253258E+04  0.14704888818E+04  0.47000000000E+01 0. -1.
        -13    1    4    4    0    0  0.11038631380E+02 -0.17818358674E+02 -0.22749897638E+03  0.22846253422E+03  0.00000000000E+00 0.  1.
         14    1    4    4    0    0 -0.16170382050E+02  0.70350166841E+02 -0.49218847056E+03  0.49745363380E+03  0.00000000000E+00 0. -1.
         -5    1    5    5    0  501  0.64085841368E+01 -0.62160418895E+02 -0.24701180754E+03  0.25483702771E+03  0.47000000000E+01 0.  1.
         13    1    6    6    0    0  0.28851111091E+02 -0.28942561475E+01 -0.73230880873E+03  0.73288263362E+03  0.00000000000E+00 0. -1.
        -14    1    6    6    0    0  0.25356215243E+02  0.47186415961E+02 -0.42165364900E+03  0.42504269811E+03  0.00000000000E+00 0.  1.
</event>
<event>
12    1  0.2625820E-002  0.1879044E+03  0.7818608E-02  0.1160365E+00
         -2   -1    0    0    0  501 -0.00000000000E+00  0.00000000000E+00  0.40680139311E+02  0.40680139311E+02  0.00000000000E+00 0. -1.
          2   -1    0    0  502    0  0.00000000000E+00 -0.00000000000E+00 -0.11198170426E+04  0.11198170426E+04  0.00000000000E+00 0.  1.
          6    2    1    2  502    0  0.68040070156E+02 -0.27841985423E+02 -0.26642812137E+03  0.32655380376E+03  0.17392186634E+03 0.  0.
         24    2    3    3    0    0  0.17808749131E+02  0.44166366593E+02 -0.89750375654E+02  0.12920765050E+03  0.79822725680E+02 0.  0.
         -6    2    1    2    0  501 -0.68040070156E+02  0.27841985423E+02 -0.81270878188E+03  0.83394337812E+03  0.17193419224E+03 0.  0.
        -24    2    5    5    0    0  0.41169502157E+01 -0.37875844845E+02 -0.36918469102E+03  0.37978351862E+03  0.80539779181E+02 0.  0.
          5    1    3    3  502    0  0.50231321025E+02 -0.72008352017E+02 -0.17667774572E+03  0.19734615325E+03  0.47000000000E+01 0. -1.
        -13    1    4    4    0    0  0.72993942392E+01  0.30857721692E+02 -0.10294712351E+03  0.10771996279E+03  0.00000000000E+00 0.  1.
         14    1    4    4    0    0  0.10509354892E+02  0.13308644902E+02  0.13196747856E+02  0.21487687715E+02  0.00000000000E+00 0. -1.
         -5    1    5    5    0  501 -0.72157020371E+02  0.65717830268E+02 -0.44352409086E+03  0.45415985950E+03  0.47000000000E+01 0.  1.
         13    1    6    6    0    0 -0.11181508174E+02  0.21195625359E+02 -0.59504941265E+02  0.64149190910E+02  0.00000000000E+00 0. -1.
        -14    1    6    6    0    0  0.15298458390E+02 -0.59071470204E+02 -0.30967974975E+03  0.31563432771E+03  0.00000000000E+00 0.  1.
</event>
<event>
12    1  0.2625820E-002  0.1733143E+03  0.7818608E-02  0.1174435E+00
          2   -1    0    0  502    0  0.00000000000E+00  0.00000000000E+00  0.29544086214E+04  0.29544086214E+04  0.00000000000E+00 0.  1.
         -2   -1    0    0    0  501 -0.00000000000E+00 -0.00000000000E+00 -0.10193540931E+02  0.10193540931E+02  0.00000000000E+00 0. -1.
          6    2    1    2  502    0 -0.16674548278E+01 -0.22540679769E+02  0.15547370122E+04  0.15644665857E+04  0.17273580444E+03 0.  0.
         24    2    3    3    0    0 -0.29725744486E+02  0.44788987185E+02  0.10646431891E+04  0.10689521086E+04  0.79396580526E+02 0.  0.
         -6    2    1    2    0  501  0.16674548278E+01  0.22540679769E+02  0.13894780682E+04  0.14001355766E+04  0.17093702932E+03 0.  0.
        -24    2    5    5    0    0 -0.42577836765E+02  0.37046668982E+02  0.12114639058E+04  0.12160725396E+04  0.89455567857E+02 0.  0.
          5    1    3    3  502    0  0.28058289659E+02 -0.67329666953E+02  0.49009382303E+03  0.49551447713E+03  0.47000000000E+01 0. -1.
        -13    1    4    4    0    0  0.22878153509E+02  0.33314726656E+02  0.55615177911E+03  0.55761822274E+03  0.00000000000E+00 0.  1.
         14    1    4    4    0    0 -0.52603897995E+02  0.11474260529E+02  0.50849141004E+03  0.51133388585E+03  0.00000000000E+00 0. -1.
         -5    1    5    5    0  501  0.44245291593E+02 -0.14505989213E+02  0.17801416242E+03  0.18406303696E+03  0.47000000000E+01 0.  1.
         11    1    6    6    0    0 -0.67429111451E+02  0.20855621754E+02  0.10067512015E+04  0.10092222866E+04  0.00000000000E+00 0. -1.
        -12    1    6    6    0    0  0.24851274685E+02  0.16191047227E+02  0.20471270432E+03  0.20685025302E+03  0.00000000000E+00 0.  1.
</event>
<event>
12    1  0.2625820E-002  0.1740749E+03  0.7818608E-02  0.1173664E+00
          2   -1    0    0  502    0  0.00000000000E+00  0.00000000000E+00  0.53313238330E+03  0.53313238330E+03  0.00000000000E+00 0.  1.
         -2   -1    0    0    0  501 -0.00000000000E+00 -0.00000000000E+00 -0.60578533512E+02  0.60578533512E+02  0.00000000000E+00 0. -1.
          6    2    1    2  502    0  0.10241137065E+02 -0.26926507723E+02  0.31013880703E+03  0.35568801326E+03  0.17174971745E+03 0.  0.
         24    2    3    3    0    0 -0.18700056731E+02  0.40029830140E+02  0.12033895607E+03  0.15229967214E+03  0.82229230591E+02 0.  0.
         -6    2    1    2    0  501 -0.10241137065E+02  0.26926507723E+02  0.16241504276E+03  0.23802290356E+03  0.17159935546E+03 0.  0.
        -24    2    5    5    0    0 -0.39327581603E+02  0.57437927692E+02  0.49029425168E+02  0.11696359461E+03  0.80192416852E+02 0.  0.
          5    1    3    3  502    0  0.28941193796E+02 -0.66956337862E+02  0.18979985096E+03  0.20338834112E+03  0.47000000000E+01 0. -1.
        -13    1    4    4    0    0 -0.25574986888E+02 -0.19003692488E+02  0.27617473830E+02  0.42165686799E+02  0.00000000000E+00 0.  1.
         14    1    4    4    0    0  0.68749301575E+01  0.59033522627E+02  0.92721482238E+02  0.11013398534E+03  0.00000000000E+00 0. -1.
         -5    1    5    5    0  501  0.29086444539E+02 -0.30511419969E+02  0.11338561759E+03  0.12105930894E+03  0.47000000000E+01 0.  1.
         11    1    6    6    0    0 -0.47597295083E+02 -0.55813001646E+00  0.21262278467E+02  0.52133468079E+02  0.00000000000E+00 0. -1.
        -12    1    6    6    0    0  0.82697134797E+01  0.57996057708E+02  0.27767146700E+02  0.64830126536E+02  0.00000000000E+00 0.  1.
</event>
<event>
12    1  0.2625820E-002  0.1722913E+03  0.7818608E-02  0.1175479E+00
          2   -1    0    0  502    0  0.00000000000E+00  0.00000000000E+00  0.43134429810E+03  0.43134429810E+03  0.00000000000E+00 0.  1.
         -2   -1    0    0    0  501 -0.00000000000E+00 -0.00000000000E+00 -0.10027155764E+04  0.10027155764E+04  0.00000000000E+00 0. -1.
          6    2    1    2  502    0  0.25503590453E+02 -0.26312926232E+01  0.40584728344E+03  0.44241196948E+03  0.17423827489E+03 0.  0.
         24    2    3    3    0    0  0.21083836945E+02 -0.12180576752E+02  0.80185233299E+02  0.11654607076E+03  0.80996421767E+02 0.  0.
         -6    2    1    2    0  501 -0.25503590453E+02  0.26312926232E+01 -0.97721856173E+03  0.99164790501E+03  0.16658959543E+03 0.  0.
        -24    2    5    5    0    0 -0.11831698737E+00 -0.18778739232E+02 -0.93038325113E+03  0.93404202083E+03  0.80429146846E+02 0.  0.
          5    1    3    3  502    0  0.44197535087E+01  0.95492841292E+01  0.32566205014E+03  0.32586589872E+03  0.47000000000E+01 0. -1.
        -11    1    4    4    0    0  0.94101176502E+01 -0.41498864025E+02  0.72502636003E+02  0.84067462535E+02  0.00000000000E+00 0.  1.
         12    1    4    4    0    0  0.11673719295E+02  0.29318287273E+02  0.76825972960E+01  0.32478608221E+02  0.00000000000E+00 0. -1.
         -5    1    5    5    0  501 -0.25385273466E+02  0.21410031855E+02 -0.46835310602E+02  0.57605884180E+02  0.47000000000E+01 0.  1.
         13    1    6    6    0    0  0.53685666539E+01  0.21669215208E+02 -0.92153289329E+02  0.94818801563E+02  0.00000000000E+00 0. -1.
        -14    1    6    6    0    0 -0.54868836413E+01 -0.40447954439E+02 -0.83822996180E+03  0.83922321927E+03  0.00000000000E+00 0.  1.
</event>
<event>
12    1  0.2625820E-002  0.1917700E+03  0.7818608E-02  0.1156875E+00
         -2   -1    0    0    0  501 -0.00000000000E+00  0.00000000000E+00  0.21512118076E+02  0.21512118076E+02  0.00000000000E+00 0.  1.
          2   -1    0    0  502    0  0.00000000000E+00 -0.00000000000E+00 -0.20590517110E+04  0.20590517110E+04  0.00000000000E+00 0. -1.
          6    2    1    2  502    0  0.27954570169E+02 -0.80041571304E+02 -0.59105079713E+03  0.62144448243E+03  0.17223265901E+03 0.  0.
         24    2    3    3    0    0  0.58714751229E+02 -0.12608476016E+02 -0.20118964042E+03  0.22457268627E+03  0.79682020096E+02 0.  0.
         -6    2    1    2    0  501 -0.27954570169E+02  0.80041571304E+02 -0.14464887958E+04  0.14591193466E+04  0.17178859176E+03 0.  0.
        -24    2    5    5    0    0 -0.84053677043E+02  0.63995975743E+02 -0.10498640689E+04  0.10581981139E+04  0.80051105116E+02 0.  0.
          5    1    3    3  502    0 -0.30760181061E+02 -0.67433095287E+02 -0.38986115671E+03  0.39687179616E+03  0.47000000000E+01 0. -1.
        -11    1    4    4    0    0 -0.11851953020E+02 -0.24715556780E+02 -0.43908302265E+02  0.51761631979E+02  0.00000000000E+00 0.  1.
         12    1    4    4    0    0  0.70566704249E+02  0.12107080763E+02 -0.15728133815E+03  0.17281105429E+03  0.00000000000E+00 0. -1.
         -5    1    5    5    0  501  0.56099106875E+02  0.16045595561E+02 -0.39662472688E+03  0.40092123279E+03  0.47000000000E+01 0.  1.
         11    1    6    6    0    0 -0.13936974528E+02  0.24031790997E+02 -0.63207768588E+03  0.63268789084E+03  0.00000000000E+00 0. -1.
        -12    1    6    6    0    0 -0.70116702515E+02  0.39964184745E+02 -0.41778638304E+03  0.42551022301E+03  0.00000000000E+00 0.  1.
</event>
<event>
12    1  0.2820784E-002  0.1789113E+03  0.7818608E-02  0.1168861E+00
         -2   -1    0    0    0  501 -0.00000000000E+00  0.00000000000E+00  0.19845378559E+03  0.19845378559E+03  0.00000000000E+00 0. -1.
          2   -1    0    0  502    0  0.00000000000E+00 -0.00000000000E+00 -0.22472420106E+03  0.22472420106E+03  0.00000000000E+00 0.  1.
          6    2    1    2  502    0 -0.37958325697E+02 -0.10227459572E+02  0.99339097256E+02  0.20346422967E+03  0.17315888973E+03 0.  0.
         24    2    3    3    0    0 -0.41478058432E+02 -0.59964200083E+02  0.10772682440E+03  0.15268455025E+03  0.79946035341E+02 0.  0.
         -6    2    1    2    0  501  0.37958325697E+02  0.10227459572E+02 -0.12560951273E+03  0.21971375698E+03  0.17592882055E+03 0.  0.
        -24    2    5    5    0    0  0.65797457840E+01  0.73279627822E+02 -0.83209421910E+02  0.13737270464E+03  0.80834739922E+02 0.  0.
          5    1    3    3  502    0  0.35197327352E+01  0.49736740512E+02 -0.83877271407E+01  0.50779679418E+02  0.47000000000E+01 0. -1.
        -13    1    4    4    0    0 -0.45521323126E+01 -0.87960877720E+01 -0.13070556647E+02  0.16399162166E+02  0.00000000000E+00 0.  1.
         14    1    4    4    0    0 -0.36925926119E+02 -0.51168112311E+02  0.12079738104E+03  0.13628538808E+03  0.00000000000E+00 0. -1.
         -5    1    5    5    0  501  0.31378579913E+02 -0.63052168250E+02 -0.42400090817E+02  0.82341052336E+02  0.47000000000E+01 0.  1.
         13    1    6    6    0    0 -0.30306003078E+02  0.21983552603E+02 -0.65100140144E+01  0.38001456420E+02  0.00000000000E+00 0. -1.
        -14    1    6    6    0    0  0.36885748862E+02  0.51296075219E+02 -0.76699407896E+02  0.99371248224E+02  0.00000000000E+00 0.  1.
</event>
<event>
12    1  0.2625820E-002  0.3020868E+03  0.7818608E-02  0.1084202E+00
          2   -1    0    0  502    0  0.00000000000E+00  0.00000000000E+00  0.77632173159E+03  0.77632173159E+03  0.00000000000E+00 0.  1.
         -2   -1    0    0    0  501 -0.00000000000E+00 -0.00000000000E+00 -0.11941643864E+03  0.11941643864E+03  0.00000000000E+00 0. -1.
          6    2    1    2  502    0 -0.14152158475E+03 -0.20397642228E+03  0.38408043651E+03  0.48843419270E+03  0.17150929739E+03 0.  0.
         24    2    3    3    0    0 -0.11919871778E+03 -0.61570397748E+02  0.20082536445E+03  0.25523406909E+03  0.82549105504E+02 0.  0.
         -6    2    1    2    0  501  0.14152158475E+03  0.20397642228E+03  0.27282485644E+03  0.40730397753E+03  0.17270896916E+03 0.  0.
        -24    2    5    5    0    0 -0.39789440481E+01  0.86449471957E+02  0.10717195643E+03  0.15741207848E+03  0.76179990867E+02 0.  0.
          5    1    3    3  502    0 -0.22322866963E+02 -0.14240602454E+03  0.18325507206E+03  0.23320012360E+03  0.47000000000E+01 0. -1.
        -13    1    4    4    0    0 -0.77705783763E+02 -0.75167148089E+02  0.10882918802E+03  0.15340169864E+03  0.00000000000E+00 0.  1.
         14    1    4    4    0    0 -0.41492934019E+02  0.13596750341E+02  0.91996176431E+02  0.10183237045E+03  0.00000000000E+00 0. -1.
         -5    1    5    5    0  501  0.14550052879E+03  0.11752695033E+03  0.16565290001E+03  0.24989189906E+03  0.47000000000E+01 0.  1.
         11    1    6    6    0    0  0.98926225266E+01 -0.12097974046E+02  0.11915232358E+02  0.19651913867E+02  0.00000000000E+00 0. -1.
        -12    1    6    6    0    0 -0.13871566575E+02  0.98547446004E+02  0.95256724067E+02  0.13776016461E+03  0.00000000000E+00 0.  1.
</event>
<event>
12    1  0.2625820E-002  0.1744276E+03  0.7818608E-02  0.1173308E+00
         -2   -1    0    0    0  501 -0.00000000000E+00  0.00000000000E+00  0.12572526102E+03  0.12572526102E+03  0.00000000000E+00 0. -1.
          2   -1    0    0  502    0  0.00000000000E+00 -0.00000000000E+00 -0.24662102691E+03  0.24662102691E+03  0.00000000000E+00 0.  1.
          6    2    1    2  502    0  0.16952604856E+02 -0.27062824257E+02 -0.85810114151E+02  0.19404996702E+03  0.17109128190E+03 0.  0.
         24    2    3    3    0    0 -0.36401743714E+02  0.18317304424E+02 -0.84443118420E+02  0.12383599927E+03  0.80895635727E+02 0.  0.
         -6    2    1    2    0  501 -0.16952604856E+02  0.27062824257E+02 -0.35085651739E+02  0.17829632091E+03  0.17186851900E+03 0.  0.
        -24    2    5    5    0    0 -0.33489685358E+02 -0.15309250419E+01  0.40426270700E+02  0.95741987524E+02  0.80052120868E+02 0.  0.
          5    1    3    3  502    0  0.53354348571E+02 -0.45380128681E+02 -0.13669957310E+01  0.70213967754E+02  0.47000000000E+01 0. -1.
        -13    1    4    4    0    0 -0.41127671454E+02 -0.15573455851E+02 -0.77217751564E+02  0.88862810235E+02  0.00000000000E+00 0.  1.
         14    1    4    4    0    0  0.47259277391E+01  0.33890760274E+02 -0.72253668560E+01  0.34973189034E+02  0.00000000000E+00 0. -1.
         -5    1    5    5    0  501  0.16537080501E+02  0.28593749299E+02 -0.75511922439E+02  0.82554333386E+02  0.47000000000E+01 0.  1.
         11    1    6    6    0    0 -0.59194875079E+02  0.70821653594E+01  0.26105870551E+02  0.65082307726E+02  0.00000000000E+00 0. -1.
        -12    1    6    6    0    0  0.25705189721E+02 -0.86130904013E+01  0.14320400149E+02  0.30659679798E+02  0.00000000000E+00 0.  1.
</event>
<event>
12    1  0.2625820E-002  0.2186196E+03  0.7818608E-02  0.1134916E+00
         -1   -1    0    0    0  501 -0.00000000000E+00  0.00000000000E+00  0.24583644815E+03  0.24583644815E+03  0.00000000000E+00 0. -1.
          1   -1    0    0  502    0  0.00000000000E+00 -0.00000000000E+00 -0.29279451762E+03  0.29279451762E+03  0.00000000000E+00 0.  1.
          6    2    1    2  502    0 -0.10492589267E+03  0.83183978424E+02  0.13251843605E+03  0.25689096207E+03  0.17465054618E+03 0.  0.
         24    2    3    3    0    0 -0.32541383074E+02 -0.24472005695E+02  0.61584934297E+02  0.10896199325E+03  0.80138574764E+02 0.  0.
         -6    2    1    2    0  501  0.10492589267E+03 -0.83183978424E+02 -0.17947650552E+03  0.28174000370E+03  0.17098712359E+03 0.  0.
        -24    2    5    5    0    0  0.71533855714E+02  0.13748250397E+02 -0.12662372825E+03  0.16630001418E+03  0.79473387104E+02 0.  0.
          5    1    3    3  502    0 -0.72384509598E+02  0.10765598412E+03  0.70933501753E+02  0.14792896882E+03  0.47000000000E+01 0. -1.
        -13    1    4    4    0    0 -0.51810392017E+02 -0.39130336756E+02  0.38357218123E+02  0.75410716465E+02  0.00000000000E+00 0.  1.
         14    1    4    4    0    0  0.19269008943E+02  0.14658331061E+02  0.23227716174E+02  0.33551276783E+02  0.00000000000E+00 0. -1.
         -5    1    5    5    0  501  0.33392036958E+02 -0.96932228821E+02 -0.52852777267E+02  0.11543998952E+03  0.47000000000E+01 0.  1.
         13    1    6    6    0    0 -0.13179930121E+02  0.14259972286E+02 -0.43393076540E+02  0.47539630407E+02  0.00000000000E+00 0. -1.
        -14    1    6    6    0    0  0.84713785835E+02 -0.51172188988E+00 -0.83230651712E+02  0.11876038377E+03  0.00000000000E+00 0.  1.
</event>
<event>
12    1  0.2625820E-002  0.2036188E+03  0.7818608E-02  0.1146721E+00
          2   -1    0    0  502    0  0.00000000000E+00  0.00000000000E+00  0.39978842604E+03  0.39978842604E+03  0.00000000000E+00 0.  1.
         -2   -1    0    0    0  501 -0.00000000000E+00 -0.00000000000E+00 -0.14059125411E+03  0.14059125411E+03  0.00000000000E+00 0. -1.
          6    2    1    2  502    0  0.63676231309E+02  0.88961620510E+02  0.26827892537E+03  0.33717398180E+03  0.17246414076E+03 0.  0.
         24    2    3    3    0    0  0.63489842020E+02  0.11149213378E+03  0.27452489128E+03  0.31332527409E+03  0.79670292579E+02 0.  0.
         -6    2    1    2    0  501 -0.63676231309E+02 -0.88961620510E+02 -0.90817534459E+01  0.20320569834E+03  0.17100071706E+03 0.  0.
        -24    2    5    5    0    0 -0.38255625417E+02 -0.90101595066E+02 -0.64889831995E+02  0.14169034760E+03  0.79269628465E+02 0.  0.
          5    1    3    3  502    0  0.18638928964E+00 -0.22530513273E+02 -0.62459659045E+01  0.23848707709E+02  0.47000000000E+01 0. -1.
        -13    1    4    4    0    0  0.93503880854E+01  0.21054410315E+01  0.99423192190E+02  0.99884101761E+02  0.00000000000E+00 0.  1.
         14    1    4    4    0    0  0.54139453934E+02  0.10938669275E+03  0.17510169909E+03  0.21344117233E+03  0.00000000000E+00 0. -1.
         -5    1    5    5    0  501 -0.25420605892E+02  0.11399745556E+01  0.55808078549E+02  0.61515350745E+02  0.47000000000E+01 0.  1.
         11    1    6    6    0    0 -0.36264274816E+02 -0.70729163270E+02 -0.60528560300E+01  0.79714172083E+02  0.00000000000E+00 0. -1.
        -12    1    6    6    0    0 -0.19913506006E+01 -0.19372431796E+02 -0.58836975965E+02  0.61976175516E+02  0.00000000000E+00 0.  1.
</event>
<event>
12    1  0.2625820E-002  0.1782661E+03  0.7818608E-02  0.1169492E+00
         -2   -1    0    0    0  501 -0.00000000000E+00  0.00000000000E+00  0.14853026006E+03  0.14853026006E+03  0.00000000000E+00 0.  1.
          2   -1    0    0  502    0  0.00000000000E+00 -0.00000000000E+00 -0.21530840721E+03  0.21530840721E+03  0.00000000000E+00 0. -1.
          6    2    1    2  502    0 -0.31159763549E+02 -0.36715332200E+02 -0.47759950569E+02  0.18429816966E+03  0.17136468709E+03 0.  0.
         24    2    3    3    0    0  0.12091208507E+02 -0.53367600466E+02  0.22892946498E+02  0.99670358124E+02  0.80098659082E+02 0.  0.
         -6    2    1    2    0  501  0.31159763549E+02  0.36715332200E+02 -0.19018196577E+02  0.17954049760E+03  0.17191321065E+03 0.  0.
        -24    2    5    5    0    0  0.71548845631E+02 -0.52344115449E+01 -0.46796186677E+02  0.11485073268E+03  0.76512556711E+02 0.  0.
          5    1    3    3  502    0 -0.43250972055E+02  0.16652268266E+02 -0.70652897067E+02  0.84627811540E+02  0.47000000000E+01 0. -1.
        -11    1    4    4    0    0 -0.16543539776E+02 -0.41938133228E+02 -0.17925695108E+02  0.48516247506E+02  0.00000000000E+00 0.  1.
         12    1    4    4    0    0  0.28634748283E+02 -0.11429467238E+02  0.40818641606E+02  0.51154110618E+02  0.00000000000E+00 0. -1.
         -5    1    5    5    0  501 -0.40389082083E+02  0.41949743745E+02  0.27777990100E+02  0.64689764923E+02  0.47000000000E+01 0.  1.
         13    1    6    6    0    0  0.78578709630E+02  0.17723845626E+02 -0.32188783978E+02  0.86745986218E+02  0.00000000000E+00 0. -1.
        -14    1    6    6    0    0 -0.70298639987E+01 -0.22958257171E+02 -0.14607402699E+02  0.28104746463E+02  0.00000000000E+00 0.  1.
</event>
<event>
12    1  0.2625820E-002  0.1999601E+03  0.7818608E-02  0.1149773E+00
         -2   -1    0    0    0  501 -0.00000000000E+00  0.00000000000E+00  0.12527799517E+02  0.12527799517E+02  0.00000000000E+00 0. -1.
          2   -1    0    0  502    0  0.00000000000E+00 -0.00000000000E+00 -0.31940724604E+04  0.31940724604E+04  0.00000000000E+00 0.  1.
          6    2    1    2  502    0 -0.68836118053E+02 -0.60917167018E+02 -0.16436541977E+04  0.16564420572E+04  0.18371677834E+03 0.  0.
         24    2    3    3    0    0 -0.34224248391E+02 -0.67692843275E+01 -0.14441079581E+04  0.14467499818E+04  0.80128601578E+02 0.  0.
         -6    2    1    2    0  501  0.68836118053E+02  0.60917167018E+02 -0.15378904632E+04  0.15501582028E+04  0.17156358739E+03 0.  0.
        -24    2    5    5    0    0  0.31970086017E+02 -0.34353242590E+02 -0.78002841238E+03  0.78542783637E+03  0.79059030788E+02 0.  0.
          5    1    3    3  502    0 -0.34611869662E+02 -0.54147882691E+02 -0.19954623961E+03  0.20969207534E+03  0.47000000000E+01 0. -1.
        -13    1    4    4    0    0 -0.53669811929E+02 -0.58393948779E+01 -0.60169088200E+03  0.60410799095E+03  0.00000000000E+00 0.  1.
         14    1    4    4    0    0  0.19445563538E+02 -0.92988944963E+00 -0.84241707614E+03  0.84264199089E+03  0.00000000000E+00 0. -1.
         -5    1    5    5    0  501  0.36866032036E+02  0.95270409609E+02 -0.75786205080E+03  0.76473036641E+03  0.47000000000E+01 0.  1.
         13    1    6    6    0    0  0.50170512771E+02 -0.53920393936E+01 -0.30283631031E+03  0.30701137648E+03  0.00000000000E+00 0. -1.
        -14    1    6    6    0    0 -0.18200426754E+02 -0.28961203197E+02 -0.47719210206E+03  0.47841645989E+03  0.00000000000E+00 0.  1.
</event>
<event>
12    1  0.2625820E-002  0.1956496E+03  0.7818608E-02  0.1153462E+00
         -2   -1    0    0    0  501 -0.00000000000E+00  0.00000000000E+00  0.14004696516E+03  0.14004696516E+03  0.00000000000E+00 0. -1.
          2   -1    0    0  502    0  0.00000000000E+00 -0.00000000000E+00 -0.41894408522E+03  0.41894408522E+03  0.00000000000E+00 0.  1.
          6    2    1    2  502    0  0.59887311538E+02 -0.77581002134E+02  0.26097809157E+02  0.19572079960E+03  0.16739245437E+03 0.  0.
         24    2    3    3    0    0  0.88852516846E+02 -0.90165747290E+02 -0.51849645978E+01  0.15102112552E+03  0.82194067685E+02 0.  0.
         -6    2    1    2    0  501 -0.59887311538E+02  0.77581002134E+02 -0.30499492923E+03  0.36327025078E+03  0.17128358435E+03 0.  0.
        -24    2    5    5    0    0 -0.25224839986E+02  0.86541106974E+02 -0.99294401334E+02  0.15442445219E+03  0.76562899293E+02 0.  0.
          5    1    3    3  502    0 -0.28965205307E+02  0.12584745155E+02  0.31282773755E+02  0.44699674081E+02  0.47000000000E+01 0. -1.
        -13    1    4    4    0    0  0.20857978169E+02  0.14940334204E+02  0.11115962909E+01  0.25680819413E+02  0.00000000000E+00 0.  1.
         14    1    4    4    0    0  0.67994538677E+02 -0.10510608149E+03 -0.62965608888E+01  0.12534030611E+03  0.00000000000E+00 0. -1.
         -5    1    5    5    0  501 -0.34662471553E+02 -0.89601048394E+01 -0.20570052789E+03  0.20884579859E+03  0.47000000000E+01 0.  1.
         11    1    6    6    0    0 -0.19298324497E+02 -0.94749892698E+01 -0.12564617492E+02  0.24901212075E+02  0.00000000000E+00 0. -1.
        -12    1    6    6    0    0 -0.59265154881E+01  0.96016096244E+02 -0.86729783842E+02  0.12952324011E+03  0.00000000000E+00 0.  1.
</event>
<event>
12    1  0.2625820E-002  0.1898399E+03  0.7818608E-02  0.1158606E+00
          2   -1    0    0  502    0  0.00000000000E+00  0.00000000000E+00  0.12298856941E+04  0.12298856941E+04  0.00000000000E+00 0. -1.
         -2   -1    0    0    0  501 -0.00000000000E+00 -0.00000000000E+00 -0.32104142148E+02  0.32104142148E+02  0.00000000000E+00 0.  1.
          6    2    1    2  502    0 -0.28243130488E+02  0.75848645666E+02  0.78552643528E+03  0.80816045757E+03  0.17181633560E+03 0.  0.
         24    2    3    3    0    0 -0.65421482773E+02  0.93864535757E+02  0.48477957310E+03  0.50455286990E+03  0.80447762880E+02 0.  0.
         -6    2    1    2    0  501  0.28243130488E+02 -0.75848645666E+02  0.41225511668E+03  0.45382937869E+03  0.17162788895E+03 0.  0.
        -24    2    5    5    0    0 -0.19758355524E+02 -0.12829217064E+01  0.29745270705E+03  0.30868850537E+03  0.80115179086E+02 0.  0.
          5    1    3    3  502    0  0.37178352285E+02 -0.18015890091E+02  0.30074686219E+03  0.30360758767E+03  0.47000000000E+01 0. -1.
        -13    1    4    4    0    0 -0.27073699850E+02  0.74237990835E+02  0.17784696595E+03  0.19461194158E+03  0.00000000000E+00 0.  1.
         14    1    4    4    0    0 -0.38347782923E+02  0.19626544923E+02  0.30693260714E+03  0.30994092832E+03  0.00000000000E+00 0. -1.
         -5    1    5    5    0  501  0.48001486012E+02 -0.74565723960E+02  0.11480240963E+03  0.14514087331E+03  0.47000000000E+01 0.  1.
         11    1    6    6    0    0 -0.39799855978E+02  0.25819940403E+02  0.20074154556E+03  0.20627134064E+03  0.00000000000E+00 0. -1.
        -12    1    6    6    0    0  0.20041500453E+02 -0.27102862109E+02  0.96711161489E+02  0.10241716473E+03  0.00000000000E+00 0.  1.
</event>
<event>
12    1  0.2625820E-002  0.2001702E+03  0.7818608E-02  0.1149595E+00
         -1   -1    0    0    0  501 -0.00000000000E+00  0.00000000000E+00  0.59680009012E+02  0.59680009012E+02  0.00000000000E+00 0. -1.
          1   -1    0    0  502    0  0.00000000000E+00 -0.00000000000E+00 -0.67149127393E+03  0.67149127393E+03  0.00000000000E+00 0.  1.
          6    2    1    2  502    0  0.56285796319E+02 -0.89636297318E+02 -0.31176602393E+03  0.37163159231E+03  0.17236365646E+03 0.  0.
         24    2    3    3    0    0  0.23577443301E+01 -0.10117418655E+03 -0.13588203331E+03  0.18724442943E+03  0.79716838848E+02 0.  0.
         -6    2    1    2    0  501 -0.56285796319E+02  0.89636297318E+02 -0.30004524099E+03  0.35953969063E+03  0.16744815864E+03 0.  0.
        -24    2    5    5    0    0 -0.77580014803E+02  0.11640419552E+03 -0.25485382750E+03  0.30266862621E+03  0.84197556198E+02 0.  0.
          5    1    3    3  502    0  0.53928051989E+02  0.11537889230E+02 -0.17588399062E+03  0.18438716288E+03  0.47000000000E+01 0. -1.
        -11    1    4    4    0    0 -0.80836041709E+01 -0.54504089035E+02 -0.12722373285E+03  0.13864313390E+03  0.00000000000E+00 0.  1.
         12    1    4    4    0    0  0.10441348501E+02 -0.46670097513E+02 -0.86583004566E+01  0.48601295530E+02  0.00000000000E+00 0. -1.
         -5    1    5    5    0  501  0.21294218484E+02 -0.26767898197E+02 -0.45191413490E+02  0.56871064418E+02  0.47000000000E+01 0.  1.
         11    1    6    6    0    0 -0.46817077363E+02  0.90777046770E+02 -0.10082150521E+03  0.14351754898E+03  0.00000000000E+00 0. -1.
        -12    1    6    6    0    0 -0.30762937441E+02  0.25627148746E+02 -0.15403232229E+03  0.15915107723E+03  0.00000000000E+00 0.  1.
</event>
<event>
12    1  0.2625820E-002  0.1797938E+03  0.7818608E-02  0.1168003E+00
          2   -1    0    0  502    0  0.00000000000E+00  0.00000000000E+00  0.31025304474E+03  0.31025304474E+03  0.00000000000E+00 0.  1.
         -2   -1    0    0    0  501 -0.00000000000E+00 -0.00000000000E+00 -0.11878647193E+03  0.11878647193E+03  0.00000000000E+00 0. -1.
          6    2    1    2  502    0 -0.31803729416E+02 -0.18437549404E+02  0.16927487008E+03  0.24455856542E+03  0.17263687279E+03 0.  0.
         24    2    3    3    0    0 -0.51788168435E+02 -0.27894590416E+02  0.18964125143E+03  0.21413336342E+03  0.80182108511E+02 0.  0.
         -6    2    1    2    0  501  0.31803729416E+02  0.18437549404E+02  0.22191702730E+02  0.18448095126E+03  0.17941384917E+03 0.  0.
        -24    2    5    5    0    0  0.68043702775E+02 -0.35515156040E+01  0.65900255602E+02  0.12341228299E+03  0.79026509191E+02 0.  0.
          5    1    3    3  502    0  0.19984439019E+02  0.94570410117E+01 -0.20366381342E+02  0.30425201997E+02  0.47000000000E+01 0. -1.
        -13    1    4    4    0    0 -0.30164347387E+02  0.26883082376E+02  0.71476497250E+02  0.82106501755E+02  0.00000000000E+00 0.  1.
         14    1    4    4    0    0 -0.21623821047E+02 -0.54777672791E+02  0.11816475417E+03  0.13202686167E+03  0.00000000000E+00 0. -1.
         -5    1    5    5    0  501 -0.36239973359E+02  0.21989065008E+02 -0.43708552873E+02  0.61068668261E+02  0.47000000000E+01 0.  1.
         13    1    6    6    0    0  0.21924474317E+01  0.26585952801E+02  0.18640642548E+01  0.26741249926E+02  0.00000000000E+00 0. -1.
        -14    1    6    6    0    0  0.65851255343E+02 -0.30137468405E+02  0.64036191347E+02  0.96671033068E+02  0.00000000000E+00 0.  1.
</event>
<event>
12    1  0.2625820E-002  0.2225120E+03  0.7818608E-02  0.1132024E+00
          2   -1    0    0  502    0  0.00000000000E+00  0.00000000000E+00  0.21395035608E+04  0.21395035608E+04  0.00000000000E+00 0.  1.
         -2   -1    0    0    0  501 -0.00000000000E+00 -0.00000000000E+00 -0.35278632389E+02  0.35278632389E+02  0.00000000000E+00 0. -1.
          6    2    1    2  502    0 -0.66771832911E+02 -0.12228171367E+03  0.41811783412E+03  0.47421492960E+03  0.17505993567E+03 0.  0.
         24    2    3    3    0    0 -0.11221946549E+03 -0.69403872608E+02  0.27612028275E+03  0.31595265369E+03  0.78572023383E+02 0.  0.
         -6    2    1    2    0  501  0.66771832911E+02  0.12228171367E+03  0.16861070942E+04  0.17005672635E+04  0.17193193248E+03 0.  0.
        -24    2    5    5    0    0  0.74361024313E+02  0.11023176704E+03  0.83320184452E+03  0.84753018812E+03  0.80009384838E+02 0.  0.
          5    1    3    3  502    0  0.45447632577E+02 -0.52877841058E+02  0.14199755137E+03  0.15826227591E+03  0.47000000000E+01 0. -1.
        -11    1    4    4    0    0  0.26380057733E+01  0.11836333685E+02  0.14479914576E+02  0.18887186019E+02  0.00000000000E+00 0.  1.
         12    1    4    4    0    0 -0.11485747126E+03 -0.81240206293E+02  0.26164036818E+03  0.29706546767E+03  0.00000000000E+00 0. -1.
         -5    1    5    5    0  501 -0.75891914022E+01  0.12049946631E+02  0.85290524973E+03  0.85303707542E+03  0.47000000000E+01 0.  1.
         11    1    6    6    0    0  0.20445909902E+02  0.83476707351E+02  0.62234102793E+03  0.62824736445E+03  0.00000000000E+00 0. -1.
        -12    1    6    6    0    0  0.53915114411E+02  0.26755059684E+02  0.21086081659E+03  0.21928282367E+03  0.00000000000E+00 0.  1.
</event>
<event>
12    1  0.2625820E-002  0.1772617E+03  0.7818608E-02  0.1170480E+00
         -2   -1    0    0    0  501 -0.00000000000E+00  0.00000000000E+00  0.16502397393E+03  0.16502397393E+03  0.00000000000E+00 0.  1.
          2   -1    0    0  502    0  0.00000000000E+00 -0.00000000000E+00 -0.45997060668E+03  0.45997060668E+03  0.00000000000E+00 0. -1.
          6    2    1    2  502    0  0.24974782615E+02 -0.22590292827E+02  0.90966392491E+02  0.20123657580E+03  0.17631566516E+03 0.  0.
         24    2    3    3    0    0 -0.41902587390E+02 -0.40765669408E+02  0.86858420678E+02  0.13165286819E+03  0.79814947390E+02 0.  0.
         -6    2    1    2    0  501 -0.24974782615E+02  0.22590292827E+02 -0.38591302524E+03  0.42375800481E+03  0.17177870210E+03 0.  0.
        -24    2    5    5    0    0 -0.47770880109E+02  0.16885544860E+02 -0.38838368829E+03  0.39966650452E+03  0.79525133707E+02 0.  0.
          5    1    3    3  502    0  0.66877370005E+02  0.18175376582E+02  0.41079718131E+01  0.69583707612E+02  0.47000000000E+01 0. -1.
        -11    1    4    4    0    0 -0.21837627653E+02 -0.61124431547E+02  0.38469858928E+02  0.75452025549E+02  0.00000000000E+00 0.  1.
         12    1    4    4    0    0 -0.20064959737E+02  0.20358762139E+02  0.48388561750E+02  0.56200842639E+02  0.00000000000E+00 0. -1.
         -5    1    5    5    0  501  0.22796097495E+02  0.57047479667E+01  0.24706630529E+01  0.24091500291E+02  0.47000000000E+01 0.  1.
         11    1    6    6    0    0 -0.68700867476E+02  0.23067499257E+02 -0.29896641994E+03  0.30762450970E+03  0.00000000000E+00 0. -1.
        -12    1    6    6    0    0  0.20929987367E+02 -0.61819543973E+01 -0.89417268349E+02  0.92041994820E+02  0.00000000000E+00 0.  1.
</event>
<event>
12    1  0.2625820E-002  0.2200136E+03  0.7818608E-02  0.1133873E+00
          1   -1    0    0  502    0  0.00000000000E+00  0.00000000000E+00  0.25270767645E+03  0.25270767645E+03  0.00000000000E+00 0.  1.
         -1   -1    0    0    0  501 -0.00000000000E+00 -0.00000000000E+00 -0.22297922793E+03  0.22297922793E+03  0.00000000000E+00 0. -1.
          6    2    1    2  502    0  0.13175646271E+03  0.38701330038E+02  0.10419721645E+03  0.24406951175E+03  0.17278688676E+03 0.  0.
         24    2    3    3    0    0 -0.47008426126E+01  0.16027792805E+02  0.31869269685E+02  0.87902590318E+02  0.80201165645E+02 0.  0.
         -6    2    1    2    0  501 -0.13175646271E+03 -0.38701330038E+02 -0.74468767926E+02  0.23161739263E+03  0.17100719506E+03 0.  0.
        -24    2    5    5    0    0 -0.13124753959E+03  0.22289019089E+02 -0.35598442055E+02  0.15913929992E+03  0.79594916182E+02 0.  0.
          5    1    3    3  502    0  0.13645730532E+03  0.22673537233E+02  0.72327946763E+02  0.15616692143E+03  0.47000000000E+01 0. -1.
        -11    1    4    4    0    0  0.31219038868E+02  0.10791617318E+02  0.38790734952E+02  0.50949077619E+02  0.00000000000E+00 0.  1.
         12    1    4    4    0    0 -0.35919881481E+02  0.52361754864E+01 -0.69214652664E+01  0.36953512698E+02  0.00000000000E+00 0. -1.
         -5    1    5    5    0  501 -0.50892311454E+00 -0.60990349127E+02 -0.38870325871E+02  0.72478092709E+02  0.47000000000E+01 0.  1.
         11    1    6    6    0    0 -0.26651973372E+02  0.25483024390E+02 -0.39998986474E+02  0.54402491999E+02  0.00000000000E+00 0. -1.
        -12    1    6    6    0    0 -0.10459556622E+03 -0.31940053011E+01  0.44005444198E+01  0.10473680792E+03  0.00000000000E+00 0.  1.
</event>
<event>
12    1  0.2625820E-002  0.2090516E+03  0.7818608E-02  0.1142319E+00
         -2   -1    0    0    0  501 -0.00000000000E+00  0.00000000000E+00  0.99320124592E+02  0.99320124592E+02  0.00000000000E+00 0. -1.
          2   -1    0    0  502    0  0.00000000000E+00 -0.00000000000E+00 -0.57829300251E+03  0.57829300251E+03  0.00000000000E+00 0.  1.
          6    2    1    2  502    0 -0.69976993084E+01 -0.11999362237E+03 -0.72895043110E+02  0.22039463598E+03  0.16974295583E+03 0.  0.
         24    2    3    3    0    0  0.29336236392E+02 -0.12981457812E+03 -0.90301436520E+02  0.17866121308E+03  0.77801286385E+02 0.  0.
         -6    2    1    2    0  501  0.69976993084E+01  0.11999362237E+03 -0.40607783480E+03  0.45721849112E+03  0.17234298215E+03 0.  0.
        -24    2    5    5    0    0 -0.16688058706E+02  0.14533829982E+03 -0.37618854938E+03  0.41118777103E+03  0.78459197469E+02 0.  0.
          5    1    3    3  502    0 -0.36333935700E+02  0.98209557559E+01  0.17406393411E+02  0.41733422900E+02  0.47000000000E+01 0. -1.
        -11    1    4    4    0    0  0.31125899420E+02 -0.89945774325E+02 -0.99513797299E+02  0.13770279513E+03  0.00000000000E+00 0.  1.
         12    1    4    4    0    0 -0.17896630279E+01 -0.39868803796E+02  0.92123607786E+01  0.40958417951E+02  0.00000000000E+00 0. -1.
         -5    1    5    5    0  501  0.23685758015E+02 -0.25344677455E+02 -0.29889285429E+02  0.46030720084E+02  0.47000000000E+01 0.  1.
         13    1    6    6    0    0  0.26082286392E+02  0.38209350727E+02 -0.69171991073E+02  0.83216611895E+02  0.00000000000E+00 0. -1.
        -14    1    6    6    0    0 -0.42770345098E+02  0.10712894909E+03 -0.30701655830E+03  0.32797115914E+03  0.00000000000E+00 0.  1.
</event>
<event>
12    1  0.2625820E-002  0.1909382E+03  0.7818608E-02  0.1157618E+00
          2   -1    0    0  502    0  0.00000000000E+00  0.00000000000E+00  0.27644899518E+03  0.27644899518E+03  0.00000000000E+00 0.  1.
         -2   -1    0    0    0  501 -0.00000000000E+00 -0.00000000000E+00 -0.40783432913E+03  0.40783432913E+03  0.00000000000E+00 0. -1.
          6    2    1    2  502    0 -0.47062195995E+02  0.68572911498E+02  0.21563122016E+03  0.28868899898E+03  0.17299543503E+03 0.  0.
         24    2    3    3    0    0  0.23810883685E+02 -0.52866738144E+01  0.63304920486E+02  0.10510353295E+03  0.80276600443E+02 0.  0.
         -6    2    1    2    0  501  0.47062195995E+02 -0.68572911498E+02 -0.34701655410E+03  0.39559432534E+03  0.17075504952E+03 0.  0.
        -24    2    5    5    0    0  0.55648284663E+02 -0.50982457620E+01 -0.96400824421E+02  0.13688002718E+03  0.79500309404E+02 0.  0.
          5    1    3    3  502    0 -0.70873079680E+02  0.73859585312E+02  0.15232629967E+03  0.18358546603E+03  0.47000000000E+01 0. -1.
        -13    1    4    4    0    0  0.14299075231E+02 -0.56119270548E+01  0.82372581086E+02  0.83792597481E+02  0.00000000000E+00 0.  1.
         14    1    4    4    0    0  0.95118084540E+01  0.32525324038E+00 -0.19067660601E+02  0.21310935468E+02  0.00000000000E+00 0. -1.
         -5    1    5    5    0  501 -0.85860886679E+01 -0.63474665736E+02 -0.25061572968E+03  0.25871429816E+03  0.47000000000E+01 0.  1.
         13    1    6    6    0    0 -0.10069130840E+02 -0.12748306790E+02 -0.58324245867E+02  0.60544400053E+02  0.00000000000E+00 0. -1.
        -14    1    6    6    0    0  0.65717415503E+02  0.76500610280E+01 -0.38076578555E+02  0.76335627125E+02  0.00000000000E+00 0.  1.
</event>
<event>
12    1  0.2625820E-002  0.2289094E+03  0.7818608E-02  0.1127410E+00
         -2   -1    0    0    0  501 -0.00000000000E+00  0.00000000000E+00  0.48130277705E+02  0.48130277705E+02  0.00000000000E+00 0. -1.
          2   -1    0    0  502    0  0.00000000000E+00 -0.00000000000E+00 -0.11535252887E+04  0.11535252887E+04  0.00000000000E+00 0.  1.
          6    2    1    2  502    0  0.71693002708E+02 -0.13105653327E+03 -0.41217974466E+03  0.47188340491E+03  0.17454542206E+03 0.  0.
         24    2    3    3    0    0  0.15302123694E+01 -0.75858903895E+02 -0.34144684843E+03  0.35788854517E+03  0.75771667591E+02 0.  0.
         -6    2    1    2    0  501 -0.71693002708E+02  0.13105653327E+03 -0.69321526630E+03  0.72977216147E+03  0.17234935645E+03 0.  0.
        -24    2    5    5    0    0 -0.10858597933E+03  0.65644592320E+02 -0.39782447735E+03  0.42494824190E+03  0.78845203465E+02 0.  0.
          5    1    3    3  502    0  0.70162790339E+02 -0.55197629380E+02 -0.70732896235E+02  0.11399485974E+03  0.47000000000E+01 0. -1.
        -13    1    4    4    0    0  0.29614653564E+02 -0.72741617431E+02 -0.26466109181E+03  0.27606858592E+03  0.00000000000E+00 0.  1.
         14    1    4    4    0    0 -0.28084441194E+02 -0.31172864641E+01 -0.76785756621E+02  0.81819959252E+02  0.00000000000E+00 0. -1.
         -5    1    5    5    0  501  0.36892976617E+02  0.65411940955E+02 -0.29539078895E+03  0.30482391957E+03  0.47000000000E+01 0.  1.
         13    1    6    6    0    0 -0.17334368594E+02 -0.61812798026E+01 -0.15159463889E+03  0.15270763928E+03  0.00000000000E+00 0. -1.
        -14    1    6    6    0    0 -0.91251610731E+02  0.71825872122E+02 -0.24622983846E+03  0.27224060262E+03  0.00000000000E+00 0.  1.
</event>
<event>
12    1  0.2625820E-002  0.2222249E+03  0.7818608E-02  0.1132235E+00
         -1   -1    0    0    0  501 -0.00000000000E+00  0.00000000000E+00  0.29876441094E+03  0.29876441094E+03  0.00000000000E+00 0.  1.
          1   -1    0    0  502    0  0.00000000000E+00 -0.00000000000E+00 -0.16682902275E+03  0.16682902275E+03  0.00000000000E+00 0. -1.
          6    2    1    2  502    0 -0.13920930338E+03 -0.15846279790E+02  0.87949381830E+02  0.23798534369E+03  0.17108943661E+03 0.  0.
         24    2    3    3    0    0 -0.28367133811E+02  0.38858788030E+02  0.13492280427E+02  0.93608818770E+02  0.79157246242E+02 0.  0.
         -6    2    1    2    0  501  0.13920930338E+03  0.15846279790E+02  0.43986006356E+02  0.22760809000E+03  0.17389749609E+03 0.  0.
        -24    2    5    5    0    0  0.49967910358E+02  0.24965046323E+02  0.83991474943E+02  0.12927342852E+03  0.80851752327E+02 0.  0.
          5    1    3    3  502    0 -0.11084216957E+03 -0.54705067821E+02  0.74457101403E+02  0.14437652492E+03  0.47000000000E+01 0. -1.
        -13    1    4    4    0    0  0.18206115038E+01 -0.20786278037E+02  0.16635466601E+02  0.26685627778E+02  0.00000000000E+00 0.  1.
         14    1    4    4    0    0 -0.30187745314E+02  0.59645066067E+02 -0.31431861736E+01  0.66923190993E+02  0.00000000000E+00 0. -1.
         -5    1    5    5    0  501  0.89241393020E+02 -0.91187665329E+01 -0.40005468587E+02  0.98334661478E+02  0.47000000000E+01 0.  1.
         13    1    6    6    0    0 -0.16877206049E+02  0.17431449149E+02  0.37263574515E+01  0.24547530290E+02  0.00000000000E+00 0. -1.
        -14    1    6    6    0    0  0.66845116407E+02  0.75335971738E+01  0.80265117492E+02  0.10472589823E+03  0.00000000000E+00 0.  1.
</event>
<event>
12    1  0.2625820E-002  0.2213075E+03  0.7818608E-02  0.1132912E+00
          2   -1    0    0  502    0  0.00000000000E+00  0.00000000000E+00  0.12665393719E+03  0.12665393719E+03  0.00000000000E+00 0.  1.
         -2   -1    0    0    0  501 -0.00000000000E+00 -0.00000000000E+00 -0.47776041573E+03  0.47776041573E+03  0.00000000000E+00 0. -1.
          6    2    1    2  502    0  0.86054765764E+02  0.11144728928E+03 -0.30823805860E+03  0.38014818700E+03  0.17226729901E+03 0.  0.
         24    2    3    3    0    0  0.35473298026E+02  0.13148663486E+03 -0.23521889261E+03  0.28896732907E+03  0.98117785409E+02 0.  0.
         -6    2    1    2    0  501 -0.86054765764E+02 -0.11144728928E+03 -0.42868419941E+02  0.22426616593E+03  0.16920901498E+03 0.  0.
        -24    2    5    5    0    0 -0.55488162959E+02 -0.14206623766E+03 -0.16559760198E+02  0.17341272175E+03  0.80845496453E+02 0.  0.
          5    1    3    3  502    0  0.50581467739E+02 -0.20039345571E+02 -0.73019165995E+02  0.91180857926E+02  0.47000000000E+01 0. -1.
        -13    1    4    4    0    0 -0.12743365147E+02  0.19069957173E+02  0.99877758658E+00  0.22957660563E+02  0.00000000000E+00 0.  1.
         14    1    4    4    0    0  0.48216663173E+02  0.11241667768E+03 -0.23621767019E+03  0.26600966851E+03  0.00000000000E+00 0. -1.
         -5    1    5    5    0  501 -0.30566602805E+02  0.30618948377E+02 -0.26308659743E+02  0.50853444172E+02  0.47000000000E+01 0.  1.
         11    1    6    6    0    0  0.14094838316E+02 -0.15786625152E+02  0.14844879071E+02  0.25850579017E+02  0.00000000000E+00 0. -1.
        -12    1    6    6    0    0 -0.69583001275E+02 -0.12627961251E+03 -0.31404639270E+02  0.14756214274E+03  0.00000000000E+00 0.  1.
</event>
<event>
12    1  0.2625820E-002  0.2011940E+03  0.7818608E-02  0.1148735E+00
         -1   -1    0    0    0  501 -0.00000000000E+00  0.00000000000E+00  0.29712599943E+02  0.29712599943E+02  0.00000000000E+00 0.  1.
          1   -1    0    0  502    0  0.00000000000E+00 -0.00000000000E+00 -0.14447737072E+04  0.14447737072E+04  0.00000000000E+00 0. -1.
          6    2    1    2  502    0 -0.99087999553E+02  0.37241070026E+02 -0.52776418678E+03  0.56441511840E+03  0.16977650036E+03 0.  0.
         24    2    3    3    0    0  0.81588838833E+01  0.36917407222E+02 -0.19242916145E+03  0.21231617211E+03  0.81361615153E+02 0.  0.
         -6    2    1    2    0  501  0.99087999553E+02 -0.37241070026E+02 -0.88729692050E+03  0.91007118877E+03  0.17241929865E+03 0.  0.
        -24    2    5    5    0    0  0.13437905630E+03 -0.17820753134E+02 -0.60744015836E+03  0.62729123066E+03  0.78328998827E+02 0.  0.
          5    1    3    3  502    0 -0.10724688344E+03  0.32366280422E+00 -0.33533502533E+03  0.35209894629E+03  0.47000000000E+01 0. -1.
        -11    1    4    4    0    0  0.60684958146E+01 -0.25095911974E+02 -0.77780029912E+02  0.81953428801E+02  0.00000000000E+00 0.  1.
         12    1    4    4    0    0  0.20903880687E+01  0.62013319197E+02 -0.11464913154E+03  0.13036274331E+03  0.00000000000E+00 0. -1.
         -5    1    5    5    0  501 -0.35291056744E+02 -0.19420316893E+02 -0.27985676214E+03  0.28277995811E+03  0.47000000000E+01 0.  1.
         11    1    6    6    0    0  0.73046993634E+02 -0.48787915840E+02 -0.34454039286E+03  0.35556181786E+03  0.00000000000E+00 0. -1.
        -12    1    6    6    0    0  0.61332062663E+02  0.30967162706E+02 -0.26289976550E+03  0.27172941280E+03  0.00000000000E+00 0.  1.
</event>
<event>
12    1  0.2625820E-002  0.1855328E+03  0.7818608E-02  0.1162553E+00
          1   -1    0    0  502    0  0.00000000000E+00  0.00000000000E+00  0.12594436426E+04  0.12594436426E+04  0.00000000000E+00 0.  1.
         -1   -1    0    0    0  501 -0.00000000000E+00 -0.00000000000E+00 -0.29272998418E+02  0.29272998418E+02  0.00000000000E+00 0. -1.
          6    2    1    2  502    0  0.70569843509E+02 -0.10478934917E+02  0.77969541807E+03  0.80136658038E+03  0.17080263554E+03 0.  0.
         24    2    3    3    0    0  0.37134479108E+02  0.44244788638E+02  0.27061034389E+03  0.28823666285E+03  0.80708393196E+02 0.  0.
         -6    2    1    2    0  501 -0.70569843509E+02  0.10478934917E+02  0.45047522615E+03  0.48735006067E+03  0.17173305265E+03 0.  0.
        -24    2    5    5    0    0 -0.26079787689E+02 -0.12456031333E+02  0.89322276341E+02  0.12271473476E+03  0.79026128811E+02 0.  0.
          5    1    3    3  502    0  0.33435364400E+02 -0.54723723555E+02  0.50908507418E+03  0.51312991753E+03  0.47000000000E+01 0. -1.
        -13    1    4    4    0    0  0.27429221286E+02  0.18847382825E+02  0.25443069100E+03  0.25659805639E+03  0.00000000000E+00 0.  1.
         14    1    4    4    0    0  0.97052578226E+01  0.25397405813E+02  0.16179652892E+02  0.31638606467E+02  0.00000000000E+00 0. -1.
         -5    1    5    5    0  501 -0.44490055820E+02  0.22934966250E+02  0.36115294981E+03  0.36463532590E+03  0.47000000000E+01 0.  1.
         11    1    6    6    0    0 -0.49822228726E+02 -0.22664295163E+02  0.75944667398E+02  0.93613659562E+02  0.00000000000E+00 0. -1.
        -12    1    6    6    0    0  0.23742441037E+02  0.10208263830E+02  0.13377608943E+02  0.29101075201E+02  0.00000000000E+00 0.  1.
</event>
<event>
12    1  0.2625820E-002  0.1826070E+03  0.7818608E-02  0.1165304E+00
          2   -1    0    0  502    0  0.00000000000E+00  0.00000000000E+00  0.13867495403E+03  0.13867495403E+03  0.00000000000E+00 0.  1.
         -2   -1    0    0    0  501 -0.00000000000E+00 -0.00000000000E+00 -0.24978224932E+03  0.24978224932E+03  0.00000000000E+00 0. -1.
          6    2    1    2  502    0 -0.36295208085E+02 -0.47137214395E+02 -0.92657884464E+02  0.20356603056E+03  0.17121444488E+03 0.  0.
         24    2    3    3    0    0 -0.69294275356E+02 -0.77415509572E+02 -0.88517752777E+02  0.15834497031E+03  0.80267548535E+02 0.  0.
         -6    2    1    2    0  501  0.36295208085E+02  0.47137214395E+02 -0.18449410819E+02  0.18489117279E+03  0.17408361757E+03 0.  0.
        -24    2    5    5    0    0 -0.21615536278E+02 -0.24849782631E+02 -0.32297013595E+02  0.91351725731E+02  0.78849842114E+02 0.  0.
          5    1    3    3  502    0  0.32999067271E+02  0.30278295177E+02 -0.41401316874E+01  0.45221060249E+02  0.47000000000E+01 0. -1.
        -13    1    4    4    0    0 -0.21519106090E+02 -0.39617514455E+02  0.64234618376E+01  0.45539875280E+02  0.00000000000E+00 0.  1.
         14    1    4    4    0    0 -0.47775169266E+02 -0.37797995117E+02 -0.94941214615E+02  0.11280509503E+03  0.00000000000E+00 0. -1.
         -5    1    5    5    0  501  0.57910744363E+02  0.71986997025E+02  0.13847602776E+02  0.93539447059E+02  0.47000000000E+01 0.  1.
         11    1    6    6    0    0 -0.30036281341E+02 -0.36353478315E+02  0.86948073256E+01  0.47951571996E+02  0.00000000000E+00 0. -1.
        -12    1    6    6    0    0  0.84207450629E+01  0.11503695685E+02 -0.40991820921E+02  0.43400153735E+02  0.00000000000E+00 0.  1.
</event>
<event>
12    1  0.2625820E-002  0.3243385E+03  0.7818608E-02  0.1073670E+00
          1   -1    0    0  502    0  0.00000000000E+00  0.00000000000E+00  0.92114482889E+03  0.92114482889E+03  0.00000000000E+00 0. -1.
         -1   -1    0    0    0  501 -0.00000000000E+00 -0.00000000000E+00 -0.19875372126E+03  0.19875372126E+03  0.00000000000E+00 0.  1.
          6    2    1    2  502    0  0.19896975663E+03  0.19379471432E+03 -0.53588560732E+01  0.32228250771E+03  0.16337668771E+03 0.  0.
         24    2    3    3    0    0  0.15036733795E+03  0.18389751864E+03 -0.49827319364E+02  0.25550164360E+03  0.79810365506E+02 0.  0.
         -6    2    1    2    0  501 -0.19896975663E+03 -0.19379471432E+03  0.72774996370E+03  0.79761604243E+03  0.17154004234E+03 0.  0.
        -24    2    5    5    0    0 -0.12783963499E+03 -0.15031432154E+03  0.64840930182E+03  0.68243327727E+03  0.79644131687E+02 0.  0.
          5    1    3    3  502    0  0.48602418688E+02  0.98971956773E+01  0.44468463291E+02  0.66780864115E+02  0.47000000000E+01 0. -1.
        -13    1    4    4    0    0  0.66263775843E+02  0.98766566317E+02 -0.63888800645E+02  0.13500926435E+03  0.00000000000E+00 0.  1.
         14    1    4    4    0    0  0.84103562102E+02  0.85130952327E+02  0.14061481281E+02  0.12049237925E+03  0.00000000000E+00 0. -1.
         -5    1    5    5    0  501 -0.71130121648E+02 -0.43480392783E+02  0.79340661886E+02  0.11518276516E+03  0.47000000000E+01 0.  1.
         11    1    6    6    0    0 -0.12911067974E+03 -0.15629064497E+03  0.64324406836E+03  0.67443255023E+03  0.00000000000E+00 0. -1.
        -12    1    6    6    0    0  0.12710447575E+01  0.59763234299E+01  0.51652334512E+01  0.80007270370E+01  0.00000000000E+00 0.  1.
</event>
<event>
12    1  0.2625820E-002  0.2276830E+03  0.7818608E-02  0.1128281E+00
          1   -1    0    0  502    0  0.00000000000E+00  0.00000000000E+00  0.13999774842E+04  0.13999774842E+04  0.00000000000E+00 0. -1.
         -1   -1    0    0    0  501 -0.00000000000E+00 -0.00000000000E+00 -0.37879493298E+02  0.37879493298E+02  0.00000000000E+00 0.  1.
          6    2    1    2  502    0 -0.67417560629E+02 -0.13226189022E+03  0.79046277627E+03  0.82276092974E+03  0.17339495885E+03 0.  0.
         24    2    3    3    0    0 -0.58128688729E+02 -0.14708016439E+03  0.47843507029E+03  0.51020814430E+03  0.80004467456E+02 0.  0.
         -6    2    1    2    0  501  0.67417560629E+02  0.13226189022E+03  0.57163521464E+03  0.61509604777E+03  0.17186621039E+03 0.  0.
        -24    2    5    5    0    0  0.66053922707E+02  0.76648997590E+02  0.52972641803E+03  0.54528852261E+03  0.80568637777E+02 0.  0.
          5    1    3    3  502    0 -0.92888719002E+01  0.14818274166E+02  0.31202770598E+03  0.31255278545E+03  0.47000000000E+01 0. -1.
        -13    1    4    4    0    0 -0.12136535866E+02  0.86185593451E+01  0.40089529354E+02  0.42763833222E+02  0.00000000000E+00 0.  1.
         14    1    4    4    0    0 -0.45992152863E+02 -0.15569872373E+03  0.43834554094E+03  0.46744431107E+03  0.00000000000E+00 0. -1.
         -5    1    5    5    0  501  0.13636379222E+01  0.55612892632E+02  0.41908796613E+02  0.69807525159E+02  0.47000000000E+01 0.  1.
         13    1    6    6    0    0 -0.14501007577E+02  0.27036982022E+02  0.79175031501E+02  0.84911502347E+02  0.00000000000E+00 0. -1.
        -14    1    6    6    0    0  0.80554930284E+02  0.49612015568E+02  0.45055138653E+03  0.46037702026E+03  0.00000000000E+00 0.  1.
</event>
<event>
12    1  0.2625820E-002  0.3749885E+03  0.7818608E-02  0.1052802E+00
          2   -1    0    0  502    0  0.00000000000E+00  0.00000000000E+00  0.14361677064E+04  0.14361677064E+04  0.00000000000E+00 0. -1.
         -2   -1    0    0    0  501 -0.00000000000E+00 -0.00000000000E+00 -0.10890073753E+03  0.10890073753E+03  0.00000000000E+00 0.  1.
          6    2    1    2  502    0  0.33244288387E+03  0.42926405594E+02  0.91206568976E+03  0.98687630855E+03  0.17233710747E+03 0.  0.
         24    2    3    3    0    0  0.15864510792E+03 -0.96390068409E+01  0.30274840144E+03  0.35106309906E+03  0.79545736735E+02 0.  0.
         -6    2    1    2    0  501 -0.33244288387E+03 -0.42926405594E+02  0.41520127913E+03  0.55819213540E+03  0.16378464668E+03 0.  0.
        -24    2    5    5    0    0 -0.17444948697E+03 -0.71660844330E+02  0.28867238494E+03  0.35369462319E+03  0.78741606098E+02 0.  0.
          5    1    3    3  502    0  0.17379777595E+03  0.52565412435E+02  0.60931728832E+03  0.63581320949E+03  0.47000000000E+01 0. -1.
        -11    1    4    4    0    0  0.10104897582E+03  0.96318042809E+01  0.25283358619E+03  0.27244905849E+03  0.00000000000E+00 0.  1.
         12    1    4    4    0    0  0.57596132095E+02 -0.19270811122E+02  0.49914815247E+02  0.78614040570E+02  0.00000000000E+00 0. -1.
         -5    1    5    5    0  501 -0.15799339690E+03  0.28734438736E+02  0.12652889420E+03  0.20449751221E+03  0.47000000000E+01 0.  1.
         11    1    6    6    0    0 -0.11211854384E+03 -0.34205225734E+02  0.10983169554E+03  0.16063488627E+03  0.00000000000E+00 0. -1.
        -12    1    6    6    0    0 -0.62330943134E+02 -0.37455618596E+02  0.17884068940E+03  0.19305973692E+03  0.00000000000E+00 0.  1.
</event>
<event>
12    1  0.2625820E-002  0.2090077E+03  0.7818608E-02  0.1142354E+00
          2   -1    0    0  502    0  0.00000000000E+00  0.00000000000E+00  0.27244616882E+03  0.27244616882E+03  0.00000000000E+00 0. -1.
         -2   -1    0    0    0  501 -0.00000000000E+00 -0.00000000000E+00 -0.16038661339E+03  0.16038661339E+03  0.00000000000E+00 0.  1.
          6    2    1    2  502    0  0.33113040321E+02 -0.11398064992E+03  0.52303773335E+02  0.21517024895E+03  0.17168135988E+03 0.  0.
         24    2    3    3    0    0  0.40235713701E+02 -0.73868146711E+01  0.60169925076E+02  0.10794644314E+03  0.79740435255E+02 0.  0.
         -6    2    1    2    0  501 -0.33113040321E+02  0.11398064992E+03  0.59755782087E+02  0.21766253326E+03  0.17238956725E+03 0.  0.
        -24    2    5    5    0    0 -0.74271253271E+02  0.93611623309E+02  0.83012974453E+02  0.16597227562E+03  0.79851657881E+02 0.  0.
          5    1    3    3  502    0 -0.71226733801E+01 -0.10659383525E+03 -0.78661517404E+01  0.10722380581E+03  0.47000000000E+01 0. -1.
        -13    1    4    4    0    0  0.35578527764E+02 -0.22092353078E+02 -0.38858613611E+01  0.42059524735E+02  0.00000000000E+00 0.  1.
         14    1    4    4    0    0  0.46571859374E+01  0.14705538407E+02  0.64055786437E+02  0.65886918404E+02  0.00000000000E+00 0. -1.
         -5    1    5    5    0  501  0.41158212950E+02  0.20369026610E+02 -0.23257192365E+02  0.51690257641E+02  0.47000000000E+01 0.  1.
         13    1    6    6    0    0 -0.12112851981E+02 -0.11065436126E+02 -0.33040053116E+01  0.16735635956E+02  0.00000000000E+00 0. -1.
        -14    1    6    6    0    0 -0.62158401290E+02  0.10467705943E+03  0.86316979764E+02  0.14923663966E+03  0.00000000000E+00 0.  1.
</event>
<event>
12    1  0.2625820E-002  0.2409463E+03  0.7818608E-02  0.1119164E+00
          3   -1    0    0  502    0  0.00000000000E+00  0.00000000000E+00  0.27470859669E+03  0.27470859669E+03  0.00000000000E+00 0.  1.
         -3   -1    0    0    0  501 -0.00000000000E+00 -0.00000000000E+00 -0.58777948098E+03  0.58777948098E+03  0.00000000000E+00 0. -1.
          6    2    1    2  502    0  0.14212285105E+03  0.93908269532E+02  0.18879900666E+03  0.30536841964E+03  0.16907731640E+03 0.  0.
         24    2    3    3    0    0  0.10588461848E+03  0.11776051046E+03  0.97681750114E+02  0.20434078314E+03  0.84465028809E+02 0.  0.
         -6    2    1    2    0  501 -0.14212285105E+03 -0.93908269532E+02 -0.50186989095E+03  0.55711965804E+03  0.17173018968E+03 0.  0.
        -24    2    5    5    0    0 -0.87306682510E+02 -0.69463548857E+02 -0.16330730384E+03  0.21324602994E+03  0.79730498365E+02 0.  0.
          5    1    3    3  502    0  0.36238232573E+02 -0.23852240932E+02  0.91117256547E+02  0.10102763651E+03  0.47000000000E+01 0. -1.
        -11    1    4    4    0    0  0.10463864160E+03  0.64033633376E+02  0.84633245458E+02  0.14903804131E+03  0.00000000000E+00 0.  1.
         12    1    4    4    0    0  0.12459768768E+01  0.53726877088E+02  0.13048504656E+02  0.55302741828E+02  0.00000000000E+00 0. -1.
         -5    1    5    5    0  501 -0.54816168542E+02 -0.24444720675E+02 -0.33856258712E+03  0.34387362809E+03  0.47000000000E+01 0.  1.
         13    1    6    6    0    0 -0.16142071955E+02  0.13027829592E+02 -0.58509855174E+02  0.62078128059E+02  0.00000000000E+00 0. -1.
        -14    1    6    6    0    0 -0.71164610555E+02 -0.82491378449E+02 -0.10479744866E+03  0.15116790188E+03  0.00000000000E+00 0.  1.
</event>
<event>
12    1  0.2625820E-002  0.2144304E+03  0.7818608E-02  0.1138105E+00
         -2   -1    0    0    0  501 -0.00000000000E+00  0.00000000000E+00  0.17081051471E+02  0.17081051471E+02  0.00000000000E+00 0. -1.
          2   -1    0    0  502    0  0.00000000000E+00 -0.00000000000E+00 -0.30418381160E+04  0.30418381160E+04  0.00000000000E+00 0.  1.
          6    2    1    2  502    0 -0.47355958928E+02  0.11571192068E+03 -0.10046414585E+04  0.10276373003E+04  0.17635794726E+03 0.  0.
         24    2    3    3    0    0 -0.23120459242E+02  0.59514324503E+02 -0.24644587327E+03  0.26696117697E+03  0.80350426895E+02 0.  0.
         -6    2    1    2    0  501  0.47355958928E+02 -0.11571192068E+03 -0.20201156061E+04  0.20312818671E+04  0.17206721481E+03 0.  0.
        -24    2    5    5    0    0  0.91405290332E+02 -0.46765105871E+02 -0.13283260177E+04  0.13346550434E+04  0.79449188337E+02 0.  0.
          5    1    3    3  502    0 -0.24235499686E+02  0.56197596176E+02 -0.75819558520E+03  0.76067612338E+03  0.47000000000E+01 0. -1.
        -11    1    4    4    0    0 -0.35875292075E+02 -0.13045564641E+01 -0.13127453492E+03  0.13609460668E+03  0.00000000000E+00 0.  1.
         12    1    4    4    0    0  0.12754832833E+02  0.60818880967E+02 -0.11517133834E+03  0.13086657029E+03  0.00000000000E+00 0. -1.
         -5    1    5    5    0  501 -0.44049331404E+02 -0.68946814808E+02 -0.69178958842E+03  0.69662682371E+03  0.47000000000E+01 0.  1.
         11    1    6    6    0    0  0.70385898329E+02  0.17259284084E+01 -0.54183018830E+03  0.54638549255E+03  0.00000000000E+00 0. -1.
        -12    1    6    6    0    0  0.21019392003E+02 -0.48491034279E+02 -0.78649582936E+03  0.78826955088E+03  0.00000000000E+00 0.  1.
</event>
<event>
12    1  0.2625820E-002  0.2471113E+03  0.7818608E-02  0.1115144E+00
         -2   -1    0    0    0  501 -0.00000000000E+00  0.00000000000E+00  0.48752181097E+02  0.48752181097E+02  0.00000000000E+00 0.  1.
          2   -1    0    0  502    0  0.00000000000E+00 -0.00000000000E+00 -0.12526537276E+04  0.12526537276E+04  0.00000000000E+00 0. -1.
          6    2    1    2  502    0 -0.10116378529E+03 -0.14246324994E+03 -0.60279861117E+03  0.65220647718E+03  0.17741824655E+03 0.  0.
         24    2    3    3    0    0 -0.83134245265E+02 -0.10785749010E+03 -0.24471088310E+03  0.29196831440E+03  0.82568392260E+02 0.  0.
         -6    2    1    2    0  501  0.10116378529E+03  0.14246324994E+03 -0.60110293531E+03  0.64919943150E+03  0.17206183185E+03 0.  0.
        -24    2    5    5    0    0  0.12940862048E+03  0.10137277822E+03 -0.36929774996E+03  0.41204561741E+03  0.79860700476E+02 0.  0.
          5    1    3    3  502    0 -0.18029540023E+02 -0.34605759844E+02 -0.35808772807E+03  0.36023816278E+03  0.47000000000E+01 0. -1.
        -11    1    4    4    0    0 -0.42347916241E+02 -0.10122959748E+03 -0.21397079817E+03  0.24046679581E+03  0.00000000000E+00 0.  1.
         12    1    4    4    0    0 -0.40786329024E+02 -0.66278926122E+01 -0.30740084929E+02  0.51501518591E+02  0.00000000000E+00 0. -1.
         -5    1    5    5    0  501 -0.28244835194E+02  0.41090471721E+02 -0.23180518535E+03  0.23715381409E+03  0.47000000000E+01 0.  1.
         13    1    6    6    0    0  0.10048022708E+02 -0.13681157817E+02 -0.34414834101E+02  0.38373397631E+02  0.00000000000E+00 0. -1.
        -14    1    6    6    0    0  0.11936059777E+03  0.11505393604E+03 -0.33488291586E+03  0.37367221978E+03  0.00000000000E+00 0.  1.
</event>
<event>
12    1  0.2625820E-002  0.1747026E+03  0.7818608E-02  0.1173031E+00
         -1   -1    0    0    0  501 -0.00000000000E+00  0.00000000000E+00  0.24997460849E+03  0.24997460849E+03  0.00000000000E+00 0.  1.
          1   -1    0    0  502    0  0.00000000000E+00 -0.00000000000E+00 -0.12242076028E+03  0.12242076028E+03  0.00000000000E+00 0. -1.
          6    2    1    2  502    0  0.19654571177E+02 -0.15739897006E+02  0.73749986196E+02  0.19090895247E+03  0.17427886029E+03 0.  0.
         24    2    3    3    0    0 -0.47278171432E+02 -0.18273329219E+02  0.77145312794E+02  0.12367779486E+03  0.82314382703E+02 0.  0.
         -6    2    1    2    0  501 -0.19654571177E+02  0.15739897006E+02  0.53803862015E+02  0.18148641629E+03  0.17148882530E+03 0.  0.
        -24    2    5    5    0    0 -0.76258771956E+02  0.23387356363E+02  0.52241687219E+02  0.12415361965E+03  0.79514518486E+02 0.  0.
          5    1    3    3  502    0  0.66932742609E+02  0.25334322123E+01 -0.33953265982E+01  0.67231157618E+02  0.47000000000E+01 0. -1.
        -13    1    4    4    0    0 -0.57196712149E+02  0.80188793084E+01  0.22035186529E+02  0.61816791824E+02  0.00000000000E+00 0.  1.
         14    1    4    4    0    0  0.99185407174E+01 -0.26292208527E+02  0.55110126266E+02  0.61861003033E+02  0.00000000000E+00 0. -1.
         -5    1    5    5    0  501  0.56604200779E+02 -0.76474593565E+01  0.15621747953E+01  0.57332796640E+02  0.47000000000E+01 0.  1.
         11    1    6    6    0    0 -0.62973053466E+02  0.40543358033E+01 -0.39856380665E+01  0.63229173744E+02  0.00000000000E+00 0. -1.
        -12    1    6    6    0    0 -0.13285718490E+02  0.19333020560E+02  0.56227325286E+02  0.60924445903E+02  0.00000000000E+00 0.  1.
</event>
<event>
12    1  0.2625820E-002  0.1756400E+03  0.7818608E-02  0.1172091E+00
         -1   -1    0    0    0  501 -0.00000000000E+00  0.00000000000E+00  0.12381319843E+03  0.12381319843E+03  0.00000000000E+00 0.  1.
          1   -1    0    0  502    0  0.00000000000E+00 -0.00000000000E+00 -0.36022719766E+03  0.36022719766E+03  0.00000000000E+00 0. -1.
          6    2    1    2  502    0 -0.44682952563E+01 -0.31849279390E+02 -0.25287033205E+03  0.30822784449E+03  0.17328201589E+03 0.  0.
         24    2    3    3    0    0  0.45718089197E+02  0.16398576175E+02 -0.11181928869E+03  0.15086197913E+03  0.88863527061E+02 0.  0.
         -6    2    1    2    0  501  0.44682952563E+01  0.31849279390E+02  0.16456332810E+02  0.17581255160E+03  0.17206074552E+03 0.  0.
        -24    2    5    5    0    0  0.23353034499E+02 -0.32068994286E+02 -0.20324103174E+02  0.99542835741E+02  0.89005181663E+02 0.  0.
          5    1    3    3  502    0 -0.50186384454E+02 -0.48247855565E+02 -0.14105104335E+03  0.15736586537E+03  0.47000000000E+01 0. -1.
        -11    1    4    4    0    0  0.47395373330E+01 -0.34714248987E+02 -0.30624689299E+02  0.46534007903E+02  0.00000000000E+00 0.  1.
         12    1    4    4    0    0  0.40978551864E+02  0.51112825161E+02 -0.81194599394E+02  0.10432797122E+03  0.00000000000E+00 0. -1.
         -5    1    5    5    0  501 -0.18884739243E+02  0.63918273676E+02  0.36780435984E+02  0.76269715859E+02  0.47000000000E+01 0.  1.
         11    1    6    6    0    0  0.25468076701E+02 -0.15063021281E+02 -0.54102932510E+02  0.61665588842E+02  0.00000000000E+00 0. -1.
        -12    1    6    6    0    0 -0.21150422015E+01 -0.17005973005E+02  0.33778829337E+02  0.37877246900E+02  0.00000000000E+00 0.  1.
</event>
<event>
12    1  0.2625820E-002  0.2135949E+03  0.7818608E-02  0.1138750E+00
         -2   -1    0    0    0  501 -0.00000000000E+00  0.00000000000E+00  0.35088875549E+02  0.35088875549E+02  0.00000000000E+00 0.  1.
          2   -1    0    0  502    0  0.00000000000E+00 -0.00000000000E+00 -0.23424021910E+04  0.23424021910E+04  0.00000000000E+00 0. -1.
          6    2    1    2  502    0  0.98521580679E+02  0.53869882270E+02 -0.38314142115E+03  0.44226850808E+03  0.19025146139E+03 0.  0.
         24    2    3    3    0    0  0.12583237435E+03  0.72203209051E+02 -0.21364851228E+03  0.26954929526E+03  0.77227235746E+02 0.  0.
         -6    2    1    2    0  501 -0.98521580679E+02 -0.53869882270E+02 -0.19241718943E+04  0.19352225584E+04  0.17332168338E+03 0.  0.
        -24    2    5    5    0    0 -0.11065122508E+03 -0.87361008658E+02 -0.12897266545E+04  0.12997608081E+04  0.78151619468E+02 0.  0.
          5    1    3    3  502    0 -0.27310793666E+02 -0.18333326781E+02 -0.16949290887E+03  0.17271921282E+03  0.47000000000E+01 0. -1.
        -13    1    4    4    0    0  0.90433937317E+02  0.14452618075E+02 -0.89100871783E+02  0.12777378659E+03  0.00000000000E+00 0.  1.
         14    1    4    4    0    0  0.35398437028E+02  0.57750590975E+02 -0.12454764050E+03  0.14177550866E+03  0.00000000000E+00 0. -1.
         -5    1    5    5    0  501  0.12129644398E+02  0.33491126388E+02 -0.63444523976E+03  0.63546175028E+03  0.47000000000E+01 0.  1.
         11    1    6    6    0    0 -0.52266757842E+02 -0.57000915758E+02 -0.98387861201E+03  0.98691339111E+03  0.00000000000E+00 0. -1.
        -12    1    6    6    0    0 -0.58384467236E+02 -0.30360092900E+02 -0.30584804248E+03  0.31284741704E+03  0.00000000000E+00 0.  1.
</event>
<event>
12    1  0.2625820E-002  0.2086953E+03  0.7818608E-02  0.1142603E+00
          3   -1    0    0  502    0  0.00000000000E+00  0.00000000000E+00  0.16613120975E+03  0.16613120975E+03  0.00000000000E+00 0.  1.
         -3   -1    0    0    0  501 -0.00000000000E+00 -0.00000000000E+00 -0.29242982608E+03  0.29242982608E+03  0.00000000000E+00 0. -1.
          6    2    1    2  502    0  0.77163491575E+02 -0.88550298753E+02  0.10594784385E+02  0.20902645936E+03  0.17258172387E+03 0.  0.
         24    2    3    3    0    0  0.82437480201E+02  0.32065278884E+01  0.10424756027E+02  0.11699793606E+03  0.82302014196E+02 0.  0.
         -6    2    1    2    0  501 -0.77163491575E+02  0.88550298753E+02 -0.13689340072E+03  0.24953457648E+03  0.17243068710E+03 0.  0.
        -24    2    5    5    0    0 -0.14838551281E+02 -0.12394253290E+02 -0.91616373755E+02  0.12246648473E+03  0.78934655396E+02 0.  0.
          5    1    3    3  502    0 -0.52739886257E+01 -0.91756826641E+02  0.17002835800E+00  0.92028523301E+02  0.47000000000E+01 0. -1.
        -13    1    4    4    0    0  0.51816802492E+02 -0.35592500997E+02 -0.97451563123E+01  0.63614268991E+02  0.00000000000E+00 0.  1.
         14    1    4    4    0    0  0.30620677709E+02  0.38799028885E+02  0.20169912340E+02  0.53383667067E+02  0.00000000000E+00 0. -1.
         -5    1    5    5    0  501 -0.62324940295E+02  0.10094455204E+03 -0.45277026964E+02  0.12706809175E+03  0.47000000000E+01 0.  1.
         13    1    6    6    0    0  0.12371303424E+02  0.27124218220E+02 -0.18737965868E+02  0.35211982724E+02  0.00000000000E+00 0. -1.
        -14    1    6    6    0    0 -0.27209854705E+02 -0.39518471510E+02 -0.72878407888E+02  0.87254502003E+02  0.00000000000E+00 0.  1.
</event>
<event>
12    1  0.2625820E-002  0.1877756E+03  0.7818608E-02  0.1160483E+00
          2   -1    0    0  502    0  0.00000000000E+00  0.00000000000E+00  0.50953412352E+03  0.50953412352E+03  0.00000000000E+00 0. -1.
         -2   -1    0    0    0  501 -0.00000000000E+00 -0.00000000000E+00 -0.81333971296E+02  0.81333971296E+02  0.00000000000E+00 0.  1.
          6    2    1    2  502    0  0.39367018556E+02 -0.64428707101E+02  0.32814527105E+03  0.37803892241E+03  0.17185251669E+03 0.  0.
         24    2    3    3    0    0 -0.36293442071E+02 -0.38971488718E+01  0.21382974647E+03  0.22810992586E+03  0.70559025619E+02 0.  0.
         -6    2    1    2    0  501 -0.39367018556E+02  0.64428707101E+02  0.10005488118E+03  0.21282917241E+03  0.17200132829E+03 0.  0.
        -24    2    5    5    0    0 -0.32606706403E+02 -0.16646484679E+02  0.97477737628E+02  0.13129623299E+03  0.79978051419E+02 0.  0.
          5    1    3    3  502    0  0.75660460627E+02 -0.60531558229E+02  0.11431552458E+03  0.14992899654E+03  0.47000000000E+01 0. -1.
        -11    1    4    4    0    0 -0.13774359688E+02  0.19452138288E+02  0.18681611341E+02  0.30284010156E+02  0.00000000000E+00 0.  1.
         12    1    4    4    0    0 -0.22519082383E+02 -0.23349287160E+02  0.19514813513E+03  0.19782591571E+03  0.00000000000E+00 0. -1.
         -5    1    5    5    0  501 -0.67603121530E+01  0.81075191780E+02  0.25771435486E+01  0.81532939426E+02  0.47000000000E+01 0.  1.
         11    1    6    6    0    0  0.90454681521E+01 -0.22500693151E+02 -0.93804031658E+00  0.24268943240E+02  0.00000000000E+00 0. -1.
        -12    1    6    6    0    0 -0.41652174555E+02  0.58542084720E+01  0.98415777945E+02  0.10702728975E+03  0.00000000000E+00 0.  1.
</event>
<event>
12    1  0.2625820E-002  0.2285007E+03  0.7818608E-02  0.1127700E+00
         -1   -1    0    0    0  501 -0.00000000000E+00  0.00000000000E+00  0.42090166365E+02  0.42090166365E+02  0.00000000000E+00 0. -1.
          1   -1    0    0  502    0  0.00000000000E+00 -0.00000000000E+00 -0.12662049680E+04  0.12662049680E+04  0.00000000000E+00 0.  1.
          6    2    1    2  502    0 -0.13648856444E+03 -0.58079560193E+02 -0.51867574153E+03  0.56675240311E+03  0.17372794260E+03 0.  0.
         24    2    3    3    0    0 -0.62558256639E+02  0.20386492991E+02 -0.36270442542E+03  0.37709019453E+03  0.79456717903E+02 0.  0.
         -6    2    1    2    0  501  0.13648856444E+03  0.58079560193E+02 -0.70543906010E+03  0.74154273125E+03  0.17389362044E+03 0.  0.
        -24    2    5    5    0    0  0.17350579955E+02  0.20925871211E+02 -0.12868044955E+03  0.15141830302E+03  0.75032724084E+02 0.  0.
          5    1    3    3  502    0 -0.73930307798E+02 -0.78466053184E+02 -0.15597131611E+03  0.18966220858E+03  0.47000000000E+01 0. -1.
        -13    1    4    4    0    0  0.11147331842E+02 -0.35538920747E+01 -0.83840840124E+01  0.14393957788E+02  0.00000000000E+00 0.  1.
         14    1    4    4    0    0 -0.73705588481E+02  0.23940385066E+02 -0.35432034141E+03  0.36269623674E+03  0.00000000000E+00 0. -1.
         -5    1    5    5    0  501  0.11913798448E+03  0.37153688982E+02 -0.57675861055E+03  0.59012442823E+03  0.47000000000E+01 0.  1.
         13    1    6    6    0    0  0.37539156612E+02  0.53745104388E+01 -0.26894584380E+02  0.46490776618E+02  0.00000000000E+00 0. -1.
        -14    1    6    6    0    0 -0.20188576657E+02  0.15551360772E+02 -0.10178586517E+03  0.10492752640E+03  0.00000000000E+00 0.  1.
</event>
<event>
12    1  0.2625820E-002  0.1801069E+03  0.7818608E-02  0.1167700E+00
         -2   -1    0    0    0  501 -0.00000000000E+00  0.00000000000E+00  0.17269842364E+02  0.17269842364E+02  0.00000000000E+00 0.  1.
          2   -1    0    0  502    0  0.00000000000E+00 -0.00000000000E+00 -0.18845557548E+04  0.18845557548E+04  0.00000000000E+00 0. -1.
          6    2    1    2  502    0  0.30327675592E+02  0.44413265169E+02 -0.87912128742E+03  0.89738589054E+03  0.17191536438E+03 0.  0.
         24    2    3    3    0    0  0.34231474898E+02  0.51869096638E+02 -0.26539740752E+03  0.28358631426E+03  0.78250985046E+02 0.  0.
         -6    2    1    2    0  501 -0.30327675592E+02 -0.44413265169E+02 -0.98816462500E+03  0.10044397066E+04  0.17186474940E+03 0.  0.
        -24    2    5    5    0    0 -0.58398055630E+01 -0.25134421969E+02 -0.95451180382E+03  0.95833187705E+03  0.81494542372E+02 0.  0.
          5    1    3    3  502    0 -0.39037993060E+01 -0.74558314693E+01 -0.61372387991E+03  0.61379957628E+03  0.47000000000E+01 0. -1.
        -11    1    4    4    0    0  0.96255314869E+00  0.62626879663E+02 -0.13934935001E+03  0.15277857806E+03  0.00000000000E+00 0.  1.
         12    1    4    4    0    0  0.33268921750E+02 -0.10757783025E+02 -0.12604805751E+03  0.13080773621E+03  0.00000000000E+00 0. -1.
         -5    1    5    5    0  501 -0.24487870029E+02 -0.19278843200E+02 -0.33652821180E+02  0.46107829564E+02  0.47000000000E+01 0.  1.
         13    1    6    6    0    0  0.17387269683E+02  0.16577894074E+02 -0.11597912344E+03  0.11844112796E+03  0.00000000000E+00 0. -1.
        -14    1    6    6    0    0 -0.23227075246E+02 -0.41712316043E+02 -0.83853268038E+03  0.83989074909E+03  0.00000000000E+00 0.  1.
</event>
<event>
12    1  0.2625820E-002  0.1819188E+03  0.7818608E-02  0.1165959E+00
         -2   -1    0    0    0  501 -0.00000000000E+00  0.00000000000E+00  0.65767255760E+02  0.65767255760E+02  0.00000000000E+00 0. -1.
          2   -1    0    0  502    0  0.00000000000E+00 -0.00000000000E+00 -0.50399290650E+03  0.50399290650E+03  0.00000000000E+00 0.  1.
          6    2    1    2  502    0 -0.29302082756E+02  0.43121885683E+02 -0.20593728464E+03  0.27350798554E+03  0.17227403715E+03 0.  0.
         24    2    3    3    0    0 -0.65446697785E+02  0.52787962250E+02 -0.20482427800E+03  0.23578272855E+03  0.81059675640E+02 0.  0.
         -6    2    1    2    0  501  0.29302082756E+02 -0.43121885683E+02 -0.23228836611E+03  0.29625217672E+03  0.17632174597E+03 0.  0.
        -24    2    5    5    0    0 -0.57867869741E+02 -0.27116702356E+02 -0.10967991494E+03  0.14489270787E+03  0.69858479501E+02 0.  0.
          5    1    3    3  502    0  0.36144615029E+02 -0.96660765669E+01 -0.11130066389E+01  0.37725256998E+02  0.47000000000E+01 0. -1.
        -11    1    4    4    0    0 -0.41175115523E+02  0.63265996398E+02 -0.19218954366E+03  0.20648195353E+03  0.00000000000E+00 0.  1.
         12    1    4    4    0    0 -0.24271582262E+02 -0.10478034149E+02 -0.12634734333E+02  0.29300775020E+02  0.00000000000E+00 0. -1.
         -5    1    5    5    0  501  0.87169952497E+02 -0.16005183326E+02 -0.12260845116E+03  0.15135946884E+03  0.47000000000E+01 0.  1.
         13    1    6    6    0    0 -0.20753123877E+02 -0.43578417829E+02 -0.34101808502E+02  0.59099103159E+02  0.00000000000E+00 0. -1.
        -14    1    6    6    0    0 -0.37114745864E+02  0.16461715472E+02 -0.75578106439E+02  0.85793604714E+02  0.00000000000E+00 0.  1.
</event>
<event>
12    1  0.2625820E-002  0.2163432E+03  0.7818608E-02  0.1136639E+00
          2   -1    0    0  502    0  0.00000000000E+00  0.00000000000E+00  0.11550850125E+04  0.11550850125E+04  0.00000000000E+00 0. -1.
         -2   -1    0    0    0  501 -0.00000000000E+00 -0.00000000000E+00 -0.65893672777E+02  0.65893672777E+02  0.00000000000E+00 0.  1.
          6    2    1    2  502    0  0.77555928769E+02 -0.10587754107E+03  0.92375741492E+03  0.94880181091E+03  0.17225602739E+03 0.  0.
         24    2    3    3    0    0  0.87353155265E+02 -0.10027991066E+02  0.56250292120E+03  0.57489002838E+03  0.79736277994E+02 0.  0.
         -6    2    1    2    0  501 -0.77555928769E+02  0.10587754107E+03  0.16543392479E+03  0.27217687435E+03  0.17171747631E+03 0.  0.
        -24    2    5    5    0    0  0.19176201678E+02  0.80285763009E+02  0.71634002071E+02  0.13494510082E+03  0.79153139736E+02 0.  0.
          5    1    3    3  502    0 -0.97972264958E+01 -0.95849550004E+02  0.36125449372E+03  0.37391178253E+03  0.47000000000E+01 0. -1.
        -11    1    4    4    0    0  0.25636133984E+02  0.22662982017E+02  0.75338449377E+02  0.82744812974E+02  0.00000000000E+00 0.  1.
         12    1    4    4    0    0  0.61717021281E+02 -0.32690973083E+02  0.48716447182E+03  0.49214521540E+03  0.00000000000E+00 0. -1.
         -5    1    5    5    0  501 -0.96732130447E+02  0.25591778062E+02  0.93799922716E+02  0.13723177353E+03  0.47000000000E+01 0.  1.
         13    1    6    6    0    0  0.91246795707E+01  0.24874948705E+02  0.73979570333E+02  0.78581166173E+02  0.00000000000E+00 0. -1.
        -14    1    6    6    0    0  0.10051522107E+02  0.55410814304E+02 -0.23455682629E+01  0.56363934647E+02  0.00000000000E+00 0.  1.
</event>
<event>
12    1  0.2625820E-002  0.2190456E+03  0.7818608E-02  0.1134597E+00
          1   -1    0    0  502    0  0.00000000000E+00  0.00000000000E+00  0.28378928179E+02  0.28378928179E+02  0.00000000000E+00 0. -1.
         -1   -1    0    0    0  501 -0.00000000000E+00 -0.00000000000E+00 -0.18080348639E+04  0.18080348639E+04  0.00000000000E+00 0.  1.
          6    2    1    2  502    0  0.74534379733E+02 -0.11664599695E+03 -0.66076668872E+03  0.69652443677E+03  0.17138264711E+03 0.  0.
         24    2    3    3    0    0  0.69697439059E+02 -0.15041946871E+03 -0.58364953362E+03  0.61206622817E+03  0.80588708840E+02 0.  0.
         -6    2    1    2    0  501 -0.74534379733E+02  0.11664599695E+03 -0.11188892470E+04  0.11398893553E+04  0.16814557063E+03 0.  0.
        -24    2    5    5    0    0 -0.68968452605E+02  0.59616052142E+01 -0.60467803040E+03  0.61385011780E+03  0.79901554950E+02 0.  0.
          5    1    3    3  502    0  0.48369406740E+01  0.33773471755E+02 -0.77117155097E+02  0.84458208599E+02  0.47000000000E+01 0. -1.
        -13    1    4    4    0    0  0.69953090000E+02 -0.79824755398E+02 -0.43110293693E+03  0.44397654061E+03  0.00000000000E+00 0.  1.
         14    1    4    4    0    0 -0.25565094151E+00 -0.70594713309E+02 -0.15254659668E+03  0.16808968756E+03  0.00000000000E+00 0. -1.
         -5    1    5    5    0  501 -0.55659271281E+01  0.11068439174E+03 -0.51421121661E+03  0.52603923751E+03  0.47000000000E+01 0.  1.
         13    1    6    6    0    0 -0.23702700418E+02  0.20672876907E+02 -0.66402193988E+02  0.73474058096E+02  0.00000000000E+00 0. -1.
        -14    1    6    6    0    0 -0.45265752187E+02 -0.14711271693E+02 -0.53827583642E+03  0.54037605971E+03  0.00000000000E+00 0.  1.
</event>
<event>
12    1  0.2625820E-002  0.1901764E+03  0.7818608E-02  0.1158302E+00
          4   -1    0    0  502    0  0.00000000000E+00  0.00000000000E+00  0.14940317703E+04  0.14940317703E+04  0.00000000000E+00 0. -1.
         -4   -1    0    0    0  501 -0.00000000000E+00 -0.00000000000E+00 -0.33425925466E+02  0.33425925466E+02  0.00000000000E+00 0.  1.
          6    2    1    2  502    0 -0.37281384101E+02  0.92706235033E+02  0.35471102334E+03  0.40673210128E+03  0.17212421246E+03 0.  0.
         24    2    3    3    0    0 -0.74020492244E+02  0.43195046662E+02  0.14204459607E+03  0.18525926067E+03  0.82458965922E+02 0.  0.
         -6    2    1    2    0  501  0.37281384101E+02 -0.92706235033E+02  0.11058948215E+04  0.11207255945E+04  0.15178324784E+03 0.  0.
        -24    2    5    5    0    0  0.16767877259E+02 -0.75200627329E+02  0.42774695801E+03  0.44202546556E+03  0.80515564072E+02 0.  0.
          5    1    3    3  502    0  0.36739108143E+02  0.49511188371E+02  0.21266642727E+03  0.22147284061E+03  0.47000000000E+01 0. -1.
        -13    1    4    4    0    0 -0.26348341319E+02 -0.28894158629E+01 -0.21065815293E+01  0.26589875894E+02  0.00000000000E+00 0.  1.
         14    1    4    4    0    0 -0.47672150925E+02  0.46084462525E+02  0.14415117760E+03  0.15866938477E+03  0.00000000000E+00 0. -1.
         -5    1    5    5    0  501  0.20513506842E+02 -0.17505607704E+02  0.67814786350E+03  0.67870012895E+03  0.47000000000E+01 0.  1.
         13    1    6    6    0    0  0.25895062876E+02  0.49172183944E+01  0.16784486825E+03  0.16990183376E+03  0.00000000000E+00 0. -1.
        -14    1    6    6    0    0 -0.91271856174E+01 -0.80117845723E+02  0.25990208976E+03  0.27212363180E+03  0.00000000000E+00 0.  1.
</event>
<event>
12    1  0.2625820E-002  0.1737919E+03  0.7818608E-02  0.1173950E+00
          3   -1    0    0  502    0  0.00000000000E+00  0.00000000000E+00  0.96837080949E+02  0.96837080949E+02  0.00000000000E+00 0. -1.
         -3   -1    0    0    0  501 -0.00000000000E+00 -0.00000000000E+00 -0.32173559560E+03  0.32173559560E+03  0.00000000000E+00 0.  1.
          6    2    1    2  502    0  0.80472772435E+01 -0.17781417662E+02 -0.14943543906E+03  0.22969467158E+03  0.17334288049E+03 0.  0.
         24    2    3    3    0    0 -0.77110370049E+01  0.21146258618E+02 -0.92469575396E+01  0.83275448794E+02  0.79640880224E+02 0.  0.
         -6    2    1    2    0  501 -0.80472772435E+01  0.17781417662E+02 -0.75463075588E+02  0.18887800497E+03  0.17204443467E+03 0.  0.
        -24    2    5    5    0    0  0.31918446358E+01  0.11253424273E+01  0.28854707318E+02  0.82538771698E+02  0.77256717709E+02 0.  0.
          5    1    3    3  502    0  0.15758314248E+02 -0.38927676279E+02 -0.14018848152E+03  0.14641922278E+03  0.47000000000E+01 0. -1.
        -11    1    4    4    0    0  0.91211088110E+01  0.43955725175E+02 -0.24439253160E+02  0.51113378842E+02  0.00000000000E+00 0.  1.
         12    1    4    4    0    0 -0.16832145816E+02 -0.22809466557E+02  0.15192295621E+02  0.32162069952E+02  0.00000000000E+00 0. -1.
         -5    1    5    5    0  501 -0.11239121879E+02  0.16656075234E+02 -0.10431778291E+03  0.10633923327E+03  0.47000000000E+01 0.  1.
         13    1    6    6    0    0 -0.19142650290E+02  0.31773035653E+02  0.24297775938E+02  0.44343531324E+02  0.00000000000E+00 0. -1.
        -14    1    6    6    0    0  0.22334494926E+02 -0.30647693225E+02  0.45569313800E+01  0.38195240374E+02  0.00000000000E+00 0.  1.
</event>
<event>
12    1  0.2625820E-002  0.2475026E+03  0.7818608E-02  0.1114893E+00
         -2   -1    0    0    0  501 -0.00000000000E+00  0.00000000000E+00  0.20290597005E+02  0.20290597005E+02  0.00000000000E+00 0. -1.
          2   -1    0    0  502    0  0.00000000000E+00 -0.00000000000E+00 -0.30346153954E+04  0.30346153954E+04  0.00000000000E+00 0.  1.
          6    2    1    2  502    0 -0.58305795834E+02 -0.17446805069E+03 -0.15869315141E+04  0.16054561097E+04  0.15905666609E+03 0.  0.
         24    2    3    3    0    0 -0.19656499359E+02 -0.16018036902E+03 -0.93689726986E+03  0.95410020491E+03  0.80539295597E+02 0.  0.
         -6    2    1    2    0  501  0.58305795834E+02  0.17446805069E+03 -0.14273932842E+04  0.14494498827E+04  0.17208924436E+03 0.  0.
        -24    2    5    5    0    0  0.87776206115E+02  0.12707699646E+03 -0.75186613666E+03  0.77160518498E+03  0.78858408875E+02 0.  0.
          5    1    3    3  502    0 -0.38649296475E+02 -0.14287681673E+02 -0.65003424425E+03  0.65135590476E+03  0.47000000000E+01 0. -1.
        -13    1    4    4    0    0  0.94131745387E+01 -0.42288677984E+02 -0.45819089319E+03  0.46023454319E+03  0.00000000000E+00 0.  1.
         14    1    4    4    0    0 -0.29069673898E+02 -0.11789169104E+03 -0.47870637667E+03  0.49386566172E+03  0.00000000000E+00 0. -1.
         -5    1    5    5    0  501 -0.29470410281E+02  0.47391054236E+02 -0.67552714759E+03  0.67784469773E+03  0.47000000000E+01 0.  1.
         11    1    6    6    0    0  0.25901015760E+01  0.19643604424E+02 -0.24893417388E+02  0.31816065914E+02  0.00000000000E+00 0. -1.
        -12    1    6    6    0    0  0.85186104539E+02  0.10743339203E+03 -0.72697271927E+03  0.73978911907E+03  0.00000000000E+00 0.  1.
</event>
<event>
12    1  0.2625820E-002  0.1965839E+03  0.7818608E-02  0.1152654E+00
          1   -1    0    0  502    0  0.00000000000E+00  0.00000000000E+00  0.20137118881E+03  0.20137118881E+03  0.00000000000E+00 0.  1.
         -1   -1    0    0    0  501 -0.00000000000E+00 -0.00000000000E+00 -0.58273154666E+03  0.58273154666E+03  0.00000000000E+00 0. -1.
          6    2    1    2  502    0  0.84027966996E+02 -0.41359653701E+02  0.13021130172E+03  0.23625717084E+03  0.17346800133E+03 0.  0.
         24    2    3    3    0    0  0.16811857811E+02 -0.76566516572E+02  0.33998580294E+02  0.11363373796E+03  0.74910966600E+02 0.  0.
         -6    2    1    2    0  501 -0.84027966996E+02  0.41359653701E+02 -0.51157165957E+03  0.54784556463E+03  0.17221463243E+03 0.  0.
        -24    2    5    5    0    0 -0.18410967335E+00  0.68485078065E+02 -0.33071889744E+03  0.34661089409E+03  0.77935120233E+02 0.  0.
          5    1    3    3  502    0  0.67216109185E+02  0.35206862871E+02  0.96212721430E+02  0.12262343288E+03  0.47000000000E+01 0. -1.
        -13    1    4    4    0    0  0.26648197405E+02 -0.31674584323E+02  0.50054571463E+02  0.64952797025E+02  0.00000000000E+00 0.  1.
         14    1    4    4    0    0 -0.98363395942E+01 -0.44891932248E+02 -0.16055991169E+02  0.48680940932E+02  0.00000000000E+00 0. -1.
         -5    1    5    5    0  501 -0.83843857322E+02 -0.27125424364E+02 -0.18085276213E+03  0.20123467054E+03  0.47000000000E+01 0.  1.
         13    1    6    6    0    0  0.37944163743E+02  0.44466174036E+02 -0.17516523795E+03  0.18466147618E+03  0.00000000000E+00 0. -1.
        -14    1    6    6    0    0 -0.38128273416E+02  0.24018904029E+02 -0.15555365949E+03  0.16194941792E+03  0.00000000000E+00 0.  1.
</event>
<event>
12    1  0.2625820E-002  0.1761142E+03  0.7818608E-02  0.1171618E+00
         -2   -1    0    0    0  501 -0.00000000000E+00  0.00000000000E+00  0.20981796092E+02  0.20981796092E+02  0.00000000000E+00 0. -1.
          2   -1    0    0  502    0  0.00000000000E+00 -0.00000000000E+00 -0.23207703051E+04  0.23207703051E+04  0.00000000000E+00 0.  1.
          6    2    1    2  502    0 -0.11288713530E+02 -0.56184467022E+01 -0.45687756177E+03  0.49072040415E+03  0.17863484152E+03 0.  0.
         24    2    3    3    0    0  0.33441422970E+02  0.40925274574E+02 -0.37482825025E+03  0.38621546349E+03  0.76635241142E+02 0.  0.
         -6    2    1    2    0  501  0.11288713530E+02  0.56184467022E+01 -0.18429109473E+04  0.18510316971E+04  0.17273847862E+03 0.  0.
        -24    2    5    5    0    0 -0.24256081815E+02  0.50418164441E+02 -0.15168910848E+04  0.15200007500E+04  0.79456705713E+02 0.  0.
          5    1    3    3  502    0 -0.44730136500E+02 -0.46543721276E+02 -0.82049311514E+02  0.10450494066E+03  0.47000000000E+01 0. -1.
        -13    1    4    4    0    0 -0.33035567831E+01  0.48872659779E+02 -0.13830966481E+03  0.14672768567E+03  0.00000000000E+00 0.  1.
         14    1    4    4    0    0  0.36744979753E+02 -0.79473852048E+01 -0.23651858544E+03  0.23948777782E+03  0.00000000000E+00 0. -1.
         -5    1    5    5    0  501  0.35544795345E+02 -0.44799717738E+02 -0.32601986250E+03  0.33103094709E+03  0.47000000000E+01 0.  1.
         13    1    6    6    0    0 -0.51198219588E+02  0.25757091790E+02 -0.72208244613E+03  0.72435332847E+03  0.00000000000E+00 0. -1.
        -14    1    6    6    0    0  0.26942137774E+02  0.24661072651E+02 -0.79480863865E+03  0.79564742151E+03  0.00000000000E+00 0.  1.
</event>
<event>
12    1  0.2625820E-002  0.1986368E+03  0.7818608E-02  0.1150894E+00
         -2   -1    0    0    0  501 -0.00000000000E+00  0.00000000000E+00  0.96708554022E+02  0.96708554022E+02  0.00000000000E+00 0.  1.
          2   -1    0    0  502    0  0.00000000000E+00 -0.00000000000E+00 -0.16871835231E+04  0.16871835231E+04  0.00000000000E+00 0. -1.
          6    2    1    2  502    0  0.91540821762E+02 -0.46913202504E+02 -0.20655697417E+02  0.20181753719E+03  0.17240385688E+03 0.  0.
         24    2    3    3    0    0  0.66016496237E+02  0.25718049320E+02  0.27196371849E+02  0.11105024976E+03  0.81073543736E+02 0.  0.
         -6    2    1    2    0  501 -0.91540821762E+02  0.46913202504E+02 -0.15698192716E+04  0.15820745399E+04  0.16747159038E+03 0.  0.
        -24    2    5    5    0    0 -0.85275939533E+02  0.46325205383E+02 -0.15692229858E+04  0.15741979894E+04  0.78870275354E+02 0.  0.
          5    1    3    3  502    0  0.25524325525E+02 -0.72631251824E+02 -0.47852069266E+02  0.90767287433E+02  0.47000000000E+01 0. -1.
        -11    1    4    4    0    0  0.69878913079E+02  0.15522031157E+02  0.48949106760E+02  0.86717996961E+02  0.00000000000E+00 0.  1.
         12    1    4    4    0    0 -0.38624168414E+01  0.10196018163E+02 -0.21752734911E+02  0.24332252800E+02  0.00000000000E+00 0. -1.
         -5    1    5    5    0  501 -0.62648822292E+01  0.58799712045E+00 -0.59628582740E+00  0.78765504345E+01  0.47000000000E+01 0.  1.
         13    1    6    6    0    0 -0.98066042174E+02  0.49565734563E+02 -0.14701022572E+04  0.14742029566E+04  0.00000000000E+00 0. -1.
        -14    1    6    6    0    0  0.12790102641E+02 -0.32405291797E+01 -0.99120728575E+02  0.99995032818E+02  0.00000000000E+00 0.  1.
</event>
<event>
12    1  0.2625820E-002  0.1730716E+03  0.7818608E-02  0.1174682E+00
          3   -1    0    0  502    0  0.00000000000E+00  0.00000000000E+00  0.15355969206E+03  0.15355969206E+03  0.00000000000E+00 0. -1.
         -3   -1    0    0    0  501 -0.00000000000E+00 -0.00000000000E+00 -0.27910946182E+03  0.27910946182E+03  0.00000000000E+00 0.  1.
          6    2    1    2  502    0 -0.16054626595E+02  0.10037895428E+02  0.56176278922E+02  0.18104958641E+03  0.17106919081E+03 0.  0.
         24    2    3    3    0    0 -0.45574229649E+01  0.43902426885E+02 -0.23845672675E+02  0.93273764452E+02  0.78633236225E+02 0.  0.
         -6    2    1    2    0  501  0.16054626595E+02 -0.10037895428E+02 -0.18172604868E+03  0.25161956748E+03  0.17300155950E+03 0.  0.
        -24    2    5    5    0    0  0.28318438880E+02  0.22202429130E+02 -0.21872882231E+02  0.88019553899E+02  0.77292542018E+02 0.  0.
          5    1    3    3  502    0 -0.11497203630E+02 -0.33864531458E+02  0.80021951598E+02  0.87775821954E+02  0.47000000000E+01 0. -1.
        -11    1    4    4    0    0 -0.28804966197E+02  0.43737006260E+02  0.82834858840E+01  0.53021391273E+02  0.00000000000E+00 0.  1.
         12    1    4    4    0    0  0.24247543232E+02  0.16542062571E+00 -0.32129158559E+02  0.40252373178E+02  0.00000000000E+00 0. -1.
         -5    1    5    5    0  501 -0.12263812284E+02 -0.32240324558E+02 -0.15985316645E+03  0.16360001358E+03  0.47000000000E+01 0.  1.
         11    1    6    6    0    0  0.35499795258E+01 -0.24938035097E+02 -0.23908595666E+02  0.34729366476E+02  0.00000000000E+00 0. -1.
        -12    1    6    6    0    0  0.24768459354E+02  0.47140464227E+02  0.20357134350E+01  0.53290187422E+02  0.00000000000E+00 0.  1.
</event>
<event>
12    1  0.2625820E-002  0.1980406E+03  0.7818608E-02  0.1151403E+00
         -1   -1    0    0    0  501 -0.00000000000E+00  0.00000000000E+00  0.76683912593E+02  0.76683912593E+02  0.00000000000E+00 0.  1.
          1   -1    0    0  502    0  0.00000000000E+00 -0.00000000000E+00 -0.51448910229E+03  0.51448910229E+03  0.00000000000E+00 0. -1.
          6    2    1    2  502    0  0.63259163747E+02 -0.71883898178E+02 -0.24145503753E+03  0.31219006230E+03  0.17318511262E+03 0.  0.
         24    2    3    3    0    0  0.36637369916E+02 -0.78759012036E+02 -0.82548971411E+02  0.15085434106E+03  0.91637441501E+02 0.  0.
         -6    2    1    2    0  501 -0.63259163747E+02  0.71883898178E+02 -0.19635015217E+03  0.27898295259E+03  0.17351970771E+03 0.  0.
        -24    2    5    5    0    0  0.11432738896E+02  0.90082094083E+02 -0.12473256045E+03  0.17381059834E+03  0.80040122848E+02 0.  0.
          5    1    3    3  502    0  0.26621793831E+02  0.68751138579E+01 -0.15890606612E+03  0.16133572124E+03  0.47000000000E+01 0. -1.
        -11    1    4    4    0    0  0.48630557661E+02 -0.66803591678E+02 -0.97822081555E+02  0.12805003178E+03  0.00000000000E+00 0.  1.
         12    1    4    4    0    0 -0.11993187746E+02 -0.11955420358E+02  0.15273110144E+02  0.22804309279E+02  0.00000000000E+00 0. -1.
         -5    1    5    5    0  501 -0.74691902643E+02 -0.18198195905E+02 -0.71617591721E+02  0.10517235425E+03  0.47000000000E+01 0.  1.
         11    1    6    6    0    0  0.14872616677E+02  0.40499441244E+02 -0.11545163970E+03  0.12324966765E+03  0.00000000000E+00 0. -1.
        -12    1    6    6    0    0 -0.34398777811E+01  0.49582652839E+02 -0.92809207506E+01  0.50560930684E+02  0.00000000000E+00 0.  1.
</event>
<event>
12    1  0.2625820E-002  0.1878027E+03  0.7818608E-02  0.1160458E+00
          2   -1    0    0  502    0  0.00000000000E+00  0.00000000000E+00  0.57947186514E+03  0.57947186514E+03  0.00000000000E+00 0.  1.
         -2   -1    0    0    0  501 -0.00000000000E+00 -0.00000000000E+00 -0.65522959615E+02  0.65522959615E+02  0.00000000000E+00 0. -1.
          6    2    1    2  502    0  0.10329090686E+02 -0.73260961394E+02  0.34361431010E+03  0.39183817318E+03  0.17318343245E+03 0.  0.
         24    2    3    3    0    0  0.29811842799E+02 -0.19845482848E+02  0.31741495534E+03  0.32905850156E+03  0.79023125846E+02 0.  0.
         -6    2    1    2    0  501 -0.10329090686E+02  0.73260961394E+02  0.17033459542E+03  0.25315665158E+03  0.17204812484E+03 0.  0.
        -24    2    5    5    0    0 -0.61656361712E+02  0.86010201049E+01  0.76333451304E+02  0.12796199572E+03  0.81682262918E+02 0.  0.
          5    1    3    3  502    0 -0.19482752113E+02 -0.53415478545E+02  0.26199354767E+02  0.62779671617E+02  0.47000000000E+01 0. -1.
        -13    1    4    4    0    0  0.54584444025E+02 -0.26423329170E+02  0.20650231793E+03  0.21522281748E+03  0.00000000000E+00 0.  1.
         14    1    4    4    0    0 -0.24772601226E+02  0.65778463217E+01  0.11091263740E+03  0.11383568408E+03  0.00000000000E+00 0. -1.
         -5    1    5    5    0  501  0.51327271026E+02  0.64659941289E+02  0.94001144119E+02  0.12519465585E+03  0.47000000000E+01 0.  1.
         13    1    6    6    0    0  0.13599042620E+02 -0.10271012016E+02 -0.26497505233E+01  0.17246704782E+02  0.00000000000E+00 0. -1.
        -14    1    6    6    0    0 -0.75255404332E+02  0.18872032121E+02  0.78983201827E+02  0.11071529094E+03  0.00000000000E+00 0.  1.
</event>
<event>
12    1  0.2625820E-002  0.1728786E+03  0.7818608E-02  0.1174879E+00
          2   -1    0    0  502    0  0.00000000000E+00  0.00000000000E+00  0.18035223180E+04  0.18035223180E+04  0.00000000000E+00 0.  1.
         -2   -1    0    0    0  501 -0.00000000000E+00 -0.00000000000E+00 -0.17418738373E+02  0.17418738373E+02  0.00000000000E+00 0. -1.
          6    2    1    2  502    0  0.21993751507E+02  0.56741846936E+01  0.69697678597E+03  0.71832695873E+03  0.17233994888E+03 0.  0.
         24    2    3    3    0    0 -0.29968475442E+02 -0.43113441958E+02  0.30077652239E+03  0.31573902498E+03  0.80422242410E+02 0.  0.
         -6    2    1    2    0  501 -0.21993751507E+02 -0.56741846936E+01  0.10891267937E+04  0.11026140977E+04  0.17042521580E+03 0.  0.
        -24    2    5    5    0    0 -0.73123509820E+02 -0.32649760345E+02  0.66625447799E+03  0.67578272670E+03  0.79838648027E+02 0.  0.
          5    1    3    3  502    0  0.51962226949E+02  0.48787626652E+02  0.39620026358E+03  0.40258793376E+03  0.47000000000E+01 0. -1.
        -11    1    4    4    0    0 -0.12539768716E+02 -0.12557130189E+02  0.26490047875E+03  0.26549423904E+03  0.00000000000E+00 0.  1.
         12    1    4    4    0    0 -0.17428706726E+02 -0.30556311769E+02  0.35876043635E+02  0.50244785938E+02  0.00000000000E+00 0. -1.
         -5    1    5    5    0  501  0.51129758313E+02  0.26975575651E+02  0.42287231570E+03  0.42683137098E+03  0.47000000000E+01 0.  1.
         11    1    6    6    0    0 -0.25883679164E+02 -0.31328070513E+02  0.10574735039E+03  0.11328687022E+03  0.00000000000E+00 0. -1.
        -12    1    6    6    0    0 -0.47239830657E+02 -0.13216898314E+01  0.56050712760E+03  0.56249585648E+03  0.00000000000E+00 0.  1.
</event>
<event>
12    1  0.2625820E-002  0.1800445E+03  0.7818608E-02  0.1167760E+00
         -1   -1    0    0    0  501 -0.00000000000E+00  0.00000000000E+00  0.82614301558E+02  0.82614301558E+02  0.00000000000E+00 0.  1.
          1   -1    0    0  502    0  0.00000000000E+00 -0.00000000000E+00 -0.39293006399E+03  0.39293006399E+03  0.00000000000E+00 0. -1.
          6    2    1    2  502    0  0.24171197700E+02 -0.50198840866E+02 -0.16235531799E+03  0.24120287984E+03  0.16945621719E+03 0.  0.
         24    2    3    3    0    0  0.79467211052E+02 -0.34396573762E+02 -0.87726312210E+02  0.14686869070E+03  0.79852016472E+02 0.  0.
         -6    2    1    2    0  501 -0.24171197700E+02  0.50198840866E+02 -0.14796044445E+03  0.23434148571E+03  0.17297244977E+03 0.  0.
        -24    2    5    5    0    0 -0.15178660667E+02 -0.26279755501E+02 -0.13835642656E+03  0.15659723457E+03  0.66777060553E+02 0.  0.
          5    1    3    3  502    0 -0.55296013352E+02 -0.15802267104E+02 -0.74629005779E+02  0.94334189146E+02  0.47000000000E+01 0. -1.
        -13    1    4    4    0    0  0.54792920050E+02 -0.18579273763E+02 -0.38112750253E+01  0.57982577715E+02  0.00000000000E+00 0.  1.
         14    1    4    4    0    0  0.24674291003E+02 -0.15817299998E+02 -0.83915037184E+02  0.88886112984E+02  0.00000000000E+00 0. -1.
         -5    1    5    5    0  501 -0.89925370329E+01  0.76478596367E+02 -0.96040178833E+01  0.77744251131E+02  0.47000000000E+01 0.  1.
         11    1    6    6    0    0  0.92346581858E+01  0.46138633948E+01 -0.10348994032E+03  0.10400353069E+03  0.00000000000E+00 0. -1.
        -12    1    6    6    0    0 -0.24413318853E+02 -0.30893618895E+02 -0.34866486241E+02  0.52593703888E+02  0.00000000000E+00 0.  1.
</event>
<event>
12    1  0.2625820E-002  0.2032419E+03  0.7818608E-02  0.1147032E+00
         -1   -1    0    0    0  501 -0.00000000000E+00  0.00000000000E+00  0.47166875377E+03  0.47166875377E+03  0.00000000000E+00 0. -1.
          1   -1    0    0  502    0  0.00000000000E+00 -0.00000000000E+00 -0.20009926096E+03  0.20009926096E+03  0.00000000000E+00 0.  1.
          6    2    1    2  502    0 -0.97162087276E+02 -0.36822046419E+02 -0.11707901460E+03  0.23152009570E+03  0.17058055208E+03 0.  0.
         24    2    3    3    0    0 -0.24123853229E+02 -0.50417018914E+02 -0.12564175545E+03  0.15658801018E+03  0.74900721814E+02 0.  0.
         -6    2    1    2    0  501  0.97162087276E+02  0.36822046419E+02  0.38864850742E+03  0.44024791902E+03  0.17881340437E+03 0.  0.
        -24    2    5    5    0    0 -0.71902615916E+01  0.56464885668E+02  0.20060113436E+03  0.22424060813E+03  0.82480616215E+02 0.  0.
          5    1    3    3  502    0 -0.73038234046E+02  0.13594972494E+02  0.85627408480E+01  0.74932085521E+02  0.47000000000E+01 0. -1.
        -11    1    4    4    0    0 -0.17764703901E+02  0.14523087031E+02 -0.59073048181E+02  0.63372942041E+02  0.00000000000E+00 0.  1.
         12    1    4    4    0    0 -0.63591493281E+01 -0.64940105945E+02 -0.66568707271E+02  0.93215068138E+02  0.00000000000E+00 0. -1.
         -5    1    5    5    0  501  0.10435234887E+03 -0.19642839248E+02  0.18804737306E+03  0.21600731090E+03  0.47000000000E+01 0.  1.
         13    1    6    6    0    0 -0.13079827814E+02  0.86496869492E+01  0.16131799381E+03  0.16207835793E+03  0.00000000000E+00 0. -1.
        -14    1    6    6    0    0  0.58895662222E+01  0.47815198718E+02  0.39283140545E+02  0.62162250199E+02  0.00000000000E+00 0.  1.
</event>
<event>
12    1  0.2625820E-002  0.2308780E+03  0.7818608E-02  0.1126023E+00
         -4   -1    0    0    0  501 -0.00000000000E+00  0.00000000000E+00  0.13816080276E+03  0.13816080276E+03  0.00000000000E+00 0.  1.
          4   -1    0    0  502    0  0.00000000000E+00 -0.00000000000E+00 -0.46114284644E+03  0.46114284644E+03  0.00000000000E+00 0. -1.
          6    2    1    2  502    0  0.51381382909E+01 -0.15447738554E+03 -0.40617566850E+02  0.23481748102E+03  0.17204592278E+03 0.  0.
         24    2    3    3    0    0  0.30645485606E+02 -0.73174762119E+02  0.38225153786E+02  0.11863225846E+03  0.79490620621E+02 0.  0.
         -6    2    1    2    0  501 -0.51381382909E+01  0.15447738554E+03 -0.28236447683E+03  0.36448616818E+03  0.17097019012E+03 0.  0.
        -24    2    5    5    0    0 -0.12745231348E+02  0.17755329974E+03 -0.20885405666E+03  0.28692175911E+03  0.83764334275E+02 0.  0.
          5    1    3    3  502    0 -0.25507347315E+02 -0.81302623425E+02 -0.78842720635E+02  0.11618522255E+03  0.47000000000E+01 0. -1.
        -11    1    4    4    0    0  0.44403348859E+02 -0.86758476919E+01  0.74387006499E+01  0.45850430646E+02  0.00000000000E+00 0.  1.
         12    1    4    4    0    0 -0.13757863253E+02 -0.64498914427E+02  0.30786453136E+02  0.72781827816E+02  0.00000000000E+00 0. -1.
         -5    1    5    5    0  501  0.76070930567E+01 -0.23075914196E+02 -0.73510420178E+02  0.77564409077E+02  0.47000000000E+01 0.  1.
         11    1    6    6    0    0  0.30111895605E+02  0.12148527303E+03 -0.11937449234E+03  0.17296146172E+03  0.00000000000E+00 0. -1.
        -12    1    6    6    0    0 -0.42857126952E+02  0.56068026714E+02 -0.89479564314E+02  0.11396029738E+03  0.00000000000E+00 0.  1.
</event>
<event>
12    1  0.2625820E-002  0.1776604E+03  0.7818608E-02  0.1170087E+00
         -2   -1    0    0    0  501 -0.00000000000E+00  0.00000000000E+00  0.82624266776E+02  0.82624266776E+02  0.00000000000E+00 0. -1.
          2   -1    0    0  502    0  0.00000000000E+00 -0.00000000000E+00 -0.89303342678E+03  0.89303342678E+03  0.00000000000E+00 0.  1.
          6    2    1    2  502    0 -0.49506153150E+00  0.40948534612E+02 -0.37046945745E+02  0.18234795795E+03  0.17378513747E+03 0.  0.
         24    2    3    3    0    0  0.35357222249E+02  0.61923651638E+02 -0.66973685316E+02  0.13093743833E+03  0.87031410616E+02 0.  0.
         -6    2    1    2    0  501  0.49506153150E+00 -0.40948534612E+02 -0.77336221426E+03  0.79330973561E+03  0.17197149354E+03 0.  0.
        -24    2    5    5    0    0 -0.31078145034E+00  0.24575187455E+02 -0.21306387150E+03  0.22917293443E+03  0.80746418590E+02 0.  0.
          5    1    3    3  502    0 -0.35852283780E+02 -0.20975117026E+02  0.29926739572E+02  0.51410519623E+02  0.47000000000E+01 0. -1.
        -11    1    4    4    0    0 -0.58691032494E+01 -0.16583075656E+02 -0.30182852726E+02  0.34934930511E+02  0.00000000000E+00 0.  1.
         12    1    4    4    0    0  0.41226325498E+02  0.78506727294E+02 -0.36790832590E+02  0.96002507817E+02  0.00000000000E+00 0. -1.
         -5    1    5    5    0  501  0.80584298184E+00 -0.65523722067E+02 -0.56029834276E+03  0.56413680117E+03  0.47000000000E+01 0.  1.
         13    1    6    6    0    0  0.13439133994E+02  0.48863468667E+02 -0.17353735532E+03  0.18078568136E+03  0.00000000000E+00 0. -1.
        -14    1    6    6    0    0 -0.13749915444E+02 -0.24288281212E+02 -0.39526516181E+02  0.48387253077E+02  0.00000000000E+00 0.  1.
</event>
<event>
12    1  0.2625820E-002  0.3185659E+03  0.7818608E-02  0.1076311E+00
         -2   -1    0    0    0  501 -0.00000000000E+00  0.00000000000E+00  0.28043662628E+03  0.28043662628E+03  0.00000000000E+00 0.  1.
          2   -1    0    0  502    0  0.00000000000E+00 -0.00000000000E+00 -0.48066040507E+03  0.48066040507E+03  0.00000000000E+00 0. -1.
          6    2    1    2  502    0  0.15961639112E+03  0.21226914190E+03 -0.28838560187E+03  0.42705173800E+03  0.16932616645E+03 0.  0.
         24    2    3    3    0    0  0.15986688174E+03  0.10569845121E+03 -0.18475558695E+03  0.27832835433E+03  0.81255544109E+02 0.  0.
         -6    2    1    2    0  501 -0.15961639112E+03 -0.21226914190E+03  0.88161823077E+02  0.33404529335E+03  0.18242305238E+03 0.  0.
        -24    2    5    5    0    0 -0.56170171542E+02 -0.31867115611E+02  0.63862429886E+02  0.12462093482E+03  0.85330921805E+02 0.  0.
          5    1    3    3  502    0 -0.25049061381E+00  0.10657069068E+03 -0.10363001492E+03  0.14872338367E+03  0.47000000000E+01 0. -1.
        -13    1    4    4    0    0  0.29567662111E+02 -0.12523902447E+02 -0.25253772065E+02  0.40851533371E+02  0.00000000000E+00 0.  1.
         14    1    4    4    0    0  0.13029921963E+03  0.11822235366E+03 -0.15950181488E+03  0.23747682096E+03  0.00000000000E+00 0. -1.
         -5    1    5    5    0  501 -0.10344621958E+03 -0.18040202629E+03  0.24299393191E+02  0.20942435852E+03  0.47000000000E+01 0.  1.
         11    1    6    6    0    0 -0.56319855020E+02  0.12935285916E+02  0.18043379204E+02  0.60537684332E+02  0.00000000000E+00 0. -1.
        -12    1    6    6    0    0  0.14968347817E+00 -0.44802401527E+02  0.45819050681E+02  0.64083250488E+02  0.00000000000E+00 0.  1.
</event>
<event>
12    1  0.2625820E-002  0.1896195E+03  0.7818608E-02  0.1158805E+00
         -4   -1    0    0    0  501 -0.00000000000E+00  0.00000000000E+00  0.11157914721E+04  0.11157914721E+04  0.00000000000E+00 0.  1.
          4   -1    0    0  502    0  0.00000000000E+00 -0.00000000000E+00 -0.33235316746E+02  0.33235316746E+02  0.00000000000E+00 0. -1.
          6    2    1    2  502    0  0.72419550057E+02 -0.20766354926E+02  0.64499625270E+03  0.67265964674E+03  0.17542805254E+03 0.  0.
         24    2    3    3    0    0  0.29916783743E+02 -0.76084322535E+02  0.51224972880E+03  0.52262534301E+03  0.63668095771E+02 0.  0.
         -6    2    1    2    0  501 -0.72419550057E+02  0.20766354926E+02  0.43755990267E+03  0.47636714213E+03  0.17260113832E+03 0.  0.
        -24    2    5    5    0    0 -0.60247719458E+02 -0.51790702119E+02  0.29898821848E+03  0.31940574036E+03  0.79460730285E+02 0.  0.
          5    1    3    3  502    0  0.42502766314E+02  0.55317967609E+02  0.13274652391E+03  0.15003430372E+03  0.47000000000E+01 0. -1.
        -13    1    4    4    0    0 -0.49803692389E+01 -0.61815675364E+02  0.38302929663E+03  0.38801729842E+03  0.00000000000E+00 0.  1.
         14    1    4    4    0    0  0.34897152981E+02 -0.14268647171E+02  0.12922043217E+03  0.13460804459E+03  0.00000000000E+00 0. -1.
         -5    1    5    5    0  501 -0.12171830598E+02  0.72557057045E+02  0.13857168419E+03  0.15696140177E+03  0.47000000000E+01 0.  1.
         13    1    6    6    0    0 -0.24510897557E+02 -0.64707537621E+02  0.14307454129E+03  0.15892820357E+03  0.00000000000E+00 0. -1.
        -14    1    6    6    0    0 -0.35736821902E+02  0.12916835502E+02  0.15591367719E+03  0.16047753679E+03  0.00000000000E+00 0.  1.
</event>
<event>
12    1  0.2625820E-002  0.1765421E+03  0.7818608E-02  0.1171192E+00
         -2   -1    0    0    0  501 -0.00000000000E+00  0.00000000000E+00  0.14110592848E+02  0.14110592848E+02  0.00000000000E+00 0. -1.
          2   -1    0    0  502    0  0.00000000000E+00 -0.00000000000E+00 -0.23377806129E+04  0.23377806129E+04  0.00000000000E+00 0.  1.
          6    2    1    2  502    0 -0.24338794526E+02  0.38579421828E+02 -0.89314523560E+03  0.91065955393E+03  0.17178958815E+03 0.  0.
         24    2    3    3    0    0 -0.62923979762E+02  0.20958571922E+02 -0.81640519198E+03  0.82285047032E+03  0.78528784816E+02 0.  0.
         -6    2    1    2    0  501  0.24338794526E+02 -0.38579421828E+02 -0.14305247845E+04  0.14412316518E+04  0.16931262960E+03 0.  0.
        -24    2    5    5    0    0 -0.46957331423E+02 -0.22642019935E+02 -0.10013240327E+04  0.10058323940E+04  0.79569682770E+02 0.  0.
          5    1    3    3  502    0  0.38585185236E+02  0.17620849907E+02 -0.76740043611E+02  0.87809083611E+02  0.47000000000E+01 0. -1.
        -13    1    4    4    0    0 -0.29514222036E+02  0.47110787193E+02 -0.58088752587E+03  0.58354162943E+03  0.00000000000E+00 0.  1.
         14    1    4    4    0    0 -0.33409757726E+02 -0.26152215271E+02 -0.23551766612E+03  0.23930884089E+03  0.00000000000E+00 0. -1.
         -5    1    5    5    0  501  0.71296125948E+02 -0.15937401894E+02 -0.42920075179E+03  0.43539925780E+03  0.47000000000E+01 0.  1.
         13    1    6    6    0    0  0.99513890096E+01 -0.27529358993E+02 -0.16626803211E+03  0.16882521805E+03  0.00000000000E+00 0. -1.
        -14    1    6    6    0    0 -0.56908720432E+02  0.48873390583E+01 -0.83505600058E+03  0.83700717598E+03  0.00000000000E+00 0.  1.
</event>
<event>
12    1  0.2625820E-002  0.2982571E+03  0.7818608E-02  0.1086115E+00
         -1   -1    0    0    0  501 -0.00000000000E+00  0.00000000000E+00  0.86493771498E+02  0.86493771498E+02  0.00000000000E+00 0. -1.
          1   -1    0    0  502    0  0.00000000000E+00 -0.00000000000E+00 -0.16900720799E+04  0.16900720799E+04  0.00000000000E+00 0.  1.
          6    2    1    2  502    0 -0.64184453089E+02  0.23547244701E+03 -0.13586582976E+04  0.13911553980E+04  0.17260954276E+03 0.  0.
         24    2    3    3    0    0 -0.55481175658E+02  0.16945116701E+03 -0.12375443052E+04  0.12528613431E+04  0.79710594217E+02 0.  0.
         -6    2    1    2    0  501  0.64184453089E+02 -0.23547244701E+03 -0.24492001078E+03  0.38541045344E+03  0.17026006174E+03 0.  0.
        -24    2    5    5    0    0  0.46008008954E+02 -0.17990093026E+03 -0.91601278326E+02  0.22125412455E+03  0.77984048628E+02 0.  0.
          5    1    3    3  502    0 -0.87032774313E+01  0.66021279994E+02 -0.12111399241E+03  0.13829405485E+03  0.47000000000E+01 0. -1.
        -13    1    4    4    0    0 -0.37052492172E+02  0.12125810302E+03 -0.60098829565E+03  0.61421767007E+03  0.00000000000E+00 0.  1.
         14    1    4    4    0    0 -0.18428683486E+02  0.48193063993E+02 -0.63655600956E+03  0.63864367303E+03  0.00000000000E+00 0. -1.
         -5    1    5    5    0  501  0.18176444136E+02 -0.55571516744E+02 -0.15331873246E+03  0.16415632890E+03  0.47000000000E+01 0.  1.
         13    1    6    6    0    0  0.45542665518E+02 -0.88420728090E+02 -0.12360543782E+02  0.10022545875E+03  0.00000000000E+00 0. -1.
        -14    1    6    6    0    0  0.46534343611E+00 -0.91480202173E+02 -0.79240734544E+02  0.12102866580E+03  0.00000000000E+00 0.  1.
</event>
<event>
12    1  0.2625820E-002  0.3404164E+03  0.7818608E-02  0.1066619E+00
          2   -1    0    0  502    0  0.00000000000E+00  0.00000000000E+00  0.47046891826E+03  0.47046891826E+03  0.00000000000E+00 0. -1.
         -2   -1    0    0    0  501 -0.00000000000E+00 -0.00000000000E+00 -0.34776867918E+03  0.34776867918E+03  0.00000000000E+00 0.  1.
          6    2    1    2  502    0 -0.12245616955E+03  0.26718352613E+03  0.28230867906E+03  0.44215948200E+03  0.17153503185E+03 0.  0.
         24    2    3    3    0    0 -0.36803181639E+02  0.22393979161E+03  0.23681355118E+03  0.33586577769E+03  0.72261041790E+02 0.  0.
         -6    2    1    2    0  501  0.12245616955E+03 -0.26718352613E+03 -0.15960843998E+03  0.37607811544E+03  0.17198065212E+03 0.  0.
        -24    2    5    5    0    0 -0.14142551431E+00 -0.58993214858E+02 -0.32409953418E+02  0.10299402398E+03  0.77956042070E+02 0.  0.
          5    1    3    3  502    0 -0.85652987912E+02  0.43243734520E+02  0.45495127887E+02  0.10629370430E+03  0.47000000000E+01 0. -1.
        -11    1    4    4    0    0 -0.40954281094E+01  0.12640847701E+03  0.84637500263E+02  0.15218206873E+03  0.00000000000E+00 0.  1.
         12    1    4    4    0    0 -0.32707753530E+02  0.97531314602E+02  0.15217605091E+03  0.18368370897E+03  0.00000000000E+00 0. -1.
         -5    1    5    5    0  501  0.12259759507E+03 -0.20819031127E+03 -0.12719848657E+03  0.27308409146E+03  0.47000000000E+01 0.  1.
         11    1    6    6    0    0  0.10912858730E+02 -0.37753284414E+02  0.20930971844E+02  0.44525347298E+02  0.00000000000E+00 0. -1.
        -12    1    6    6    0    0 -0.11054284244E+02 -0.21239930444E+02 -0.53340925262E+02  0.58468676685E+02  0.00000000000E+00 0.  1.
</event>
<event>
12    1  0.2625820E-002  0.1910012E+03  0.7818608E-02  0.1157561E+00
         -1   -1    0    0    0  501 -0.00000000000E+00  0.00000000000E+00  0.16223287891E+03  0.16223287891E+03  0.00000000000E+00 0.  1.
          1   -1    0    0  502    0  0.00000000000E+00 -0.00000000000E+00 -0.48109748565E+03  0.48109748565E+03  0.00000000000E+00 0. -1.
          6    2    1    2  502    0  0.18791795155E+01  0.82136452689E+02 -0.39434048499E+03  0.43834355556E+03  0.17288934734E+03 0.  0.
         24    2    3    3    0    0 -0.60632790279E+02  0.44145601083E+02 -0.16885462955E+03  0.20124228568E+03  0.79758399396E+02 0.  0.
         -6    2    1    2    0  501 -0.18791795155E+01 -0.82136452689E+02  0.75475878253E+02  0.20498680900E+03  0.17196818163E+03 0.  0.
        -24    2    5    5    0    0 -0.75379609452E+01 -0.19615557101E+02 -0.27048963300E+02  0.84677551971E+02  0.77440625364E+02 0.  0.
          5    1    3    3  502    0  0.62511969795E+02  0.37990851606E+02 -0.22548585544E+03  0.23710126988E+03  0.47000000000E+01 0. -1.
        -13    1    4    4    0    0 -0.55102770781E+02  0.64466553896E+02 -0.15281297979E+03  0.17476858617E+03  0.00000000000E+00 0.  1.
         14    1    4    4    0    0 -0.55300194986E+01 -0.20320952813E+02 -0.16041649754E+02  0.26473699509E+02  0.00000000000E+00 0. -1.
         -5    1    5    5    0  501  0.56587814297E+01 -0.62520895588E+02  0.10252484155E+03  0.12030925703E+03  0.47000000000E+01 0.  1.
         13    1    6    6    0    0 -0.35621588715E+02 -0.29287094504E+02 -0.29708451771E+02  0.54856390637E+02  0.00000000000E+00 0. -1.
        -14    1    6    6    0    0  0.28083627770E+02  0.96715374027E+01  0.26594884715E+01  0.29821161335E+02  0.00000000000E+00 0.  1.
</event>
<event>
12    1  0.2625820E-002  0.1868189E+03  0.7818608E-02  0.1161362E+00
         -2   -1    0    0    0  501 -0.00000000000E+00  0.00000000000E+00  0.14820343564E+03  0.14820343564E+03  0.00000000000E+00 0.  1.
          2   -1    0    0  502    0  0.00000000000E+00 -0.00000000000E+00 -0.25780942925E+03  0.25780942925E+03  0.00000000000E+00 0. -1.
          6    2    1    2  502    0 -0.73932032580E+02 -0.84048727922E+01 -0.11439704989E+03  0.21865733875E+03  0.17084425492E+03 0.  0.
         24    2    3    3    0    0 -0.80008296884E+02  0.46474091770E+02 -0.10806218877E+03  0.16288241424E+03  0.79322603650E+02 0.  0.
         -6    2    1    2    0  501  0.73932032580E+02  0.84048727922E+01  0.47910562795E+01  0.18735552614E+03  0.17187946831E+03 0.  0.
        -24    2    5    5    0    0  0.14312107013E+01  0.35653305772E+02 -0.41493780258E+02  0.97004973477E+02  0.80093848094E+02 0.  0.
          5    1    3    3  502    0  0.60762643042E+01 -0.54878964562E+02 -0.63348611143E+01  0.55774924515E+02  0.47000000000E+01 0. -1.
        -13    1    4    4    0    0 -0.94455930115E+02  0.29758308780E+02 -0.80949228819E+02  0.12790722154E+03  0.00000000000E+00 0.  1.
         14    1    4    4    0    0  0.14447633231E+02  0.16715782990E+02 -0.27112959956E+02  0.34975192701E+02  0.00000000000E+00 0. -1.
         -5    1    5    5    0  501  0.72500821878E+02 -0.27248432980E+02  0.46284836537E+02  0.90350552661E+02  0.47000000000E+01 0.  1.
         11    1    6    6    0    0  0.35156065780E+02  0.26560402788E+01 -0.34461902231E+02  0.49301381487E+02  0.00000000000E+00 0. -1.
        -12    1    6    6    0    0 -0.33724855079E+02  0.32997265493E+02 -0.70318780264E+01  0.47703591990E+02  0.00000000000E+00 0.  1.
</event>
<event>
12    1  0.2625820E-002  0.2243336E+03  0.7818608E-02  0.1130693E+00
          1   -1    0    0  502    0  0.00000000000E+00  0.00000000000E+00  0.96283487206E+02  0.96283487206E+02  0.00000000000E+00 0. -1.
         -1   -1    0    0    0  501 -0.00000000000E+00 -0.00000000000E+00 -0.58997824778E+03  0.58997824778E+03  0.00000000000E+00 0.  1.
          6    2    1    2  502    0  0.13187988199E+03 -0.53919119147E+02 -0.13028685241E+03  0.25882356466E+03  0.17238155072E+03 0.  0.
         24    2    3    3    0    0  0.11312950137E+03 -0.10068879600E+03 -0.11512713367E+03  0.20599472293E+03  0.79012981519E+02 0.  0.
         -6    2    1    2    0  501 -0.13187988199E+03  0.53919119147E+02 -0.36340790816E+03  0.42743817033E+03  0.17417952536E+03 0.  0.
        -24    2    5    5    0    0 -0.37691474236E+02 -0.16514160759E+02 -0.24306092969E+03  0.25909985531E+03  0.79754339988E+02 0.  0.
          5    1    3    3  502    0  0.18750380615E+02  0.46769676853E+02 -0.15159718748E+02  0.52828841731E+02  0.47000000000E+01 0. -1.
        -11    1    4    4    0    0  0.37558824510E+02 -0.41346656994E+02  0.23410671222E+00  0.55859342541E+02  0.00000000000E+00 0.  1.
         12    1    4    4    0    0  0.75570676863E+02 -0.59342139006E+02 -0.11536124038E+03  0.15013538039E+03  0.00000000000E+00 0. -1.
         -5    1    5    5    0  501 -0.94188407752E+02  0.70433279906E+02 -0.12034697847E+03  0.16833831501E+03  0.47000000000E+01 0.  1.
         13    1    6    6    0    0 -0.13651781994E+02  0.24761655812E+02 -0.32005493719E+02  0.42706701797E+02  0.00000000000E+00 0. -1.
        -14    1    6    6    0    0 -0.24039692241E+02 -0.41275816571E+02 -0.21105543597E+03  0.21639315352E+03  0.00000000000E+00 0.  1.
</event>
<event>
12    1  0.2625820E-002  0.1917844E+03  0.7818608E-02  0.1156862E+00
         -1   -1    0    0    0  501 -0.00000000000E+00  0.00000000000E+00  0.46616258396E+03  0.46616258396E+03  0.00000000000E+00 0. -1.
          1   -1    0    0  502    0  0.00000000000E+00 -0.00000000000E+00 -0.86752720366E+02  0.86752720366E+02  0.00000000000E+00 0.  1.
          6    2    1    2  502    0  0.66170473488E+02 -0.49316920991E+02  0.10486411154E+03  0.21691214291E+03  0.17100791092E+03 0.  0.
         24    2    3    3    0    0 -0.12045269881E+02 -0.20343061896E+02  0.10191295234E+03  0.13331796631E+03  0.82634748097E+02 0.  0.
         -6    2    1    2    0  501 -0.66170473488E+02  0.49316920991E+02  0.27454575206E+03  0.33600316141E+03  0.17524857845E+03 0.  0.
        -24    2    5    5    0    0 -0.93827135685E+02 -0.15557441227E+02  0.18161803714E+03  0.21925032831E+03  0.77717627868E+02 0.  0.
          5    1    3    3  502    0  0.78215743369E+02 -0.28973859095E+02  0.29511591983E+01  0.83594176605E+02  0.47000000000E+01 0. -1.
        -11    1    4    4    0    0 -0.19423412481E+02 -0.46334114312E+02  0.35208331057E+02  0.61349373895E+02  0.00000000000E+00 0.  1.
         12    1    4    4    0    0  0.73781425999E+01  0.25991052417E+02  0.66704621280E+02  0.71968592414E+02  0.00000000000E+00 0. -1.
         -5    1    5    5    0  501  0.27656662198E+02  0.64874362218E+02  0.92927714921E+02  0.11675283310E+03  0.47000000000E+01 0.  1.
         11    1    6    6    0    0 -0.61627270008E+02 -0.36964964568E+02  0.15892196891E+03  0.17441479644E+03  0.00000000000E+00 0. -1.
        -12    1    6    6    0    0 -0.32199865678E+02  0.21407523342E+02  0.22696068231E+02  0.44835531874E+02  0.00000000000E+00 0.  1.
</event>
<event>
12    1  0.2625820E-002  0.1973970E+03  0.7818608E-02  0.1151954E+00
         -3   -1    0    0    0  501 -0.00000000000E+00  0.00000000000E+00  0.53828536852E+02  0.53828536852E+02  0.00000000000E+00 0.  1.
          3   -1    0    0  502    0  0.00000000000E+00 -0.00000000000E+00 -0.78403939701E+03  0.78403939701E+03  0.00000000000E+00 0. -1.
          6    2    1    2  502    0 -0.61113533194E+02 -0.79311190979E+02 -0.24537420358E+03  0.31354292938E+03  0.16755757167E+03 0.  0.
         24    2    3    3    0    0 -0.84489940909E+01 -0.86499669705E+02 -0.22890999344E+03  0.25770039970E+03  0.80350062515E+02 0.  0.
         -6    2    1    2    0  501  0.61113533194E+02  0.79311190979E+02 -0.48483665658E+03  0.52432500449E+03  0.17269915407E+03 0.  0.
        -24    2    5    5    0    0 -0.19463431085E+02  0.91652365208E+02 -0.25194798040E+03  0.27753728752E+03  0.69066489260E+02 0.  0.
          5    1    3    3  502    0 -0.52664539103E+02  0.71884787258E+01 -0.16464210137E+02  0.55842529677E+02  0.47000000000E+01 0. -1.
        -11    1    4    4    0    0 -0.20698396499E+01 -0.50197505335E+02 -0.37287894043E+02  0.62565652081E+02  0.00000000000E+00 0.  1.
         12    1    4    4    0    0 -0.63791544410E+01 -0.36302164369E+02 -0.19162209940E+03  0.19513474762E+03  0.00000000000E+00 0. -1.
         -5    1    5    5    0  501  0.80576964278E+02 -0.12341174230E+02 -0.23288867618E+03  0.24678771697E+03  0.47000000000E+01 0.  1.
         13    1    6    6    0    0  0.62876426253E+01  0.51896100069E+02 -0.20218948950E+03  0.20883804567E+03  0.00000000000E+00 0. -1.
        -14    1    6    6    0    0 -0.25751073710E+02  0.39756265139E+02 -0.49758490898E+02  0.68699241855E+02  0.00000000000E+00 0.  1.
</event>
<event>
12    1  0.2625820E-002  0.2371736E+03  0.7818608E-02  0.1121690E+00
         -2   -1    0    0    0  501 -0.00000000000E+00  0.00000000000E+00  0.30753228941E+03  0.30753228941E+03  0.00000000000E+00 0. -1.
          2   -1    0    0  502    0  0.00000000000E+00 -0.00000000000E+00 -0.19296720782E+03  0.19296720782E+03  0.00000000000E+00 0.  1.
          6    2    1    2  502    0 -0.11071999544E+03 -0.12018409153E+03  0.11431978322E+03  0.26294720981E+03  0.17137412018E+03 0.  0.
         24    2    3    3    0    0 -0.10709012665E+03 -0.14647711060E+03  0.69729707092E+02  0.21084285598E+03  0.81661733455E+02 0.  0.
         -6    2    1    2    0  501  0.11071999544E+03  0.12018409153E+03  0.24529838042E+00  0.23755228742E+03  0.17241779444E+03 0.  0.
        -24    2    5    5    0    0  0.12553101563E+03  0.40658956248E+02  0.15409139974E+02  0.15511658185E+03  0.80078247742E+02 0.  0.
          5    1    3    3  502    0 -0.36298687859E+01  0.26293019072E+02  0.44590076127E+02  0.52104353833E+02  0.47000000000E+01 0. -1.
        -13    1    4    4    0    0 -0.53787375505E+02 -0.56887412611E+02 -0.10910619779E+02  0.79046195995E+02  0.00000000000E+00 0.  1.
         14    1    4    4    0    0 -0.53302751146E+02 -0.89589697987E+02  0.80640326870E+02  0.13179665998E+03  0.00000000000E+00 0. -1.
         -5    1    5    5    0  501 -0.14811020196E+02  0.79525135279E+02 -0.15163841593E+02  0.82435705567E+02  0.47000000000E+01 0.  1.
         13    1    6    6    0    0  0.16087183114E+02 -0.22668378213E+02  0.55462196613E+00  0.27802166047E+02  0.00000000000E+00 0. -1.
        -14    1    6    6    0    0  0.10944383252E+03  0.63327334461E+02  0.14854518007E+02  0.12731441580E+03  0.00000000000E+00 0.  1.
</event>
<event>
12    1  0.2625820E-002  0.1716364E+03  0.7818608E-02  0.1176152E+00
         -2   -1    0    0    0  501 -0.00000000000E+00  0.00000000000E+00  0.35089313550E+02  0.35089313550E+02  0.00000000000E+00 0.  1.
          2   -1    0    0  502    0  0.00000000000E+00 -0.00000000000E+00 -0.12792944777E+04  0.12792944777E+04  0.00000000000E+00 0. -1.
          6    2    1    2  502    0  0.27022890198E+02 -0.52411890431E+02 -0.21520975716E+03  0.26948011268E+03  0.15108622935E+03 0.  0.
         24    2    3    3    0    0  0.20195806080E+02 -0.89880161607E+02 -0.19253318904E+03  0.22490660974E+03  0.70905854403E+02 0.  0.
         -6    2    1    2    0  501 -0.27022890198E+02  0.52411890431E+02 -0.10289954070E+04  0.10449036785E+04  0.17179903094E+03 0.  0.
        -24    2    5    5    0    0  0.44566700328E+02  0.50924353390E+02 -0.47497448898E+03  0.48625481763E+03  0.79142289205E+02 0.  0.
          5    1    3    3  502    0  0.68270841172E+01  0.37468271176E+02 -0.22676568116E+02  0.44573502936E+02  0.47000000000E+01 0. -1.
        -11    1    4    4    0    0  0.12418460540E+02 -0.91666828954E+02 -0.11794835029E+03  0.14989609411E+03  0.00000000000E+00 0.  1.
         12    1    4    4    0    0  0.77773455400E+01  0.17866673470E+01 -0.74584838751E+02  0.75010515632E+02  0.00000000000E+00 0. -1.
         -5    1    5    5    0  501 -0.71589590525E+02  0.14875370415E+01 -0.55402091798E+03  0.55864886092E+03  0.47000000000E+01 0.  1.
         11    1    6    6    0    0  0.16944564275E+01 -0.18421270437E+02 -0.15318752442E+03  0.15430046023E+03  0.00000000000E+00 0. -1.
        -12    1    6    6    0    0  0.42872243900E+02  0.69345623827E+02 -0.32178696456E+03  0.33195435741E+03  0.00000000000E+00 0.  1.
</event>
<event>
12    1  0.2625820E-002  0.1925877E+03  0.7818608E-02  0.1156148E+00
          2   -1    0    0  502    0  0.00000000000E+00  0.00000000000E+00  0.27845657243E+04  0.27845657243E+04  0.00000000000E+00 0. -1.
         -2   -1    0    0    0  501 -0.00000000000E+00 -0.00000000000E+00 -0.13418739217E+02  0.13418739217E+02  0.00000000000E+00 0.  1.
          6    2    1    2  502    0  0.81742116610E+02  0.32555375503E+02  0.15095420321E+04  0.15218477664E+04  0.17193560281E+03 0.  0.
         24    2    3    3    0    0  0.10828441758E+03 -0.26309587555E+01  0.13292448451E+04  0.13361821060E+04  0.82209032101E+02 0.  0.
         -6    2    1    2    0  501 -0.81742116610E+02 -0.32555375503E+02  0.12616049530E+04  0.12761366971E+04  0.17069325140E+03 0.  0.
        -24    2    5    5    0    0 -0.41386938057E+02 -0.50636688052E+02  0.11705899201E+04  0.11748386196E+04  0.75419281880E+02 0.  0.
          5    1    3    3  502    0 -0.26542300970E+02  0.35186334258E+02  0.18029718693E+03  0.18566566046E+03  0.47000000000E+01 0. -1.
        -11    1    4    4    0    0  0.10656572104E+03 -0.10610242283E+02  0.83122269923E+03  0.83809307709E+03  0.00000000000E+00 0.  1.
         12    1    4    4    0    0  0.17186965431E+01  0.79792835273E+01  0.49802214590E+03  0.49808902888E+03  0.00000000000E+00 0. -1.
         -5    1    5    5    0  501 -0.40355178553E+02  0.18081312550E+02  0.91015032899E+02  0.10129807754E+03  0.47000000000E+01 0.  1.
         11    1    6    6    0    0 -0.41692899397E+02 -0.32512952492E+02  0.11173001096E+04  0.11185503675E+04  0.00000000000E+00 0. -1.
        -12    1    6    6    0    0  0.30596133987E+00 -0.18123735560E+02  0.53289810596E+02  0.56288252028E+02  0.00000000000E+00 0.  1.
</event>
<event>
12    1  0.2625820E-002  0.1773555E+03  0.7818608E-02  0.1170387E+00
         -3   -1    0    0    0  501 -0.00000000000E+00  0.00000000000E+00  0.49025609768E+02  0.49025609768E+02  0.00000000000E+00 0.  1.
          3   -1    0    0  502    0  0.00000000000E+00 -0.00000000000E+00 -0.71850683672E+03  0.71850683672E+03  0.00000000000E+00 0. -1.
          6    2    1    2  502    0 -0.82128730213E+01  0.43740676233E+02 -0.46166324744E+03  0.49485372773E+03  0.17252988081E+03 0.  0.
         24    2    3    3    0    0 -0.38108754698E+02  0.25401047221E+02 -0.11952900527E+03  0.15089437635E+03  0.79902686628E+02 0.  0.
         -6    2    1    2    0  501  0.82128730213E+01 -0.43740676233E+02 -0.20781797951E+03  0.27267871876E+03  0.17083522182E+03 0.  0.
        -24    2    5    5    0    0 -0.30187257343E+02  0.26519517965E+02 -0.14773860484E+03  0.17246551523E+03  0.79392085523E+02 0.  0.
          5    1    3    3  502    0  0.29895881677E+02  0.18339629012E+02 -0.34213424217E+03  0.34395935138E+03  0.47000000000E+01 0. -1.
        -11    1    4    4    0    0  0.16511276091E+02  0.14282829009E+02 -0.34186232077E+01  0.22097701855E+02  0.00000000000E+00 0.  1.
         12    1    4    4    0    0 -0.54620030789E+02  0.11118218212E+02 -0.11611038206E+03  0.12879667450E+03  0.00000000000E+00 0. -1.
         -5    1    5    5    0  501  0.38400130364E+02 -0.70260194198E+02 -0.60079374675E+02  0.10021320353E+03  0.47000000000E+01 0.  1.
         11    1    6    6    0    0 -0.30517781887E+02  0.28781565147E+01 -0.93151611978E+01  0.32037337972E+02  0.00000000000E+00 0. -1.
        -12    1    6    6    0    0  0.33052454362E+00  0.23641361451E+02 -0.13842344364E+03  0.14042817725E+03  0.00000000000E+00 0.  1.
</event>
<event>
12    1  0.2625820E-002  0.2036247E+03  0.7818608E-02  0.1146716E+00
          1   -1    0    0  502    0  0.00000000000E+00  0.00000000000E+00  0.47378520385E+03  0.47378520385E+03  0.00000000000E+00 0. -1.
         -1   -1    0    0    0  501 -0.00000000000E+00 -0.00000000000E+00 -0.90010357506E+02  0.90010357506E+02  0.00000000000E+00 0.  1.
          6    2    1    2  502    0 -0.38400216259E+02  0.10199018492E+03  0.14461795147E+03  0.24946150764E+03  0.17158122706E+03 0.  0.
         24    2    3    3    0    0 -0.15043717280E+02  0.13379605860E+03  0.13891806033E+03  0.20931529481E+03  0.79918498676E+02 0.  0.
         -6    2    1    2    0  501  0.38400216259E+02 -0.10199018492E+03  0.23915689487E+03  0.31433405371E+03  0.17243347277E+03 0.  0.
        -24    2    5    5    0    0  0.48911848468E+01 -0.73893015210E+02  0.24471726851E+03  0.27000219286E+03  0.86778691248E+02 0.  0.
          5    1    3    3  502    0 -0.23356498980E+02 -0.31805873683E+02  0.56998911430E+01  0.40146212828E+02  0.47000000000E+01 0. -1.
        -11    1    4    4    0    0 -0.39257667788E+02  0.12147406503E+03  0.10160264702E+03  0.16315701284E+03  0.00000000000E+00 0.  1.
         12    1    4    4    0    0  0.24213950509E+02  0.12321993567E+02  0.37315413311E+02  0.46158281979E+02  0.00000000000E+00 0. -1.
         -5    1    5    5    0  501  0.33509031412E+02 -0.28097169709E+02 -0.55603736399E+01  0.44331860855E+02  0.47000000000E+01 0.  1.
         11    1    6    6    0    0  0.45478533443E+02 -0.46873206340E+02  0.14213528923E+03  0.15642197710E+03  0.00000000000E+00 0. -1.
        -12    1    6    6    0    0 -0.40587348597E+02 -0.27019808870E+02  0.10258197929E+03  0.11358021576E+03  0.00000000000E+00 0.  1.
</event>
<event>
12    1  0.2625820E-002  0.5242319E+03  0.7818608E-02  0.1007641E+00
         -2   -1    0    0    0  501 -0.00000000000E+00  0.00000000000E+00  0.27815776318E+03  0.27815776318E+03  0.00000000000E+00 0. -1.
          2   -1    0    0  502    0  0.00000000000E+00 -0.00000000000E+00 -0.13974456830E+04  0.13974456830E+04  0.00000000000E+00 0.  1.
          6    2    1    2  502    0  0.49261940193E+03  0.47358445927E+02 -0.10636039619E+03  0.53518832106E+03  0.17377372516E+03 0.  0.
         24    2    3    3    0    0  0.47587898293E+03  0.74017086518E+02 -0.11615213101E+03  0.50188827875E+03  0.80381535932E+02 0.  0.
         -6    2    1    2    0  501 -0.49261940193E+03 -0.47358445927E+02 -0.10129275236E+04  0.11404151251E+04  0.17206914862E+03 0.  0.
        -24    2    5    5    0    0 -0.20726794598E+03 -0.51248290608E+02 -0.34134708789E+03  0.41070082762E+03  0.81061375977E+02 0.  0.
          5    1    3    3  502    0  0.16740419005E+02 -0.26658640591E+02  0.97917348275E+01  0.33300042306E+02  0.47000000000E+01 0. -1.
        -13    1    4    4    0    0  0.21187894441E+03  0.35357766874E+02 -0.92979011010E+02  0.23406827049E+03  0.00000000000E+00 0.  1.
         14    1    4    4    0    0  0.26400003852E+03  0.38659319644E+02 -0.23173120004E+02  0.26782000826E+03  0.00000000000E+00 0. -1.
         -5    1    5    5    0  501 -0.28535145596E+03  0.38898446809E+01 -0.67158043573E+03  0.72971429749E+03  0.47000000000E+01 0.  1.
         11    1    6    6    0    0 -0.10746643672E+03  0.15095867524E+02 -0.16473105783E+03  0.19726439530E+03  0.00000000000E+00 0. -1.
        -12    1    6    6    0    0 -0.99801509252E+02 -0.66344158132E+02 -0.17661603006E+03  0.21343643232E+03  0.00000000000E+00 0.  1.
</event>
<event>
12    1  0.2625820E-002  0.1791139E+03  0.7818608E-02  0.1168663E+00
         -4   -1    0    0    0  501 -0.00000000000E+00  0.00000000000E+00  0.69441245580E+02  0.69441245580E+02  0.00000000000E+00 0.  1.
          4   -1    0    0  502    0  0.00000000000E+00 -0.00000000000E+00 -0.48278191053E+03  0.48278191053E+03  0.00000000000E+00 0. -1.
          6    2    1    2  502    0 -0.26089961264E+02  0.22222173478E+02 -0.13777783665E+03  0.21504565548E+03  0.16151591437E+03 0.  0.
         24    2    3    3    0    0  0.14418409010E+02 -0.15447485769E+02 -0.26553993179E+02  0.90736505990E+02  0.84151551564E+02 0.  0.
         -6    2    1    2    0  501  0.26089961264E+02 -0.22222173478E+02 -0.27556282830E+03  0.33717750063E+03  0.19125711364E+03 0.  0.
        -24    2    5    5    0    0 -0.83653134650E+01 -0.51506541724E+02 -0.71583355081E+02  0.12819315750E+03  0.92662865241E+02 0.  0.
          5    1    3    3  502    0 -0.40508370274E+02  0.37669659247E+02 -0.11122384347E+03  0.12430914949E+03  0.47000000000E+01 0. -1.
        -13    1    4    4    0    0 -0.20597319700E+02 -0.33672533204E+02  0.55424323552E+01  0.39859849819E+02  0.00000000000E+00 0.  1.
         14    1    4    4    0    0  0.35015728710E+02  0.18225047435E+02 -0.32096425534E+02  0.50876656171E+02  0.00000000000E+00 0. -1.
         -5    1    5    5    0  501  0.34455274729E+02  0.29284368246E+02 -0.20397947322E+03  0.20898434314E+03  0.47000000000E+01 0.  1.
         13    1    6    6    0    0 -0.38063112452E+01  0.98091800508E+01 -0.65576730639E+02  0.66415477262E+02  0.00000000000E+00 0. -1.
        -14    1    6    6    0    0 -0.45590022198E+01 -0.61315721775E+02 -0.60066244412E+01  0.61777680235E+02  0.00000000000E+00 0.  1.
</event>
<event>
12    1  0.2625820E-002  0.2223766E+03  0.7818608E-02  0.1132124E+00
          2   -1    0    0  502    0  0.00000000000E+00  0.00000000000E+00  0.24872580323E+04  0.24872580323E+04  0.00000000000E+00 0.  1.
         -2   -1    0    0    0  501 -0.00000000000E+00 -0.00000000000E+00 -0.21850364948E+02  0.21850364948E+02  0.00000000000E+00 0. -1.
          6    2    1    2  502    0 -0.33516769775E+01  0.13988687603E+03  0.16074316618E+04  0.16226914679E+04  0.17237018550E+03 0.  0.
         24    2    3    3    0    0 -0.31652985809E+02  0.16438313417E+03  0.13276007299E+04  0.13403291631E+04  0.77037919542E+02 0.  0.
         -6    2    1    2    0  501  0.33516769775E+01 -0.13988687603E+03  0.85797600558E+03  0.88641692936E+03  0.17329909028E+03 0.  0.
        -24    2    5    5    0    0  0.69014707430E+02 -0.90457081625E+02  0.49392493501E+03  0.51317409939E+03  0.80251488488E+02 0.  0.
          5    1    3    3  502    0  0.28301308832E+02 -0.24496258137E+02  0.27983093187E+03  0.28236230481E+03  0.47000000000E+01 0. -1.
        -11    1    4    4    0    0 -0.33084167235E+02  0.17573417842E+02  0.26977862113E+03  0.27236719985E+03  0.00000000000E+00 0.  1.
         12    1    4    4    0    0  0.14311814254E+01  0.14680971633E+03  0.10578221088E+04  0.10679619633E+04  0.00000000000E+00 0. -1.
         -5    1    5    5    0  501 -0.65663030453E+02 -0.49429794405E+02  0.36405107057E+03  0.37324282997E+03  0.47000000000E+01 0.  1.
         13    1    6    6    0    0  0.33726910526E+02 -0.93131021218E+02  0.29662709494E+03  0.31272755725E+03  0.00000000000E+00 0. -1.
        -14    1    6    6    0    0  0.35287796905E+02  0.26739395925E+01  0.19729784006E+03  0.20044654214E+03  0.00000000000E+00 0.  1.
</event>
<event>
12    1  0.2625820E-002  0.2225213E+03  0.7818608E-02  0.1132017E+00
         -2   -1    0    0    0  501 -0.00000000000E+00  0.00000000000E+00  0.26357252629E+03  0.26357252629E+03  0.00000000000E+00 0. -1.
          2   -1    0    0  502    0  0.00000000000E+00 -0.00000000000E+00 -0.19269729327E+03  0.19269729327E+03  0.00000000000E+00 0.  1.
          6    2    1    2  502    0  0.42855082343E+02  0.13370703700E+03 -0.77264269705E+00  0.22198834791E+03  0.17194214087E+03 0.  0.
         24    2    3    3    0    0  0.84139083590E+02  0.49429732121E+02 -0.13513520807E+02  0.12716507624E+03  0.80409312674E+02 0.  0.
         -6    2    1    2    0  501 -0.42855082343E+02 -0.13370703700E+03  0.71647875716E+02  0.23428147165E+03  0.17332126252E+03 0.  0.
        -24    2    5    5    0    0 -0.44974150895E+02 -0.75066103821E+02  0.11200237271E+03  0.16291043465E+03  0.79609572500E+02 0.  0.
          5    1    3    3  502    0 -0.41284001247E+02  0.84277304874E+02  0.12740878110E+02  0.94823271673E+02  0.47000000000E+01 0. -1.
        -13    1    4    4    0    0  0.98445087857E+02  0.52849119652E+02 -0.12178310446E+02  0.11239562276E+03  0.00000000000E+00 0.  1.
         14    1    4    4    0    0 -0.14306004267E+02 -0.34193875308E+01 -0.13352103611E+01  0.14769453473E+02  0.00000000000E+00 0. -1.
         -5    1    5    5    0  501  0.21190685519E+01 -0.58640933174E+02 -0.40354496995E+02  0.71371037002E+02  0.47000000000E+01 0.  1.
         11    1    6    6    0    0 -0.45886195316E+02 -0.14034633020E+02  0.81736042478E+02  0.94780243113E+02  0.00000000000E+00 0. -1.
        -12    1    6    6    0    0  0.91204442140E+00 -0.61031470802E+02  0.30266330233E+02  0.68130191538E+02  0.00000000000E+00 0.  1.
</event>
<event>
12    1  0.2625820E-002  0.1875068E+03  0.7818608E-02  0.1160729E+00
          1   -1    0    0  502    0  0.00000000000E+00  0.00000000000E+00  0.16658297405E+04  0.16658297405E+04  0.00000000000E+00 0.  1.
         -1   -1    0    0    0  501 -0.00000000000E+00 -0.00000000000E+00 -0.21121152417E+02  0.21121152417E+02  0.00000000000E+00 0. -1.
          6    2    1    2  502    0  0.24099564824E+02  0.71719125255E+02  0.79993129606E+03  0.82162675443E+03  0.17162757127E+03 0.  0.
         24    2    3    3    0    0 -0.29574386091E+02  0.15400294331E+01  0.54587095661E+03  0.55260120810E+03  0.80721607483E+02 0.  0.
         -6    2    1    2    0  501 -0.24099564824E+02 -0.71719125255E+02  0.84477729206E+03  0.86532413853E+03  0.17150151483E+03 0.  0.
        -24    2    5    5    0    0 -0.33119103223E+02 -0.51797647931E+02  0.23807336551E+03  0.25820803610E+03  0.78819992475E+02 0.  0.
          5    1    3    3  502    0  0.53673950915E+02  0.70179095821E+02  0.25406033945E+03  0.26902554633E+03  0.47000000000E+01 0. -1.
        -13    1    4    4    0    0 -0.51231366626E+02  0.22393798866E+02  0.35195119821E+03  0.35636467428E+03  0.00000000000E+00 0.  1.
         14    1    4    4    0    0  0.21656980535E+02 -0.20853769433E+02  0.19391975840E+03  0.19623653381E+03  0.00000000000E+00 0. -1.
         -5    1    5    5    0  501  0.90195383994E+01 -0.19921477323E+02  0.60670392655E+03  0.60711610243E+03  0.47000000000E+01 0.  1.
         11    1    6    6    0    0 -0.39054616089E+01 -0.38289657243E+02  0.21546505427E+03  0.21887562700E+03  0.00000000000E+00 0. -1.
        -12    1    6    6    0    0 -0.29213641614E+02 -0.13507990688E+02  0.22608311235E+02  0.39332409101E+02  0.00000000000E+00 0.  1.
</event>
<event>
12    1  0.2625820E-002  0.1788584E+03  0.7818608E-02  0.1168912E+00
          2   -1    0    0  502    0  0.00000000000E+00  0.00000000000E+00  0.57004627647E+03  0.57004627647E+03  0.00000000000E+00 0. -1.
         -2   -1    0    0    0  501 -0.00000000000E+00 -0.00000000000E+00 -0.56135472040E+02  0.56135472040E+02  0.00000000000E+00 0.  1.
          6    2    1    2  502    0  0.44041217449E+02 -0.26557033392E+02  0.25986754383E+03  0.31471076756E+03  0.16990238971E+03 0.  0.
         24    2    3    3    0    0  0.10503522900E+01  0.24511168828E+02  0.56993437301E+02  0.10108453120E+03  0.79799310242E+02 0.  0.
         -6    2    1    2    0  501 -0.44041217449E+02  0.26557033392E+02  0.25404326060E+03  0.31147098095E+03  0.17271736698E+03 0.  0.
        -24    2    5    5    0    0 -0.38116070457E+02  0.69005041187E+02  0.24324000333E+03  0.26702167161E+03  0.76943767478E+02 0.  0.
          5    1    3    3  502    0  0.42990865159E+02 -0.51068202220E+02  0.20287410653E+03  0.21362623637E+03  0.47000000000E+01 0. -1.
        -11    1    4    4    0    0  0.10679890015E+01  0.31725646128E+02 -0.10325025878E+02  0.33380583909E+02  0.00000000000E+00 0.  1.
         12    1    4    4    0    0 -0.17636711511E-01 -0.72144772997E+01  0.67318463180E+02  0.67703947290E+02  0.00000000000E+00 0. -1.
         -5    1    5    5    0  501 -0.59251469916E+01 -0.42448007795E+02  0.10803257273E+02  0.44449309335E+02  0.47000000000E+01 0.  1.
         13    1    6    6    0    0 -0.29464548132E+02  0.39417754083E+01  0.15048212027E+03  0.15339023995E+03  0.00000000000E+00 0. -1.
        -14    1    6    6    0    0 -0.86515223252E+01  0.65063265778E+02  0.92757883060E+02  0.11363143166E+03  0.00000000000E+00 0.  1.
</event>
<event>
12    1  0.2625820E-002  0.2244450E+03  0.7818608E-02  0.1130612E+00
         -2   -1    0    0    0  501 -0.00000000000E+00  0.00000000000E+00  0.77709463649E+02  0.77709463649E+02  0.00000000000E+00 0.  1.
          2   -1    0    0  502    0  0.00000000000E+00 -0.00000000000E+00 -0.64848972513E+03  0.64848972513E+03  0.00000000000E+00 0. -1.
          6    2    1    2  502    0  0.14421069176E+03 -0.10448935092E+02 -0.29234916052E+03  0.36859314311E+03  0.17171770330E+03 0.  0.
         24    2    3    3    0    0  0.14764374246E+03 -0.25233068105E+02 -0.15308743225E+03  0.22842797131E+03  0.79424138310E+02 0.  0.
         -6    2    1    2    0  501 -0.14421069176E+03  0.10448935092E+02 -0.27843110096E+03  0.35760604567E+03  0.17161673012E+03 0.  0.
        -24    2    5    5    0    0 -0.80575121475E+02  0.71569100754E+02 -0.18498927805E+03  0.22900346123E+03  0.81283859887E+02 0.  0.
          5    1    3    3  502    0 -0.34330507034E+01  0.14784133013E+02 -0.13926172827E+03  0.14016517181E+03  0.47000000000E+01 0.  1.
        -11    1    4    4    0    0  0.15425283527E+03 -0.14898165084E+02 -0.12997095705E+03  0.20225810784E+03  0.00000000000E+00 0.  1.
         12    1    4    4    0    0 -0.66090928003E+01 -0.10334903021E+02 -0.23116475201E+02  0.26169863466E+02  0.00000000000E+00 0. -1.
         -5    1    5    5    0  501 -0.63635570286E+02 -0.61120165662E+02 -0.93441822912E+02  0.12860258444E+03  0.47000000000E+01 0.  1.
         11    1    6    6    0    0 -0.15499710157E+02 -0.18049989756E+02 -0.40182173533E+02  0.46697432638E+02  0.00000000000E+00 0. -1.
        -12    1    6    6    0    0 -0.65075411318E+02  0.89619090510E+02 -0.14480710452E+03  0.18230602859E+03  0.00000000000E+00 0.  1.
</event>
<event>
12    1  0.2625820E-002  0.1932362E+03  0.7818608E-02  0.1155574E+00
          1   -1    0    0  502    0  0.00000000000E+00  0.00000000000E+00  0.62541792882E+02  0.62541792882E+02  0.00000000000E+00 0. -1.
         -1   -1    0    0    0  501 -0.00000000000E+00 -0.00000000000E+00 -0.61117748221E+03  0.61117748221E+03  0.00000000000E+00 0.  1.
          6    2    1    2  502    0  0.50317288731E+02  0.72270952792E+02 -0.22278620520E+03  0.29476792991E+03  0.17175424045E+03 0.  0.
         24    2    3    3    0    0  0.80215444522E+02  0.96795340797E+02 -0.20152177618E+03  0.25038762720E+03  0.79240659018E+02 0.  0.
         -6    2    1    2    0  501 -0.50317288731E+02 -0.72270952792E+02 -0.32584948413E+03  0.37895134518E+03  0.17225363725E+03 0.  0.
        -24    2    5    5    0    0  0.21507186155E+02 -0.85048999867E+02 -0.18222725874E+03  0.21779469064E+03  0.80819935696E+02 0.  0.
          5    1    3    3  502    0 -0.29898155791E+02 -0.24524388005E+02 -0.21264429021E+02  0.44380302706E+02  0.47000000000E+01 0. -1.
        -13    1    4    4    0    0  0.43745998307E+02 -0.14873259391E+01 -0.59815146405E+02  0.74120012451E+02  0.00000000000E+00 0.  1.
         14    1    4    4    0    0  0.36469446216E+02  0.98282666736E+02 -0.14170662977E+03  0.17626761475E+03  0.00000000000E+00 0. -1.
         -5    1    5    5    0  501 -0.71824474887E+02  0.12778047075E+02 -0.14362222539E+03  0.16115665455E+03  0.47000000000E+01 0.  1.
         13    1    6    6    0    0  0.23599386537E+02 -0.19333603849E+02 -0.79485232466E+01  0.31526152707E+02  0.00000000000E+00 0. -1.
        -14    1    6    6    0    0 -0.20922003817E+01 -0.65715396018E+02 -0.17427873549E+03  0.18626853793E+03  0.00000000000E+00 0.  1.
</event>
<event>
12    1  0.2625820E-002  0.2560523E+03  0.7818608E-02  0.1109539E+00
          2   -1    0    0  502    0  0.00000000000E+00  0.00000000000E+00  0.16318137978E+04  0.16318137978E+04  0.00000000000E+00 0. -1.
         -2   -1    0    0    0  501 -0.00000000000E+00 -0.00000000000E+00 -0.41861037214E+02  0.41861037214E+02  0.00000000000E+00 0.  1.
          6    2    1    2  502    0  0.10059097479E+03 -0.16161045386E+03  0.62991654483E+03  0.68031331328E+03  0.17261189927E+03 0.  0.
         24    2    3    3    0    0  0.69916181817E+02 -0.18867208732E+03  0.53420867961E+03  0.57612425246E+03  0.77812671793E+02 0.  0.
         -6    2    1    2    0  501 -0.10059097479E+03  0.16161045386E+03  0.96003621573E+03  0.99336152171E+03  0.16988553290E+03 0.  0.
        -24    2    5    5    0    0 -0.61632158352E+02  0.34165945186E+02  0.60702163152E+03  0.61600058198E+03  0.77560435190E+02 0.  0.
          5    1    3    3  502    0  0.30674792968E+02  0.27061633458E+02  0.95707865223E+02  0.10418906082E+03  0.47000000000E+01 0. -1.
        -13    1    4    4    0    0 -0.10884681234E+02 -0.27858821515E+01  0.14894079341E+02  0.18656661661E+02  0.00000000000E+00 0.  1.
         14    1    4    4    0    0  0.80800863051E+02 -0.18588620517E+03  0.51931460027E+03  0.55746759080E+03  0.00000000000E+00 0. -1.
         -5    1    5    5    0  501 -0.38958816434E+02  0.12744450868E+03  0.35301458421E+03  0.37736093973E+03  0.47000000000E+01 0.  1.
         13    1    6    6    0    0  0.16870480881E+02  0.15711715125E+02  0.17558310834E+03  0.17709008739E+03  0.00000000000E+00 0. -1.
        -14    1    6    6    0    0 -0.78502639232E+02  0.18454230061E+02  0.43143852319E+03  0.43891049459E+03  0.00000000000E+00 0.  1.
</event>
<event>
12    1  0.2625820E-002  0.1864999E+03  0.7818608E-02  0.1161657E+00
         -2   -1    0    0    0  501 -0.00000000000E+00  0.00000000000E+00  0.11859670928E+03  0.11859670928E+03  0.00000000000E+00 0. -1.
          2   -1    0    0  502    0  0.00000000000E+00 -0.00000000000E+00 -0.30914553714E+03  0.30914553714E+03  0.00000000000E+00 0.  1.
          6    2    1    2  502    0 -0.68284957675E+02  0.24685865707E+02 -0.46498331777E+02  0.19154149519E+03  0.17103748745E+03 0.  0.
         24    2    3    3    0    0  0.33245489268E+01  0.51772348652E+02 -0.61602661927E+02  0.11336330269E+03  0.79780459568E+02 0.  0.
         -6    2    1    2    0  501  0.68284957675E+02 -0.24685865707E+02 -0.14405049608E+03  0.23620075124E+03  0.17253411852E+03 0.  0.
        -24    2    5    5    0    0  0.93801397849E+02  0.23115800660E+02 -0.69005410593E+02  0.14351880649E+03  0.80640304102E+02 0.  0.
          5    1    3    3  502    0 -0.71609506602E+02 -0.27086482945E+02  0.15104330150E+02  0.78178192505E+02  0.47000000000E+01 0. -1.
        -13    1    4    4    0    0 -0.43814221298E+01  0.23476886702E+02  0.17100990139E+02  0.29373541374E+02  0.00000000000E+00 0.  1.
         14    1    4    4    0    0  0.77059710565E+01  0.28295461949E+02 -0.78703652065E+02  0.83989761312E+02  0.00000000000E+00 0. -1.
         -5    1    5    5    0  501 -0.25516440174E+02 -0.47801666367E+02 -0.75045085488E+02  0.92681944749E+02  0.47000000000E+01 0.  1.
         13    1    6    6    0    0  0.49496092195E+02  0.45946735032E+02 -0.64643201894E+02  0.93486411599E+02  0.00000000000E+00 0. -1.
        -14    1    6    6    0    0  0.44305305655E+02 -0.22830934372E+02 -0.43622086983E+01  0.50032394887E+02  0.00000000000E+00 0.  1.
</event>
<event>
12    1  0.2625820E-002  0.3518290E+03  0.7818608E-02  0.1061867E+00
          2   -1    0    0  502    0  0.00000000000E+00  0.00000000000E+00  0.14586325222E+04  0.14586325222E+04  0.00000000000E+00 0. -1.
         -2   -1    0    0    0  501 -0.00000000000E+00 -0.00000000000E+00 -0.16619425766E+03  0.16619425766E+03  0.00000000000E+00 0.  1.
          6    2    1    2  502    0  0.28740352622E+03  0.10724396743E+03  0.12145620554E+04  0.12644985019E+04  0.17231778629E+03 0.  0.
         24    2    3    3    0    0  0.22311083277E+03  0.10817770575E+03  0.71657695910E+03  0.76235741772E+03  0.78901421474E+02 0.  0.
         -6    2    1    2    0  501 -0.28740352622E+03 -0.10724396743E+03  0.77876209219E+02  0.36032827804E+03  0.17224897259E+03 0.  0.
        -24    2    5    5    0    0 -0.75298303012E+02 -0.80625649361E+02  0.10572584501E+02  0.13616532733E+03  0.79113128201E+02 0.  0.
          5    1    3    3  502    0  0.64292693447E+02 -0.93373831406E+00  0.49798509626E+03  0.50214108416E+03  0.47000000000E+01 0. -1.
        -13    1    4    4    0    0  0.43449790603E+02  0.55110547586E+02  0.14981561323E+03  0.16543812960E+03  0.00000000000E+00 0.  1.
         14    1    4    4    0    0  0.17966104217E+03  0.53067158160E+02  0.56676134588E+03  0.59691928812E+03  0.00000000000E+00 0. -1.
         -5    1    5    5    0  501 -0.21210522320E+03 -0.26618318072E+02  0.67303624719E+02  0.22416295070E+03  0.47000000000E+01 0.  1.
         13    1    6    6    0    0 -0.15637502736E+02  0.15635253540E+02 -0.20795052833E+01  0.22210740359E+02  0.00000000000E+00 0. -1.
        -14    1    6    6    0    0 -0.59660800276E+02 -0.96260902900E+02  0.12652089784E+02  0.11395458697E+03  0.00000000000E+00 0.  1.
</event>
<event>
12    1  0.2625820E-002  0.2140162E+03  0.7818608E-02  0.1138425E+00
         -2   -1    0    0    0  501 -0.00000000000E+00  0.00000000000E+00  0.21114974171E+03  0.21114974171E+03  0.00000000000E+00 0. -1.
          2   -1    0    0  502    0  0.00000000000E+00 -0.00000000000E+00 -0.21945213112E+03  0.21945213112E+03  0.00000000000E+00 0.  1.
          6    2    1    2  502    0  0.77039835039E+02  0.99152311757E+02 -0.27267200226E+02  0.21678925484E+03  0.17460745601E+03 0.  0.
         24    2    3    3    0    0  0.67360155802E+02  0.13001906225E+03 -0.52882518043E+02  0.17525990397E+03  0.80480594478E+02 0.  0.
         -6    2    1    2    0  501 -0.77039835039E+02 -0.99152311757E+02  0.18964810818E+02  0.21381261799E+03  0.17201701792E+03 0.  0.
        -24    2    5    5    0    0 -0.54208836928E+02 -0.72307548447E+02  0.78956575489E+02  0.14407742157E+03  0.79731944849E+02 0.  0.
          5    1    3    3  502    0  0.96796792366E+01 -0.30866750497E+02  0.25615317817E+02  0.41529350864E+02  0.47000000000E+01 0. -1.
        -11    1    4    4    0    0  0.10784724157E+02  0.16912377532E+02 -0.44148664203E+02  0.48491683203E+02  0.00000000000E+00 0.  1.
         12    1    4    4    0    0  0.56575431645E+02  0.11310668472E+03 -0.87338538396E+01  0.12676822077E+03  0.00000000000E+00 0. -1.
         -5    1    5    5    0  501 -0.22830998111E+02 -0.26844763311E+02 -0.59991764671E+02  0.69735196424E+02  0.47000000000E+01 0.  1.
         13    1    6    6    0    0 -0.69968166530E+02 -0.67497776099E+02  0.46694171321E+02  0.10785100714E+03  0.00000000000E+00 0. -1.
        -14    1    6    6    0    0  0.15759329603E+02 -0.48097723479E+01  0.32262404169E+02  0.36226414428E+02  0.00000000000E+00 0.  1.
</event>
<event>
12    1  0.2625820E-002  0.1983210E+03  0.7818608E-02  0.1151163E+00
          2   -1    0    0  502    0  0.00000000000E+00  0.00000000000E+00  0.41214545265E+03  0.41214545265E+03  0.00000000000E+00 0.  1.
         -2   -1    0    0    0  501 -0.00000000000E+00 -0.00000000000E+00 -0.96375845965E+02  0.96375845965E+02  0.00000000000E+00 0. -1.
          6    2    1    2  502    0  0.83493155273E+02  0.43285270880E+02  0.18025644379E+03  0.26569337181E+03  0.17104344666E+03 0.  0.
         24    2    3    3    0    0 -0.72247023231E+01  0.35132114997E+02  0.13744789736E+03  0.16494186916E+03  0.83829791175E+02 0.  0.
         -6    2    1    2    0  501 -0.83493155273E+02 -0.43285270880E+02  0.13551316290E+03  0.24282792681E+03  0.17820455400E+03 0.  0.
        -24    2    5    5    0    0 -0.12552823856E+03 -0.36314033301E+02  0.12738129280E+03  0.19919578622E+03  0.79855618488E+02 0.  0.
          5    1    3    3  502    0  0.90717857596E+02  0.81531558835E+01  0.42808546434E+02  0.10075150265E+03  0.47000000000E+01 0. -1.
        -11    1    4    4    0    0  0.27692366321E+02  0.30039153044E+02  0.11751497478E+03  0.12441457779E+03  0.00000000000E+00 0.  1.
         12    1    4    4    0    0 -0.34917068644E+02  0.50929619527E+01  0.19932922575E+02  0.40527291379E+02  0.00000000000E+00 0. -1.
         -5    1    5    5    0  501  0.42035083290E+02 -0.69712375794E+01  0.81318701056E+01  0.43632140584E+02  0.47000000000E+01 0.  1.
         11    1    6    6    0    0 -0.11739663784E+02 -0.31238411346E+02  0.82522511782E+01  0.34376702848E+02  0.00000000000E+00 0. -1.
        -12    1    6    6    0    0 -0.11378857478E+03 -0.50756219546E+01  0.11912904162E+03  0.16481908338E+03  0.00000000000E+00 0.  1.
</event>
<event>
12    1  0.2625820E-002  0.2064715E+03  0.7818608E-02  0.1144391E+00
         -1   -1    0    0    0  501 -0.00000000000E+00  0.00000000000E+00  0.53792841775E+02  0.53792841775E+02  0.00000000000E+00 0. -1.
          1   -1    0    0  502    0  0.00000000000E+00 -0.00000000000E+00 -0.82100479080E+03  0.82100479080E+03  0.00000000000E+00 0.  1.
          6    2    1    2  502    0  0.70298778668E+02  0.92109005473E+02 -0.30219088452E+03  0.36602145327E+03  0.17095726483E+03 0.  0.
         24    2    3    3    0    0 -0.13416385375E+02 -0.21796115906E+01 -0.10660773772E+03  0.13326959117E+03  0.78808781787E+02 0.  0.
         -6    2    1    2    0  501 -0.70298778668E+02 -0.92109005473E+02 -0.46502106451E+03  0.50877617931E+03  0.17082922179E+03 0.  0.
        -24    2    5    5    0    0  0.26220725556E+02 -0.58465999413E+02 -0.19101688285E+03  0.21628985805E+03  0.78664182615E+02 0.  0.
          5    1    3    3  502    0  0.83715164044E+02  0.94288617064E+02 -0.19558314680E+03  0.23275186210E+03  0.47000000000E+01 0. -1.
        -13    1    4    4    0    0 -0.10679325603E+02 -0.20040920030E+02 -0.11210515423E+03  0.11438204438E+03  0.00000000000E+00 0.  1.
         14    1    4    4    0    0 -0.27370597727E+01  0.17861308440E+02  0.54974165176E+01  0.18887546790E+02  0.00000000000E+00 0. -1.
         -5    1    5    5    0  501 -0.96519504224E+02 -0.33643006060E+02 -0.27400418166E+03  0.29248632126E+03  0.47000000000E+01 0.  1.
         11    1    6    6    0    0  0.40590118233E+02 -0.47258693734E+02 -0.69171995962E+02  0.93089778477E+02  0.00000000000E+00 0. -1.
        -12    1    6    6    0    0 -0.14369392677E+02 -0.11207305679E+02 -0.12184488689E+03  0.12320007957E+03  0.00000000000E+00 0.  1.
</event>
<event>
12    1  0.2625820E-002  0.1922111E+03  0.7818608E-02  0.1156482E+00
         -2   -1    0    0    0  501 -0.00000000000E+00  0.00000000000E+00  0.37932459387E+02  0.37932459387E+02  0.00000000000E+00 0. -1.
          2   -1    0    0  502    0  0.00000000000E+00 -0.00000000000E+00 -0.13504553366E+04  0.13504553366E+04  0.00000000000E+00 0.  1.
          6    2    1    2  502    0  0.44783718627E+02 -0.73580562327E+02 -0.29055751162E+03  0.34856605226E+03  0.17220611088E+03 0.  0.
         24    2    3    3    0    0  0.92475963064E+02 -0.66793559793E+02 -0.24811439483E+03  0.28419119890E+03  0.78681009354E+02 0.  0.
         -6    2    1    2    0  501 -0.44783718627E+02  0.73580562327E+02 -0.10219653656E+04  0.10398217437E+04  0.17145369534E+03 0.  0.
        -24    2    5    5    0    0 -0.50594101296E+01  0.19038461323E+02 -0.22111200802E+03  0.23611716379E+03  0.80453305133E+02 0.  0.
          5    1    3    3  502    0 -0.47692244437E+02 -0.67870025348E+01 -0.42443116786E+02  0.64374853362E+02  0.47000000000E+01 0. -1.
        -13    1    4    4    0    0  0.13082040277E+02 -0.52792779770E+02 -0.13264565311E+03  0.14336347744E+03  0.00000000000E+00 0.  1.
         14    1    4    4    0    0  0.79393922787E+02 -0.14000780022E+02 -0.11546874172E+03  0.14082772146E+03  0.00000000000E+00 0. -1.
         -5    1    5    5    0  501 -0.39724308497E+02  0.54542101005E+02 -0.80085335753E+03  0.80370457989E+03  0.47000000000E+01 0.  1.
         11    1    6    6    0    0  0.34498580791E+02  0.75334429811E+00 -0.13828147658E+03  0.14252188032E+03  0.00000000000E+00 0. -1.
        -12    1    6    6    0    0 -0.39557990920E+02  0.18285117024E+02 -0.82830531440E+02  0.93595283476E+02  0.00000000000E+00 0.  1.
</event>
<event>
12    1  0.2625820E-002  0.2297089E+03  0.7818608E-02  0.1126845E+00
         -1   -1    0    0    0  501 -0.00000000000E+00  0.00000000000E+00  0.13214218975E+03  0.13214218975E+03  0.00000000000E+00 0.  1.
          1   -1    0    0  502    0  0.00000000000E+00 -0.00000000000E+00 -0.40094908896E+03  0.40094908896E+03  0.00000000000E+00 0. -1.
          6    2    1    2  502    0  0.13838667784E+03  0.64230954217E+02 -0.15147254150E+03  0.27522081907E+03  0.17183154640E+03 0.  0.
         24    2    3    3    0    0  0.67283415187E+02  0.53042978186E+02 -0.16291779084E+03  0.20218707002E+03  0.83646812369E+02 0.  0.
         -6    2    1    2    0  501 -0.13838667784E+03 -0.64230954217E+02 -0.11733435771E+03  0.25787045964E+03  0.17161973771E+03 0.  0.
        -24    2    5    5    0    0 -0.11300203458E+03 -0.55572437835E+02 -0.15362084326E+03  0.21250363197E+03  0.75502810869E+02 0.  0.
          5    1    3    3  502    0  0.71103262657E+02  0.11187976031E+02  0.11445249334E+02  0.73033749051E+02  0.47000000000E+01 0. -1.
        -13    1    4    4    0    0 -0.16826102699E+01 -0.14581443317E+02 -0.24339052744E+01  0.14878627672E+02  0.00000000000E+00 0.  1.
         14    1    4    4    0    0  0.68966025457E+02  0.67624421503E+02 -0.16048388556E+03  0.18730844235E+03  0.00000000000E+00 0. -1.
         -5    1    5    5    0  501 -0.25384643264E+02 -0.86585163817E+01  0.36286485550E+02  0.45366827673E+02  0.47000000000E+01 0.  1.
         13    1    6    6    0    0 -0.10013676715E+03 -0.16952725117E+02 -0.83745802647E+02  0.13163634181E+03  0.00000000000E+00 0. -1.
        -14    1    6    6    0    0 -0.12865267427E+02 -0.38619712717E+02 -0.69875040611E+02  0.80867290154E+02  0.00000000000E+00 0.  1.
</event>
<event>
12    1  0.2625820E-002  0.2471039E+03  0.7818608E-02  0.1115149E+00
          2   -1    0    0  502    0  0.00000000000E+00  0.00000000000E+00  0.65972053497E+03  0.65972053497E+03  0.00000000000E+00 0. -1.
         -2   -1    0    0    0  501 -0.00000000000E+00 -0.00000000000E+00 -0.13583705753E+03  0.13583705753E+03  0.00000000000E+00 0.  1.
          6    2    1    2  502    0  0.81887306322E+02 -0.15769326789E+03  0.37504621089E+02  0.25006992539E+03  0.17191763525E+03 0.  0.
         24    2    3    3    0    0  0.89373650707E+02 -0.17777777700E+03  0.55964847630E+02  0.22139410243E+03  0.79313914200E+02 0.  0.
         -6    2    1    2    0  501 -0.81887306322E+02  0.15769326789E+03  0.48637885636E+03  0.54548766711E+03  0.17152173444E+03 0.  0.
        -24    2    5    5    0    0 -0.11017378455E+03  0.10351060182E+03  0.42597391901E+03  0.45942529084E+03  0.82250292986E+02 0.  0.
          5    1    3    3  502    0 -0.74863443845E+01  0.20084509111E+02 -0.18460226541E+02  0.28675822960E+02  0.47000000000E+01 0. -1.
        -11    1    4    4    0    0  0.80057378891E+02 -0.95647580248E+02  0.60467955896E+02  0.13861463564E+03  0.00000000000E+00 0.  1.
         12    1    4    4    0    0  0.93162718156E+01 -0.82130196751E+02 -0.45031082657E+01  0.82779466795E+02  0.00000000000E+00 0. -1.
         -5    1    5    5    0  501  0.28286478232E+02  0.54182666069E+02  0.60404937348E+02  0.86062376270E+02  0.47000000000E+01 0.  1.
         13    1    6    6    0    0 -0.50754125172E+02  0.99568722596E+02  0.29824803390E+03  0.31849929586E+03  0.00000000000E+00 0. -1.
        -14    1    6    6    0    0 -0.59419659382E+02  0.39418792212E+01  0.12772588511E+03  0.14092599498E+03  0.00000000000E+00 0.  1.
</event>
<event>
12    1  0.2625820E-002  0.1748116E+03  0.7818608E-02  0.1172921E+00
         -2   -1    0    0    0  501 -0.00000000000E+00  0.00000000000E+00  0.89489819235E+02  0.89489819235E+02  0.00000000000E+00 0. -1.
          2   -1    0    0  502    0  0.00000000000E+00 -0.00000000000E+00 -0.34502924532E+03  0.34502924532E+03  0.00000000000E+00 0.  1.
          6    2    1    2  502    0  0.32211243887E+02 -0.14002404876E+01 -0.10565758268E+03  0.20416574907E+03  0.17169916543E+03 0.  0.
         24    2    3    3    0    0  0.45826772818E+02  0.37878519727E+02 -0.10795953044E+02  0.10048825677E+03  0.80289861022E+02 0.  0.
         -6    2    1    2    0  501 -0.32211243887E+02  0.14002404876E+01 -0.14988184340E+03  0.23035331548E+03  0.17192602498E+03 0.  0.
        -24    2    5    5    0    0  0.33747631706E+01 -0.30881525635E+02  0.46085970584E+01  0.68495777766E+02  0.60871789467E+02 0.  0.
          5    1    3    3  502    0 -0.13615528931E+02 -0.39278760215E+02 -0.94861629639E+02  0.10367749230E+03  0.47000000000E+01 0. -1.
        -13    1    4    4    0    0  0.19752593156E+02  0.55255058487E+02 -0.27696208057E+02  0.64887335941E+02  0.00000000000E+00 0.  1.
         14    1    4    4    0    0  0.26074179663E+02 -0.17376538760E+02  0.16900255013E+02  0.35600920829E+02  0.00000000000E+00 0. -1.
         -5    1    5    5    0  501 -0.35586007058E+02  0.32281766122E+02 -0.15449044046E+03  0.16185753772E+03  0.47000000000E+01 0.  1.
         11    1    6    6    0    0 -0.90231084069E+01 -0.47153910193E+01  0.28937915131E+02  0.30676608840E+02  0.00000000000E+00 0. -1.
        -12    1    6    6    0    0  0.12397871577E+02 -0.26166134615E+02 -0.24329318073E+02  0.37819168926E+02  0.00000000000E+00 0.  1.
</event>
<event>
12    1  0.2625820E-002  0.1819035E+03  0.7818608E-02  0.1165973E+00
          1   -1    0    0  502    0  0.00000000000E+00  0.00000000000E+00  0.11154984772E+04  0.11154984772E+04  0.00000000000E+00 0.  1.
         -1   -1    0    0    0  501 -0.00000000000E+00 -0.00000000000E+00 -0.38467716049E+02  0.38467716049E+02  0.00000000000E+00 0. -1.
          6    2    1    2  502    0 -0.32616093042E+02 -0.51486445302E+02  0.26721186056E+03  0.32441200814E+03  0.17356932052E+03 0.  0.
         24    2    3    3    0    0 -0.19633468137E+02 -0.30238093602E+02  0.41018890827E+02  0.96804032542E+02  0.79929068153E+02 0.  0.
         -6    2    1    2    0  501  0.32616093042E+02  0.51486445302E+02  0.80981890059E+03  0.82955418511E+03  0.16923011169E+03 0.  0.
        -24    2    5    5    0    0  0.85574081194E+02  0.42265902217E+02  0.59699424579E+03  0.60999555828E+03  0.81136439112E+02 0.  0.
          5    1    3    3  502    0 -0.12982624904E+02 -0.21248351699E+02  0.22619296974E+03  0.22760797560E+03  0.47000000000E+01 0. -1.
        -13    1    4    4    0    0 -0.31038622595E+01  0.22236559854E+02  0.34831465513E+02  0.41440675005E+02  0.00000000000E+00 0.  1.
         14    1    4    4    0    0 -0.16529605878E+02 -0.52474653456E+02  0.61874253145E+01  0.55363357538E+02  0.00000000000E+00 0. -1.
         -5    1    5    5    0  501 -0.52957988153E+02  0.92205430847E+01  0.21282465480E+03  0.21955862683E+03  0.47000000000E+01 0.  1.
         13    1    6    6    0    0  0.92136966891E+01 -0.10241866008E+02  0.13854080387E+02  0.19537747296E+02  0.00000000000E+00 0. -1.
        -14    1    6    6    0    0  0.76360384505E+02  0.52507768225E+02  0.58314016540E+03  0.59045781099E+03  0.00000000000E+00 0.  1.
</event>
<event>
12    1  0.2625820E-002  0.1783878E+03  0.7818608E-02  0.1169373E+00
         -2   -1    0    0    0  501 -0.00000000000E+00  0.00000000000E+00  0.30527695938E+03  0.30527695938E+03  0.00000000000E+00 0.  1.
          2   -1    0    0  502    0  0.00000000000E+00 -0.00000000000E+00 -0.17618464784E+03  0.17618464784E+03  0.00000000000E+00 0. -1.
          6    2    1    2  502    0 -0.98398869571E+01  0.46497601921E+02 -0.89214235379E+02  0.19974840781E+03  0.17228289604E+03 0.  0.
         24    2    3    3    0    0  0.49984973490E+00  0.34705263217E+02  0.20416430350E+02  0.88901927147E+02  0.79259175352E+02 0.  0.
         -6    2    1    2    0  501  0.98398869571E+01 -0.46497601921E+02  0.21830654692E+03  0.28171319941E+03  0.17159757556E+03 0.  0.
        -24    2    5    5    0    0 -0.19624621347E+01 -0.65195252850E+02  0.55138368506E+02  0.11698663191E+03  0.79945982470E+02 0.  0.
          5    1    3    3  502    0 -0.10339736692E+02  0.11792338704E+02 -0.10963066573E+03  0.11084648066E+03  0.47000000000E+01 0. -1.
        -13    1    4    4    0    0 -0.24968347142E+02  0.50579011109E+02  0.15448513196E+02  0.58483427428E+02  0.00000000000E+00 0.  1.
         14    1    4    4    0    0  0.25468196877E+02 -0.15873747892E+02  0.49679171540E+01  0.30418499719E+02  0.00000000000E+00 0. -1.
         -5    1    5    5    0  501  0.11802349092E+02  0.18697650929E+02  0.16316817841E+03  0.16472656750E+03  0.47000000000E+01 0.  1.
         13    1    6    6    0    0 -0.17123474211E+02 -0.79972806671E+02  0.40636225305E+02  0.91324509212E+02  0.00000000000E+00 0. -1.
        -14    1    6    6    0    0  0.15161012076E+02  0.14777553821E+02  0.14502143201E+02  0.25662122701E+02  0.00000000000E+00 0.  1.
</event>
<event>
12    1  0.2625820E-002  0.2312883E+03  0.7818608E-02  0.1125736E+00
         -1   -1    0    0    0  501 -0.00000000000E+00  0.00000000000E+00  0.63350031925E+02  0.63350031925E+02  0.00000000000E+00 0. -1.
          1   -1    0    0  502    0  0.00000000000E+00 -0.00000000000E+00 -0.92914275631E+03  0.92914275631E+03  0.00000000000E+00 0.  1.
          6    2    1    2  502    0  0.49832778803E+02  0.14662036345E+03 -0.58224766392E+03  0.62639644171E+03  0.17140397669E+03 0.  0.
         24    2    3    3    0    0  0.63435407531E+02  0.16279010150E+03 -0.57001001768E+03  0.60152995981E+03  0.80013775146E+02 0.  0.
         -6    2    1    2    0  501 -0.49832778803E+02 -0.14662036345E+03 -0.28354506046E+03  0.36609634652E+03  0.17218564633E+03 0.  0.
        -24    2    5    5    0    0 -0.60079952168E+02 -0.16922399952E+02 -0.13008222211E+03  0.16485147316E+03  0.79741177714E+02 0.  0.
          5    1    3    3  502    0 -0.13602628728E+02 -0.16169738045E+02 -0.12237646234E+02  0.24866481900E+02  0.47000000000E+01 0. -1.
        -11    1    4    4    0    0  0.26386391674E+00  0.10941207949E+03 -0.31796297442E+03  0.33626109776E+03  0.00000000000E+00 0.  1.
         12    1    4    4    0    0  0.63171543614E+02  0.53378022003E+02 -0.25204704326E+03  0.26526886205E+03  0.00000000000E+00 0. -1.
         -5    1    5    5    0  501  0.10247173365E+02 -0.12969796350E+03 -0.15346283836E+03  0.20124487336E+03  0.47000000000E+01 0.  1.
         11    1    6    6    0    0 -0.50932054449E+02 -0.51149813551E+01 -0.21955760335E+02  0.55698228128E+02  0.00000000000E+00 0. -1.
        -12    1    6    6    0    0 -0.91478977193E+01 -0.11807418597E+02 -0.10812646177E+03  0.10915324504E+03  0.00000000000E+00 0.  1.
</event>
<event>
12    1  0.2625820E-002  0.2180113E+03  0.7818608E-02  0.1135374E+00
         -2   -1    0    0    0  501 -0.00000000000E+00  0.00000000000E+00  0.66101735176E+02  0.66101735176E+02  0.00000000000E+00 0. -1.
          2   -1    0    0  502    0  0.00000000000E+00 -0.00000000000E+00 -0.76064483588E+03  0.76064483588E+03  0.00000000000E+00 0.  1.
          6    2    1    2  502    0  0.73276630664E+02 -0.11367297779E+03 -0.44232798208E+03  0.49266389504E+03  0.16962505496E+03 0.  0.
         24    2    3    3    0    0  0.27217816846E+02 -0.13639679685E+03 -0.28586071618E+03  0.32791596159E+03  0.80421595732E+02 0.  0.
         -6    2    1    2    0  501 -0.73276630664E+02  0.11367297779E+03 -0.25221511862E+03  0.33408267601E+03  0.17235938578E+03 0.  0.
        -24    2    5    5    0    0  0.33153149167E+01  0.10543465404E+03 -0.20571736996E+03  0.24398091833E+03  0.77971755265E+02 0.  0.
          5    1    3    3  502    0  0.46058813817E+02  0.22723819063E+02 -0.15646726589E+03  0.16474793346E+03  0.47000000000E+01 0. -1.
        -11    1    4    4    0    0  0.94792980690E+01 -0.29014291048E+02 -0.15373161095E+03  0.15673255687E+03  0.00000000000E+00 0.  1.
         12    1    4    4    0    0  0.17738518777E+02 -0.10738250580E+03 -0.13212910524E+03  0.17118340472E+03  0.00000000000E+00 0. -1.
         -5    1    5    5    0  501 -0.76591945580E+02  0.82383237495E+01 -0.46497748659E+02  0.90101757676E+02  0.47000000000E+01 0.  1.
         11    1    6    6    0    0  0.22825128024E+02  0.82961471264E+02 -0.90063127631E+02  0.12455905885E+03  0.00000000000E+00 0. -1.
        -12    1    6    6    0    0 -0.19509813107E+02  0.22473182777E+02 -0.11565424233E+03  0.11942185948E+03  0.00000000000E+00 0.  1.
</event>
<event>
12    1  0.2625820E-002  0.1918127E+03  0.7818608E-02  0.1156836E+00
          2   -1    0    0  502    0  0.00000000000E+00  0.00000000000E+00  0.51277330361E+03  0.51277330361E+03  0.00000000000E+00 0.  1.
         -2   -1    0    0    0  501 -0.00000000000E+00 -0.00000000000E+00 -0.15613549176E+03  0.15613549176E+03  0.00000000000E+00 0. -1.
          6    2    1    2  502    0  0.78800060593E+02  0.29865320130E+02  0.42401675259E+03  0.46521289644E+03  0.17184715779E+03 0.  0.
         24    2    3    3    0    0  0.15787619245E+02  0.36314775954E+02  0.37274855830E+03  0.38358764917E+03  0.81424719920E+02 0.  0.
         -6    2    1    2    0  501 -0.78800060593E+02 -0.29865320130E+02 -0.67378940745E+02  0.20369589892E+03  0.17277358214E+03 0.  0.
        -24    2    5    5    0    0 -0.40497969363E+02 -0.83990134060E+02 -0.57529739195E+02  0.13649736883E+03  0.81409045343E+02 0.  0.
          5    1    3    3  502    0  0.63012441348E+02 -0.64494558234E+01  0.51268194299E+02  0.81625247269E+02  0.47000000000E+01 0. -1.
        -13    1    4    4    0    0 -0.71502227251E+01 -0.23244143638E+02  0.14668895562E+03  0.14869117525E+03  0.00000000000E+00 0.  1.
         14    1    4    4    0    0  0.22937841970E+02  0.59558919591E+02  0.22605960268E+03  0.23489647392E+03  0.00000000000E+00 0. -1.
         -5    1    5    5    0  501 -0.38302091230E+02  0.54124813930E+02 -0.98492015502E+01  0.67198530093E+02  0.47000000000E+01 0.  1.
         11    1    6    6    0    0 -0.56166331170E+02 -0.39418383898E+02 -0.97573355969E+01  0.69308522882E+02  0.00000000000E+00 0. -1.
        -12    1    6    6    0    0  0.15668361807E+02 -0.44571750163E+02 -0.47772403598E+02  0.67188845948E+02  0.00000000000E+00 0.  1.
</event>
<event>
12    1  0.2625820E-002  0.2262369E+03  0.7818608E-02  0.1129317E+00
          2   -1    0    0  502    0  0.00000000000E+00  0.00000000000E+00  0.20735663571E+03  0.20735663571E+03  0.00000000000E+00 0.  1.
         -2   -1    0    0    0  501 -0.00000000000E+00 -0.00000000000E+00 -0.65601266057E+03  0.65601266057E+03  0.00000000000E+00 0. -1.
          6    2    1    2  502    0  0.13031260971E+03 -0.68086340479E+02  0.11678461460E+03  0.25416608779E+03  0.17130273777E+03 0.  0.
         24    2    3    3    0    0  0.21520261981E+02 -0.37173593345E+02  0.10746972227E+03  0.14058690802E+03  0.79811902509E+02 0.  0.
         -6    2    1    2    0  501 -0.13031260971E+03  0.68086340479E+02 -0.56544063946E+03  0.60920320850E+03  0.17259289235E+03 0.  0.
        -24    2    5    5    0    0 -0.10937391022E+03  0.10092136824E+03 -0.31785669871E+03  0.35853117994E+03  0.73239001034E+02 0.  0.
          5    1    3    3  502    0  0.10879234772E+03 -0.30912747134E+02  0.93148923214E+01  0.11357917977E+03  0.47000000000E+01 0. -1.
        -11    1    4    4    0    0 -0.79024234708E+01 -0.55040697861E+02  0.58302844092E+02  0.80567663159E+02  0.00000000000E+00 0.  1.
         12    1    4    4    0    0  0.29422685452E+02  0.17867104517E+02  0.49166878183E+02  0.60019244858E+02  0.00000000000E+00 0. -1.
         -5    1    5    5    0  501 -0.20938699481E+02 -0.32835027764E+02 -0.24758394075E+03  0.25067202856E+03  0.47000000000E+01 0.  1.
         13    1    6    6    0    0 -0.98030304052E+02  0.72942944207E+02 -0.29882636673E+03  0.32284332279E+03  0.00000000000E+00 0. -1.
        -14    1    6    6    0    0 -0.11343606172E+02  0.27978424037E+02 -0.19030331981E+02  0.35687857149E+02  0.00000000000E+00 0.  1.
</event>
<event>
12    1  0.2625820E-002  0.1804313E+03  0.7818608E-02  0.1167386E+00
         -2   -1    0    0    0  501 -0.00000000000E+00  0.00000000000E+00  0.79093437452E+03  0.79093437452E+03  0.00000000000E+00 0. -1.
          2   -1    0    0  502    0  0.00000000000E+00 -0.00000000000E+00 -0.41412852104E+02  0.41412852104E+02  0.00000000000E+00 0.  1.
          6    2    1    2  502    0  0.32589341108E+02 -0.46334822825E+02  0.34336963213E+03  0.38812844931E+03  0.17184879380E+03 0.  0.
         24    2    3    3    0    0 -0.29622576155E+02 -0.72249807362E+02  0.24086532586E+03  0.26536391096E+03  0.79400052600E+02 0.  0.
         -6    2    1    2    0  501 -0.32589341108E+02  0.46334822825E+02  0.40615189028E+03  0.44421877731E+03  0.17076880037E+03 0.  0.
        -24    2    5    5    0    0 -0.56560422165E+02  0.27497801007E+02  0.39999465778E+03  0.41276329083E+03  0.80141110484E+02 0.  0.
          5    1    3    3  502    0  0.62211917263E+02  0.25914984537E+02  0.10250430627E+03  0.12276453835E+03  0.47000000000E+01 0. -1.
        -11    1    4    4    0    0  0.19478049122E+02 -0.11411764940E+02  0.17058710514E+02  0.28295271355E+02  0.00000000000E+00 0.  1.
         12    1    4    4    0    0 -0.49100625277E+02 -0.60838042422E+02  0.22380661535E+03  0.23706863960E+03  0.00000000000E+00 0. -1.
         -5    1    5    5    0  501  0.23971081057E+02  0.18837021818E+02  0.61572325062E+01  0.31455486488E+02  0.47000000000E+01 0.  1.
         11    1    6    6    0    0 -0.75517067193E+02  0.28568411394E+02  0.28517986714E+03  0.29638916679E+03  0.00000000000E+00 0. -1.
        -12    1    6    6    0    0  0.18956645027E+02 -0.10706103868E+01  0.11481479064E+03  0.11637412404E+03  0.00000000000E+00 0.  1.
</event>
<event>
12    1  0.2625820E-002  0.2066726E+03  0.7818608E-02  0.1144228E+00
          2   -1    0    0  502    0  0.00000000000E+00  0.00000000000E+00  0.99909095201E+03  0.99909095201E+03  0.00000000000E+00 0.  1.
         -2   -1    0    0    0  501 -0.00000000000E+00 -0.00000000000E+00 -0.77254115593E+02  0.77254115593E+02  0.00000000000E+00 0. -1.
          6    2    1    2  502    0  0.10497702353E+03 -0.39418994167E+02  0.82247393980E+03  0.84842556131E+03  0.17546657474E+03 0.  0.
         24    2    3    3    0    0 -0.92164942772E+01 -0.44043576335E+02  0.31602838757E+03  0.32922354509E+03  0.80556939531E+02 0.  0.
         -6    2    1    2    0  501 -0.10497702353E+03  0.39418994167E+02  0.99362896610E+02  0.22791950629E+03  0.17175646584E+03 0.  0.
        -24    2    5    5    0    0 -0.78608618161E+02 -0.19397755718E+02  0.40891938959E+01  0.11279404735E+03  0.78423133285E+02 0.  0.
          5    1    3    3  502    0  0.11419351781E+03  0.46245821679E+01  0.50644555223E+03  0.51920201622E+03  0.47000000000E+01 0. -1.
        -11    1    4    4    0    0  0.17181931521E+02 -0.59246977356E+02  0.21934219218E+03  0.22785175085E+03  0.00000000000E+00 0.  1.
         12    1    4    4    0    0 -0.26398425798E+02  0.15203401021E+02  0.96686195390E+02  0.10137179423E+03  0.00000000000E+00 0. -1.
         -5    1    5    5    0  501 -0.26368405368E+02  0.58816749886E+02  0.95273702714E+02  0.11512545895E+03  0.47000000000E+01 0.  1.
         13    1    6    6    0    0 -0.37514060064E+02  0.30299086857E+02  0.25430027953E+01  0.48288779546E+02  0.00000000000E+00 0. -1.
        -14    1    6    6    0    0 -0.41094558097E+02 -0.49696842575E+02  0.15461911007E+01  0.64505267801E+02  0.00000000000E+00 0.  1.
</event>
<event>
12    1  0.2625820E-002  0.1746821E+03  0.7818608E-02  0.1173051E+00
         -1   -1    0    0    0  501 -0.00000000000E+00  0.00000000000E+00  0.24463999137E+02  0.24463999137E+02  0.00000000000E+00 0. -1.
          1   -1    0    0  502    0  0.00000000000E+00 -0.00000000000E+00 -0.12856595973E+04  0.12856595973E+04  0.00000000000E+00 0.  1.
          6    2    1    2  502    0  0.24369800620E+00 -0.27220998322E+02 -0.74835801473E+03  0.76878322329E+03  0.17391631338E+03 0.  0.
         24    2    3    3    0    0 -0.48792540796E+02 -0.63943438380E+02 -0.53804676812E+03  0.54968050589E+03  0.78643871491E+02 0.  0.
         -6    2    1    2    0  501 -0.24369800620E+00  0.27220998322E+02 -0.51283758343E+03  0.54134037315E+03  0.17118986677E+03 0.  0.
        -24    2    5    5    0    0  0.45625697254E+02  0.63767087423E+02 -0.28972809010E+03  0.31060339288E+03  0.79900912298E+02 0.  0.
          5    1    3    3  502    0  0.49036238802E+02  0.36722440058E+02 -0.21031124661E+03  0.21910271740E+03  0.47000000000E+01 0. -1.
        -11    1    4    4    0    0  0.44685901762E+01 -0.20560589376E+02 -0.32825404969E+03  0.32892769307E+03  0.00000000000E+00 0.  1.
         12    1    4    4    0    0 -0.53261130972E+02 -0.43382849004E+02 -0.20979271843E+03  0.22075281282E+03  0.00000000000E+00 0. -1.
         -5    1    5    5    0  501 -0.45869395260E+02 -0.36546089101E+02 -0.22310949333E+03  0.23073698027E+03  0.47000000000E+01 0.  1.
         11    1    6    6    0    0  0.59261595651E+01  0.57098247641E+02 -0.89205270988E+02  0.10607973238E+03  0.00000000000E+00 0. -1.
        -12    1    6    6    0    0  0.39699537689E+02  0.66688397819E+01 -0.20052281911E+03  0.20452366049E+03  0.00000000000E+00 0.  1.
</event>
<event>
12    1  0.2625820E-002  0.2054214E+03  0.7818608E-02  0.1145244E+00
          3   -1    0    0  502    0  0.00000000000E+00  0.00000000000E+00  0.15611472109E+04  0.15611472109E+04  0.00000000000E+00 0.  1.
         -3   -1    0    0    0  501 -0.00000000000E+00 -0.00000000000E+00 -0.58468819203E+02  0.58468819203E+02  0.00000000000E+00 0. -1.
          6    2    1    2  502    0 -0.59352484765E+02  0.98181879717E+02  0.13478385626E+04  0.13636456438E+04  0.17233180797E+03 0.  0.
         24    2    3    3    0    0 -0.40331187242E+02 -0.14862674806E+02  0.48723632181E+03  0.49542954862E+03  0.78763573955E+02 0.  0.
         -6    2    1    2    0  501  0.59352484765E+02 -0.98181879717E+02  0.15483982912E+03  0.25597038634E+03  0.16847274868E+03 0.  0.
        -24    2    5    5    0    0  0.90318626743E+02 -0.90332872101E+02  0.70927240881E+02  0.16605975663E+03  0.78915696501E+02 0.  0.
          5    1    3    3  502    0 -0.19021297523E+02  0.11304455452E+03  0.86060224076E+03  0.86821609515E+03  0.47000000000E+01 0. -1.
        -13    1    4    4    0    0  0.70162432105E+00  0.23110878317E+02  0.27441252249E+03  0.27538488970E+03  0.00000000000E+00 0.  1.
         14    1    4    4    0    0 -0.41032811564E+02 -0.37973553123E+02  0.21282379932E+03  0.22004465892E+03  0.00000000000E+00 0. -1.
         -5    1    5    5    0  501 -0.30966141977E+02 -0.78490076159E+01  0.83912588237E+02  0.89910629706E+02  0.47000000000E+01 0.  1.
         11    1    6    6    0    0  0.43540630762E+02 -0.73482855324E+02  0.78949132463E+01  0.85777888812E+02  0.00000000000E+00 0. -1.
        -12    1    6    6    0    0  0.46777995980E+02 -0.16850016776E+02  0.63032327635E+02  0.80281867818E+02  0.00000000000E+00 0.  1.
</event>
<event>
12    1  0.2625820E-002  0.2246756E+03  0.7818608E-02  0.1130444E+00
          2   -1    0    0  502    0  0.00000000000E+00  0.00000000000E+00  0.36617303747E+03  0.36617303747E+03  0.00000000000E+00 0. -1.
         -2   -1    0    0    0  501 -0.00000000000E+00 -0.00000000000E+00 -0.13803689883E+03  0.13803689883E+03  0.00000000000E+00 0.  1.
          6    2    1    2  502    0 -0.29869503065E+02 -0.14285418940E+03  0.12394514818E+03  0.25841882393E+03  0.17354648415E+03 0.  0.
         24    2    3    3    0    0 -0.74401504815E+02 -0.44662991442E+02  0.47503453679E+02  0.12616893473E+03  0.78304886533E+02 0.  0.
         -6    2    1    2    0  501  0.29869503065E+02  0.14285418940E+03  0.10419099047E+03  0.24579111237E+03  0.16810116533E+03 0.  0.
        -24    2    5    5    0    0  0.65790600823E+02  0.51402306681E+02  0.20808402764E+02  0.11683950110E+03  0.79043526639E+02 0.  0.
          5    1    3    3  502    0  0.44532001750E+02 -0.98191197959E+02  0.76441694498E+02  0.13224988920E+03  0.47000000000E+01 0. -1.
        -13    1    4    4    0    0  0.13309708478E+02 -0.64342035626E+01 -0.66682983761E+01  0.16217691527E+02  0.00000000000E+00 0.  1.
         14    1    4    4    0    0 -0.87711213293E+02 -0.38228787880E+02  0.54171752055E+02  0.10995124320E+03  0.00000000000E+00 0. -1.
         -5    1    5    5    0  501 -0.35921097757E+02  0.91451882720E+02  0.83382587703E+02  0.12895161127E+03  0.47000000000E+01 0.  1.
         13    1    6    6    0    0  0.45966682448E+02  0.60236623465E+02  0.41892084981E+02  0.86581369161E+02  0.00000000000E+00 0. -1.
        -14    1    6    6    0    0  0.19823918375E+02 -0.88343167836E+01 -0.21083682217E+02  0.30258131941E+02  0.00000000000E+00 0.  1.
</event>
<event>
12    1  0.2625820E-002  0.1996251E+03  0.7818608E-02  0.1150056E+00
          4   -1    0    0  502    0  0.00000000000E+00  0.00000000000E+00  0.60694017008E+03  0.60694017008E+03  0.00000000000E+00 0. -1.
         -4   -1    0    0    0  501 -0.00000000000E+00 -0.00000000000E+00 -0.65723329778E+02  0.65723329778E+02  0.00000000000E+00 0.  1.
          6    2    1    2  502    0  0.25146580105E+02 -0.97578940308E+02  0.28170416801E+03  0.34546534809E+03  0.17272830798E+03 0.  0.
         24    2    3    3    0    0  0.88548899922E+01 -0.92960737082E+02  0.29789914181E+03  0.32156735353E+03  0.77081492252E+02 0.  0.
         -6    2    1    2    0  501 -0.25146580105E+02  0.97578940308E+02  0.25951267230E+03  0.32719815177E+03  0.17192383010E+03 0.  0.
        -24    2    5    5    0    0 -0.67696776490E+02  0.22265158692E+02  0.88566892900E+02  0.13555464312E+03  0.73840205274E+02 0.  0.
          5    1    3    3  502    0  0.16291690113E+02 -0.46182032265E+01 -0.16194973802E+02  0.23897994565E+02  0.47000000000E+01 0. -1.
        -13    1    4    4    0    0  0.34888306268E+02 -0.50224979353E+02  0.98124331160E+02  0.11562061594E+03  0.00000000000E+00 0.  1.
         14    1    4    4    0    0 -0.26033416276E+02 -0.42735757729E+02  0.19977481065E+03  0.20594673758E+03  0.00000000000E+00 0. -1.
         -5    1    5    5    0  501  0.42550196384E+02  0.75313781616E+02  0.17094577940E+03  0.19164350865E+03  0.47000000000E+01 0.  1.
         11    1    6    6    0    0 -0.56127024213E+01  0.38126094296E+02  0.32589283464E+02  0.50469425313E+02  0.00000000000E+00 0. -1.
        -12    1    6    6    0    0 -0.62084074068E+02 -0.15860935604E+02  0.55977609436E+02  0.85085217807E+02  0.00000000000E+00 0.  1.
</event>
<event>
12    1  0.2625820E-002  0.2611248E+03  0.7818608E-02  0.1106469E+00
         -2   -1    0    0    0  501 -0.00000000000E+00  0.00000000000E+00  0.38622505570E+02  0.38622505570E+02  0.00000000000E+00 0. -1.
          2   -1    0    0  502    0  0.00000000000E+00 -0.00000000000E+00 -0.17863170843E+04  0.17863170843E+04  0.00000000000E+00 0.  1.
          6    2    1    2  502    0 -0.19573601567E+03  0.10898220869E+02 -0.77417576539E+03  0.81692522937E+03  0.17200975442E+03 0.  0.
         24    2    3    3    0    0 -0.35416920757E+02  0.42117545526E+02 -0.29150771053E+03  0.30734952390E+03  0.80366277905E+02 0.  0.
         -6    2    1    2    0  501  0.19573601567E+03 -0.10898220869E+02 -0.97351881332E+03  0.10080143605E+04  0.17298182562E+03 0.  0.
        -24    2    5    5    0    0  0.11548716888E+03  0.55171907351E+01 -0.32292292223E+03  0.35226559254E+03  0.80275204240E+02 0.  0.
          5    1    3    3  502    0 -0.16031909492E+03 -0.31219324657E+02 -0.48266805486E+03  0.50957570547E+03  0.47000000000E+01 0. -1.
        -11    1    4    4    0    0 -0.37402271278E+02  0.48078937905E+02 -0.11005441591E+03  0.12578747405E+03  0.00000000000E+00 0.  1.
         12    1    4    4    0    0  0.19853505218E+01 -0.59613923790E+01 -0.18145329462E+03  0.18156204985E+03  0.00000000000E+00 0. -1.
         -5    1    5    5    0  501  0.80248846788E+02 -0.16415411604E+02 -0.65059589109E+03  0.65574876794E+03  0.47000000000E+01 0.  1.
         11    1    6    6    0    0  0.11903600873E+03 -0.14938216804E+02 -0.27754700408E+03  0.30236577381E+03  0.00000000000E+00 0. -1.
        -12    1    6    6    0    0 -0.35488398433E+01  0.20455407540E+02 -0.45375918149E+02  0.49899818734E+02  0.00000000000E+00 0.  1.
</event>
<event>
12    1  0.2625820E-002  0.2253772E+03  0.7818608E-02  0.1129936E+00
          1   -1    0    0  502    0  0.00000000000E+00  0.00000000000E+00  0.83574636919E+03  0.83574636919E+03  0.00000000000E+00 0.  1.
         -1   -1    0    0    0  501 -0.00000000000E+00 -0.00000000000E+00 -0.73432262504E+02  0.73432262504E+02  0.00000000000E+00 0. -1.
          6    2    1    2  502    0 -0.13731829334E+03 -0.49273684432E+02  0.56983275244E+03  0.61277482137E+03  0.17175391203E+03 0.  0.
         24    2    3    3    0    0 -0.11377489154E+03  0.22997302307E+02  0.28737247269E+03  0.32022860805E+03  0.80559428361E+02 0.  0.
         -6    2    1    2    0  501  0.13731829334E+03  0.49273684432E+02  0.19248135425E+03  0.29640381032E+03  0.17181949068E+03 0.  0.
        -24    2    5    5    0    0  0.10584192901E+03  0.99147436410E+02  0.14044195751E+03  0.21761078106E+03  0.81226722943E+02 0.  0.
          5    1    3    3  502    0 -0.23543401797E+02 -0.72270986739E+02  0.28246027975E+03  0.29254621332E+03  0.47000000000E+01 0. -1.
        -11    1    4    4    0    0 -0.61770441987E+02  0.31827997638E+02  0.23815063699E+03  0.24808130691E+03  0.00000000000E+00 0.  1.
         12    1    4    4    0    0 -0.52004449554E+02 -0.88306953315E+01  0.49221835700E+02  0.72147301149E+02  0.00000000000E+00 0. -1.
         -5    1    5    5    0  501  0.31476364328E+02 -0.49873751978E+02  0.52039396744E+02  0.78793029268E+02  0.47000000000E+01 0.  1.
         11    1    6    6    0    0  0.26491717286E+02 -0.11741344496E+02  0.16510403335E+02  0.33350617290E+02  0.00000000000E+00 0. -1.
        -12    1    6    6    0    0  0.79350211723E+02  0.11088878091E+03  0.12393155417E+03  0.18426016377E+03  0.00000000000E+00 0.  1.
</event>
<event>
12    1  0.2625820E-002  0.1844786E+03  0.7818608E-02  0.1163538E+00
         -1   -1    0    0    0  501 -0.00000000000E+00  0.00000000000E+00  0.46422116395E+02  0.46422116395E+02  0.00000000000E+00 0.  1.
          1   -1    0    0  502    0  0.00000000000E+00 -0.00000000000E+00 -0.73373316979E+03  0.73373316979E+03  0.00000000000E+00 0. -1.
          6    2    1    2  502    0  0.63716773267E+02 -0.12865843204E+02 -0.35600578280E+03  0.40121421734E+03  0.17322636546E+03 0.  0.
         24    2    3    3    0    0  0.23371747509E+02 -0.25515170305E+02 -0.77769126956E+02  0.11974405332E+03  0.84221960913E+02 0.  0.
         -6    2    1    2    0  501 -0.63716773267E+02  0.12865843204E+02 -0.33130527059E+03  0.37894106884E+03  0.17206915533E+03 0.  0.
        -24    2    5    5    0    0 -0.21141119988E+02 -0.87325578929E+01 -0.66272263551E+02  0.10960157674E+03  0.84245404546E+02 0.  0.
          5    1    3    3  502    0  0.40345025757E+02  0.12649327101E+02 -0.27823665585E+03  0.28147016402E+03  0.47000000000E+01 0. -1.
        -11    1    4    4    0    0  0.52012415632E+02 -0.27492548788E+02 -0.35710476421E+02  0.68821288457E+02  0.00000000000E+00 0.  1.
         12    1    4    4    0    0 -0.28640668123E+02  0.19773784835E+01 -0.42058650535E+02  0.50922764860E+02  0.00000000000E+00 0. -1.
         -5    1    5    5    0  501 -0.42575653279E+02  0.21598401097E+02 -0.26503300704E+03  0.26933949210E+03  0.47000000000E+01 0.  1.
         11    1    6    6    0    0 -0.51175491826E+02 -0.11976599812E+02 -0.58019371149E+02  0.78285486109E+02  0.00000000000E+00 0. -1.
        -12    1    6    6    0    0  0.30034371839E+02  0.32440419191E+01 -0.82528924023E+01  0.31316090636E+02  0.00000000000E+00 0.  1.
</event>
<event>
12    1  0.2625820E-002  0.2050848E+03  0.7818608E-02  0.1145518E+00
          2   -1    0    0  502    0  0.00000000000E+00  0.00000000000E+00  0.18909836882E+04  0.18909836882E+04  0.00000000000E+00 0. -1.
         -2   -1    0    0    0  501 -0.00000000000E+00 -0.00000000000E+00 -0.63790657414E+02  0.63790657414E+02  0.00000000000E+00 0.  1.
          6    2    1    2  502    0 -0.11099801041E+03 -0.59331922969E+01  0.12579733924E+03  0.24113922363E+03  0.17311092839E+03 0.  0.
         24    2    3    3    0    0 -0.10391843433E+03 -0.14497596999E+02  0.15999535692E+03  0.20487541469E+03  0.73254351386E+02 0.  0.
         -6    2    1    2    0  501  0.11099801041E+03  0.59331922969E+01  0.17013956916E+04  0.17136351220E+04  0.17158750247E+03 0.  0.
        -24    2    5    5    0    0  0.13233909754E+03 -0.24564936817E+02  0.15431780216E+04  0.15510297747E+04  0.78599509060E+02 0.  0.
          5    1    3    3  502    0 -0.70795760821E+01  0.85644047021E+01 -0.34198017681E+02  0.36263808938E+02  0.47000000000E+01 0. -1.
        -13    1    4    4    0    0 -0.50594521705E+02  0.26657537494E+02  0.50358693746E+02  0.76199921047E+02  0.00000000000E+00 0.  1.
         14    1    4    4    0    0 -0.53323912623E+02 -0.41155134493E+02  0.10963666318E+03  0.12867549365E+03  0.00000000000E+00 0. -1.
         -5    1    5    5    0  501 -0.21341087135E+02  0.30498129114E+02  0.15821766995E+03  0.16260534728E+03  0.47000000000E+01 0.  1.
         13    1    6    6    0    0  0.75953155616E+01 -0.23655070426E+02  0.46418722353E+03  0.46485162113E+03  0.00000000000E+00 0. -1.
        -14    1    6    6    0    0  0.12474378198E+03 -0.90986639049E+00  0.10789907981E+04  0.10861781536E+04  0.00000000000E+00 0.  1.
</event>
<event>
12    1  0.2625820E-002  0.1957172E+03  0.7818608E-02  0.1153404E+00
          1   -1    0    0  502    0  0.00000000000E+00  0.00000000000E+00  0.82430324258E+03  0.82430324258E+03  0.00000000000E+00 0. -1.
         -1   -1    0    0    0  501 -0.00000000000E+00 -0.00000000000E+00 -0.48326215599E+02  0.48326215599E+02  0.00000000000E+00 0.  1.
          6    2    1    2  502    0  0.93308932706E+02  0.10168162120E+02  0.30178087984E+03  0.35949175566E+03  0.17132622248E+03 0.  0.
         24    2    3    3    0    0  0.10530996507E+03  0.14333707184E+02  0.12214612823E+03  0.17934706235E+03  0.77136555719E+02 0.  0.
         -6    2    1    2    0  501 -0.93308932706E+02 -0.10168162120E+02  0.47419614714E+03  0.51313770251E+03  0.17215797204E+03 0.  0.
        -24    2    5    5    0    0 -0.10399925142E+03  0.27594819307E+02  0.23356443048E+03  0.26928110789E+03  0.79891511008E+02 0.  0.
          5    1    3    3  502    0 -0.12001032360E+02 -0.41655450641E+01  0.17963475161E+03  0.18014469331E+03  0.47000000000E+01 0. -1.
        -11    1    4    4    0    0  0.12114739466E+02 -0.26686988052E+02  0.31430772298E+02  0.42975058940E+02  0.00000000000E+00 0.  1.
         12    1    4    4    0    0  0.93195225600E+02  0.41020695236E+02  0.90715355936E+02  0.13637200341E+03  0.00000000000E+00 0. -1.
         -5    1    5    5    0  501  0.10690318714E+02 -0.37762981427E+02  0.24063171666E+03  0.24385659463E+03  0.47000000000E+01 0.  1.
         11    1    6    6    0    0  0.10324829666E+02  0.44610625925E+01  0.53996226120E+02  0.55155195787E+02  0.00000000000E+00 0. -1.
        -12    1    6    6    0    0 -0.11432408109E+03  0.23133756715E+02  0.17956820436E+03  0.21412591210E+03  0.00000000000E+00 0.  1.
</event>
<event>
12    1  0.2625820E-002  0.1907819E+03  0.7818608E-02  0.1157758E+00
         -1   -1    0    0    0  501 -0.00000000000E+00  0.00000000000E+00  0.19993800420E+03  0.19993800420E+03  0.00000000000E+00 0.  1.
          1   -1    0    0  502    0  0.00000000000E+00 -0.00000000000E+00 -0.24907410475E+03  0.24907410475E+03  0.00000000000E+00 0. -1.
          6    2    1    2  502    0 -0.35035454308E+02 -0.80691218840E+02  0.92051935397E+02  0.21017392428E+03  0.16721532161E+03 0.  0.
         24    2    3    3    0    0 -0.59856248700E+01  0.18296377906E+02  0.65833636533E+02  0.10362850629E+03  0.77680206404E+02 0.  0.
         -6    2    1    2    0  501  0.35035454308E+02  0.80691218840E+02 -0.14118803595E+03  0.23883818467E+03  0.17137987368E+03 0.  0.
        -24    2    5    5    0    0  0.66894030126E+02  0.42911045467E+01 -0.53242622533E+02  0.11797283786E+03  0.81176282090E+02 0.  0.
          5    1    3    3  502    0 -0.29049829438E+02 -0.98987596746E+02  0.26218298864E+02  0.10654541799E+03  0.47000000000E+01 0. -1.
        -11    1    4    4    0    0  0.22803633320E+02  0.20579658964E+02  0.68052514602E+02  0.74663731485E+02  0.00000000000E+00 0.  1.
         12    1    4    4    0    0 -0.28789258190E+02 -0.22832810585E+01 -0.22188780692E+01  0.28964774804E+02  0.00000000000E+00 0. -1.
         -5    1    5    5    0  501 -0.31858575818E+02  0.76400114294E+02 -0.87945413422E+02  0.12086534681E+03  0.47000000000E+01 0.  1.
         11    1    6    6    0    0  0.85202187868E+02  0.10696904096E+02 -0.42886397142E+02  0.95984788558E+02  0.00000000000E+00 0. -1.
        -12    1    6    6    0    0 -0.18308157742E+02 -0.64057995496E+01 -0.10356225391E+02  0.21988049302E+02  0.00000000000E+00 0.  1.
</event>
<event>
12    1  0.2625820E-002  0.1833465E+03  0.7818608E-02  0.1164603E+00
         -1   -1    0    0    0  501 -0.00000000000E+00  0.00000000000E+00  0.15419416257E+03  0.15419416257E+03  0.00000000000E+00 0. -1.
          1   -1    0    0  502    0  0.00000000000E+00 -0.00000000000E+00 -0.23666321205E+03  0.23666321205E+03  0.00000000000E+00 0.  1.
          6    2    1    2  502    0 -0.61260777551E+02  0.79775279150E+01  0.13705755156E+02  0.18348871890E+03  0.17223164175E+03 0.  0.
         24    2    3    3    0    0 -0.89171888013E+02  0.11494533859E+02 -0.36808040295E+02  0.12547895292E+03  0.79412756377E+02 0.  0.
         -6    2    1    2    0  501  0.61260777551E+02 -0.79775279150E+01 -0.96174804630E+02  0.20736865572E+03  0.17301919694E+03 0.  0.
        -24    2    5    5    0    0  0.10213162707E+03 -0.27402334926E+02 -0.77581120118E+02  0.15822026234E+03  0.88504598798E+02 0.  0.
          5    1    3    3  502    0  0.27911110462E+02 -0.35170059436E+01  0.50513795451E+02  0.58009765979E+02  0.47000000000E+01 0. -1.
        -13    1    4    4    0    0 -0.53478800157E+02 -0.38004027060E+00  0.20209143100E+02  0.57171111251E+02  0.00000000000E+00 0.  1.
         14    1    4    4    0    0 -0.35693087856E+02  0.11874574129E+02 -0.57017183395E+02  0.68307841671E+02  0.00000000000E+00 0. -1.
         -5    1    5    5    0  501 -0.40870849520E+02  0.19424807011E+02 -0.18593684512E+02  0.49148393378E+02  0.47000000000E+01 0.  1.
         11    1    6    6    0    0  0.10301617303E+03 -0.79276295262E+01 -0.88353864217E+02  0.13594699164E+03  0.00000000000E+00 0. -1.
        -12    1    6    6    0    0 -0.88454595666E+00 -0.19474705400E+02  0.10772744100E+02  0.22273270694E+02  0.00000000000E+00 0.  1.
</event>
<event>
12    1  0.2625820E-002  0.3007455E+03  0.7818608E-02  0.1084869E+00
          4   -1    0    0  502    0  0.00000000000E+00  0.00000000000E+00  0.83172317524E+03  0.83172317524E+03  0.00000000000E+00 0.  1.
         -4   -1    0    0    0  501 -0.00000000000E+00 -0.00000000000E+00 -0.11115803136E+03  0.11115803136E+03  0.00000000000E+00 0. -1.
          6    2    1    2  502    0 -0.75902905548E+02 -0.23416322698E+03  0.43072208971E+03  0.52583197652E+03  0.17431030100E+03 0.  0.
         24    2    3    3    0    0 -0.41330736502E+01 -0.13722351963E+03  0.33695595771E+03  0.37298436241E+03  0.82040481022E+02 0.  0.
         -6    2    1    2    0  501  0.75902905548E+02  0.23416322698E+03  0.28984305418E+03  0.41704923008E+03  0.17125243448E+03 0.  0.
        -24    2    5    5    0    0  0.71199732174E+02  0.14296983677E+03  0.75898433662E+02  0.18438478306E+03  0.52224514411E+02 0.  0.
          5    1    3    3  502    0 -0.71769831897E+02 -0.96939707350E+02  0.93766131996E+02  0.15284761412E+03  0.47000000000E+01 0. -1.
        -13    1    4    4    0    0  0.28252029910E+02 -0.10832031972E+03  0.19857394146E+03  0.22795411619E+03  0.00000000000E+00 0.  1.
         14    1    4    4    0    0 -0.32385103560E+02 -0.28903199904E+02  0.13838201625E+03  0.14503024622E+03  0.00000000000E+00 0. -1.
         -5    1    5    5    0  501  0.47031733737E+01  0.91193390212E+02  0.21394462051E+03  0.23266444702E+03  0.47000000000E+01 0.  1.
         13    1    6    6    0    0  0.64996740071E+02  0.93601930802E+02  0.71285162911E+02  0.13441529720E+03  0.00000000000E+00 0. -1.
        -14    1    6    6    0    0  0.62029921033E+01  0.49367905965E+02  0.46132707512E+01  0.49969485863E+02  0.00000000000E+00 0.  1.
</event>
<event>
12    1  0.2625820E-002  0.2362987E+03  0.7818608E-02  0.1122283E+00
         -2   -1    0    0    0  501 -0.00000000000E+00  0.00000000000E+00  0.38648859209E+03  0.38648859209E+03  0.00000000000E+00 0.  1.
          2   -1    0    0  502    0  0.00000000000E+00 -0.00000000000E+00 -0.15379596532E+03  0.15379596532E+03  0.00000000000E+00 0. -1.
          6    2    1    2  502    0 -0.13797016727E+03  0.82088240065E+02  0.50159619612E+02  0.24224396398E+03  0.17433274057E+03 0.  0.
         24    2    3    3    0    0 -0.63177136293E+02  0.71287971510E+02  0.93054926076E+02  0.15522246894E+03  0.79758824989E+02 0.  0.
         -6    2    1    2    0  501  0.13797016727E+03 -0.82088240065E+02  0.18253300716E+03  0.29804059343E+03  0.17244028073E+03 0.  0.
        -24    2    5    5    0    0  0.12778345870E+03 -0.14388048045E+01  0.14296629535E+03  0.20751040442E+03  0.79312822803E+02 0.  0.
          5    1    3    3  502    0 -0.74793030973E+02  0.10800268555E+02 -0.42895306464E+02  0.87021495044E+02  0.47000000000E+01 0. -1.
        -13    1    4    4    0    0  0.10683145707E+02  0.50945665640E+01  0.42071579119E+02  0.43704713479E+02  0.00000000000E+00 0.  1.
         14    1    4    4    0    0 -0.73860282000E+02  0.66193404946E+02  0.50983346957E+02  0.11151775546E+03  0.00000000000E+00 0. -1.
         -5    1    5    5    0  501  0.10186708571E+02 -0.80649435261E+02  0.39566711808E+02  0.90530189013E+02  0.47000000000E+01 0.  1.
         11    1    6    6    0    0  0.68320273677E+02  0.11586348318E+02  0.23050911301E+02  0.73029088550E+02  0.00000000000E+00 0. -1.
        -12    1    6    6    0    0  0.59463185018E+02 -0.13025153122E+02  0.11991538405E+03  0.13448131587E+03  0.00000000000E+00 0.  1.
</event>
<event>
12    1  0.2625820E-002  0.1809211E+03  0.7818608E-02  0.1166915E+00
          2   -1    0    0  502    0  0.00000000000E+00  0.00000000000E+00  0.22336414165E+04  0.22336414165E+04  0.00000000000E+00 0. -1.
         -2   -1    0    0    0  501 -0.00000000000E+00 -0.00000000000E+00 -0.26750712937E+02  0.26750712937E+02  0.00000000000E+00 0.  1.
          6    2    1    2  502    0  0.41728086680E+02  0.36248415992E+02  0.18675248645E+04  0.18763873852E+04  0.17356646906E+03 0.  0.
         24    2    3    3    0    0  0.93040196051E+02  0.86036795560E+01  0.13723545836E+04  0.13777764537E+04  0.78615213388E+02 0.  0.
         -6    2    1    2    0  501 -0.41728086680E+02 -0.36248415992E+02  0.33936583916E+03  0.38400474426E+03  0.17098330314E+03 0.  0.
        -24    2    5    5    0    0 -0.34374477147E+02 -0.73576985559E+02  0.15409681160E+03  0.19481119192E+03  0.87237581735E+02 0.  0.
          5    1    3    3  502    0 -0.51312109371E+02  0.27644736436E+02  0.49517028083E+03  0.49861093153E+03  0.47000000000E+01 0. -1.
        -13    1    4    4    0    0  0.55576500639E+02  0.32652562956E+02  0.10927959746E+04  0.10946953820E+04  0.00000000000E+00 0.  1.
         14    1    4    4    0    0  0.37463695412E+02 -0.24048883400E+02  0.27955860906E+03  0.28308107172E+03  0.00000000000E+00 0. -1.
         -5    1    5    5    0  501 -0.73536095331E+01  0.37328569567E+02  0.18526902756E+03  0.18919355235E+03  0.47000000000E+01 0.  1.
         13    1    6    6    0    0  0.13490859106E+02  0.13928541653E+02  0.27315704567E+02  0.33498586059E+02  0.00000000000E+00 0. -1.
        -14    1    6    6    0    0 -0.47865336254E+02 -0.87505527212E+02  0.12678110703E+03  0.16131260586E+03  0.00000000000E+00 0.  1.
</event>
<event>
12    1  0.2625820E-002  0.1790669E+03  0.7818608E-02  0.1168709E+00
         -2   -1    0    0    0  501 -0.00000000000E+00  0.00000000000E+00  0.56853869882E+02  0.56853869882E+02  0.00000000000E+00 0. -1.
          2   -1    0    0  502    0  0.00000000000E+00 -0.00000000000E+00 -0.63885174458E+03  0.63885174458E+03  0.00000000000E+00 0.  1.
          6    2    1    2  502    0 -0.39406472507E+02 -0.29971452861E+02 -0.40953505667E+03  0.44682178543E+03  0.17169620621E+03 0.  0.
         24    2    3    3    0    0 -0.10385350953E+02 -0.38389540783E+02 -0.95504823477E+02  0.13130606940E+03  0.80860993054E+02 0.  0.
         -6    2    1    2    0  501  0.39406472507E+02  0.29971452861E+02 -0.17246281802E+03  0.24888382903E+03  0.17247776289E+03 0.  0.
        -24    2    5    5    0    0 -0.30792435100E+02 -0.15115616288E+02 -0.49665030446E+02  0.10035061030E+03  0.80168409133E+02 0.  0.
          5    1    3    3  502    0 -0.29021121554E+02  0.84180879217E+01 -0.31403023320E+03  0.31551571603E+03  0.47000000000E+01 0. -1.
        -11    1    4    4    0    0  0.12968971953E+02 -0.17003690108E+02 -0.97267276873E+02  0.99590375343E+02  0.00000000000E+00 0.  1.
         12    1    4    4    0    0 -0.23354322906E+02 -0.21385850675E+02  0.17624533952E+01  0.31715694056E+02  0.00000000000E+00 0. -1.
         -5    1    5    5    0  501  0.70198907607E+02  0.45087069149E+02 -0.12279778758E+03  0.14853321873E+03  0.47000000000E+01 0.  1.
         13    1    6    6    0    0 -0.16132866149E+02  0.11115568767E+02  0.17816319518E+02  0.26481058898E+02  0.00000000000E+00 0. -1.
        -14    1    6    6    0    0 -0.14659568951E+02 -0.26231185055E+02 -0.67481349964E+02  0.73869551401E+02  0.00000000000E+00 0.  1.
</event>
<event>
12    1  0.2625820E-002  0.2048511E+03  0.7818608E-02  0.1145709E+00
          2   -1    0    0  502    0  0.00000000000E+00  0.00000000000E+00  0.37788673816E+04  0.37788673816E+04  0.00000000000E+00 0. -1.
         -2   -1    0    0    0  501 -0.00000000000E+00 -0.00000000000E+00 -0.13823738291E+02  0.13823738291E+02  0.00000000000E+00 0.  1.
          6    2    1    2  502    0 -0.75926029044E+02 -0.81633079833E+02  0.27190731725E+04  0.27267338886E+04  0.17114339013E+03 0.  0.
         24    2    3    3    0    0 -0.26240564461E+02 -0.15473775375E+02  0.59957169031E+03  0.60561288258E+03  0.79704120268E+02 0.  0.
         -6    2    1    2    0  501  0.75926029044E+02  0.81633079833E+02  0.10459704708E+04  0.10659572313E+04  0.17257424958E+03 0.  0.
        -24    2    5    5    0    0 -0.13120212270E+02  0.65838581294E+02  0.40053413400E+03  0.41419895240E+03  0.81402216916E+02 0.  0.
          5    1    3    3  502    0 -0.49685464583E+02 -0.66159304458E+02  0.21195014822E+04  0.21211210060E+04  0.47000000000E+01 0. -1.
        -11    1    4    4    0    0  0.24266859387E+02 -0.20500072513E+02  0.16020701892E+03  0.16332612268E+03  0.00000000000E+00 0.  1.
         12    1    4    4    0    0 -0.50507423848E+02  0.50262971382E+01  0.43936467138E+03  0.44228675990E+03  0.00000000000E+00 0. -1.
         -5    1    5    5    0  501  0.89046241314E+02  0.15794498539E+02  0.64543633682E+03  0.65175827893E+03  0.47000000000E+01 0.  1.
         11    1    6    6    0    0 -0.28740472604E+01  0.60130598313E+02  0.39756945252E+03  0.40210125414E+03  0.00000000000E+00 0. -1.
        -12    1    6    6    0    0 -0.10246165010E+02  0.57079829810E+01  0.29646814781E+01  0.12097698268E+02  0.00000000000E+00 0.  1.
</event>
<event>
12    1  0.2625820E-002  0.1757355E+03  0.7818608E-02  0.1171995E+00
         -2   -1    0    0    0  501 -0.00000000000E+00  0.00000000000E+00  0.29383031389E+02  0.29383031389E+02  0.00000000000E+00 0. -1.
          2   -1    0    0  502    0  0.00000000000E+00 -0.00000000000E+00 -0.14375960344E+04  0.14375960344E+04  0.00000000000E+00 0.  1.
          6    2    1    2  502    0  0.17745151042E+02  0.30867009277E+02 -0.32308264041E+03  0.36767357884E+03  0.17185402352E+03 0.  0.
         24    2    3    3    0    0  0.70828207004E+02  0.48260139166E+02 -0.24397837467E+03  0.27072046308E+03  0.80115203842E+02 0.  0.
         -6    2    1    2    0  501 -0.17745151042E+02 -0.30867009277E+02 -0.10851303626E+04  0.10993054869E+04  0.17232813797E+03 0.  0.
        -24    2    5    5    0    0 -0.51447675867E+01 -0.74717201748E+02 -0.47060721756E+03  0.48307306745E+03  0.79242074720E+02 0.  0.
          5    1    3    3  502    0 -0.53083055962E+02 -0.17393129889E+02 -0.79104265743E+02  0.96953115764E+02  0.47000000000E+01 0. -1.
        -11    1    4    4    0    0  0.71785012174E+02  0.39346198190E+02 -0.24780253656E+03  0.26097376959E+03  0.00000000000E+00 0.  1.
         12    1    4    4    0    0 -0.95680517019E+00  0.89139409763E+01  0.38241618976E+01  0.97466934949E+01  0.00000000000E+00 0. -1.
         -5    1    5    5    0  501 -0.12600383455E+02  0.43850192471E+02 -0.61452314500E+03  0.61623241945E+03  0.47000000000E+01 0.  1.
         11    1    6    6    0    0  0.57006903545E+01  0.79061808980E+01 -0.69112729967E+01  0.11948692872E+02  0.00000000000E+00 0. -1.
        -12    1    6    6    0    0 -0.10845457941E+02 -0.82623382646E+02 -0.46369594456E+03  0.47112437458E+03  0.00000000000E+00 0.  1.
</event>
<event>
12    1  0.2625820E-002  0.2147726E+03  0.7818608E-02  0.1137841E+00
          1   -1    0    0  502    0  0.00000000000E+00  0.00000000000E+00  0.55290628193E+03  0.55290628193E+03  0.00000000000E+00 0. -1.
         -1   -1    0    0    0  501 -0.00000000000E+00 -0.00000000000E+00 -0.12240090381E+03  0.12240090381E+03  0.00000000000E+00 0.  1.
          6    2    1    2  502    0 -0.17971223158E+02 -0.12672737123E+03  0.25091189962E+02  0.21676921212E+03  0.17313732130E+03 0.  0.
         24    2    3    3    0    0 -0.50069705813E+02 -0.94997872132E+02 -0.38325255863E+02  0.13878966798E+03  0.79133908993E+02 0.  0.
         -6    2    1    2    0  501  0.17971223158E+02  0.12672737123E+03  0.40541418816E+03  0.45853797362E+03  0.17179527879E+03 0.  0.
        -24    2    5    5    0    0  0.66130762769E+02  0.11041853848E+03  0.35915283428E+03  0.38963570847E+03  0.79118237567E+02 0.  0.
          5    1    3    3  502    0  0.32098482655E+02 -0.31729499102E+02  0.63416445825E+02  0.77979544133E+02  0.47000000000E+01 0. -1.
        -11    1    4    4    0    0  0.42117758750E+01 -0.12888955964E+02 -0.38013740928E+02  0.40359741589E+02  0.00000000000E+00 0.  1.
         12    1    4    4    0    0 -0.54281481688E+02 -0.82108916168E+02 -0.31151493579E+00  0.98429926395E+02  0.00000000000E+00 0. -1.
         -5    1    5    5    0  501 -0.48159539611E+02  0.16308832752E+02  0.46261353874E+02  0.68902265155E+02  0.47000000000E+01 0.  1.
         13    1    6    6    0    0  0.62129973204E+02  0.27344359536E+02  0.16517855479E+03  0.17858276102E+03  0.00000000000E+00 0. -1.
        -14    1    6    6    0    0  0.40007895652E+01  0.83074178947E+02  0.19397427949E+03  0.21105294745E+03  0.00000000000E+00 0.  1.
</event>
<event>
12    1  0.2625820E-002  0.1897746E+03  0.7818608E-02  0.1158665E+00
          1   -1    0    0  502    0  0.00000000000E+00  0.00000000000E+00  0.13424269203E+03  0.13424269203E+03  0.00000000000E+00 0.  1.
         -1   -1    0    0    0  501 -0.00000000000E+00 -0.00000000000E+00 -0.27169041016E+03  0.27169041016E+03  0.00000000000E+00 0. -1.
          6    2    1    2  502    0 -0.47243588302E+00 -0.76641895308E+02 -0.91547964794E+02  0.21090318679E+03  0.17385315938E+03 0.  0.
         24    2    3    3    0    0  0.40272797637E+02  0.93663788801E+01 -0.21417338879E+02  0.92590076885E+02  0.80028698915E+02 0.  0.
         -6    2    1    2    0  501  0.47243588302E+00  0.76641895308E+02 -0.45899753334E+02  0.19502991540E+03  0.17336573258E+03 0.  0.
        -24    2    5    5    0    0 -0.85355105372E+01  0.23394450016E+02 -0.91749926041E+02  0.12403159242E+03  0.79659473748E+02 0.  0.
          5    1    3    3  502    0 -0.40745233520E+02 -0.86008274188E+02 -0.70130625915E+02  0.11831310990E+03  0.47000000000E+01 0. -1.
        -11    1    4    4    0    0  0.46457280187E+02  0.23646778235E+02 -0.41889655767E+02  0.66874451501E+02  0.00000000000E+00 0.  1.
         12    1    4    4    0    0 -0.61844825505E+01 -0.14280399355E+02  0.20472316887E+02  0.25715625384E+02  0.00000000000E+00 0. -1.
         -5    1    5    5    0  501  0.90079464202E+01  0.53247445291E+02  0.45850172708E+02  0.70998322981E+02  0.47000000000E+01 0.  1.
         11    1    6    6    0    0 -0.32856890748E+02  0.41528663808E+02 -0.54486762779E+02  0.75980342888E+02  0.00000000000E+00 0. -1.
        -12    1    6    6    0    0  0.24321380211E+02 -0.18134213791E+02 -0.37263163263E+02  0.48051249531E+02  0.00000000000E+00 0.  1.
</event>
<event>
12    1  0.2625820E-002  0.2701770E+03  0.7818608E-02  0.1101178E+00
         -4   -1    0    0    0  501 -0.00000000000E+00  0.00000000000E+00  0.31789742124E+03  0.31789742124E+03  0.00000000000E+00 0. -1.
          4   -1    0    0  502    0  0.00000000000E+00 -0.00000000000E+00 -0.28341417982E+03  0.28341417982E+03  0.00000000000E+00 0.  1.
          6    2    1    2  502    0  0.20578737752E+03  0.28360586418E+02 -0.11378287150E+03  0.29243234332E+03  0.17151491471E+03 0.  0.
         24    2    3    3    0    0  0.16521258376E+03 -0.67156137159E+01 -0.22751874902E+02  0.18667135786E+03  0.83595757868E+02 0.  0.
         -6    2    1    2    0  501 -0.20578737752E+03 -0.28360586418E+02  0.14826611292E+03  0.30887925774E+03  0.17398502238E+03 0.  0.
        -24    2    5    5    0    0 -0.14735604597E+03  0.44802681017E+02  0.12162900601E+03  0.21141793376E+03  0.78631056842E+02 0.  0.
          5    1    3    3  502    0  0.40574793762E+02  0.35076200133E+02 -0.91030996601E+02  0.10576098547E+03  0.47000000000E+01 0. -1.
        -13    1    4    4    0    0  0.13315161333E+03 -0.39971480465E+02 -0.19198159574E+02  0.14034115831E+03  0.00000000000E+00 0.  1.
         14    1    4    4    0    0  0.32060970423E+02  0.33255866749E+02 -0.35537153279E+01  0.46330199550E+02  0.00000000000E+00 0. -1.
         -5    1    5    5    0  501 -0.58431331547E+02 -0.73163267434E+02  0.26637106911E+02  0.97461323983E+02  0.47000000000E+01 0.  1.
         13    1    6    6    0    0 -0.55917244414E+02 -0.18156293299E+02  0.61831958446E+02  0.85320456483E+02  0.00000000000E+00 0. -1.
        -14    1    6    6    0    0 -0.91438801560E+02  0.62958974316E+02  0.59797047565E+02  0.12609747728E+03  0.00000000000E+00 0.  1.
</event>
<event>
12    1  0.2625820E-002  0.1785758E+03  0.7818608E-02  0.1169189E+00
          2   -1    0    0  502    0  0.00000000000E+00  0.00000000000E+00  0.10964385527E+03  0.10964385527E+03  0.00000000000E+00 0.  1.
         -2   -1    0    0    0  501 -0.00000000000E+00 -0.00000000000E+00 -0.29571468827E+03  0.29571468827E+03  0.00000000000E+00 0. -1.
          6    2    1    2  502    0  0.23204776201E+02 -0.37470759172E+02 -0.11889686252E+03  0.21429774202E+03  0.17275572027E+03 0.  0.
         24    2    3    3    0    0  0.68301425081E+02  0.79899222390E+01 -0.42940485179E+02  0.11483999947E+03  0.81335211844E+02 0.  0.
         -6    2    1    2    0  501 -0.23204776201E+02  0.37470759172E+02 -0.67173970485E+02  0.19106080152E+03  0.17334753571E+03 0.  0.
        -24    2    5    5    0    0  0.39875455314E+02  0.61875306951E+02 -0.58374197664E+02  0.12269250798E+03  0.78913237256E+02 0.  0.
          5    1    3    3  502    0 -0.45096648880E+02 -0.45460681411E+02 -0.75956377341E+02  0.99457742551E+02  0.47000000000E+01 0. -1.
        -11    1    4    4    0    0  0.50257466467E+02 -0.20076423043E+02  0.72169985813E+01  0.54598175486E+02  0.00000000000E+00 0.  1.
         12    1    4    4    0    0  0.18043958614E+02  0.28066345282E+02 -0.50157483760E+02  0.60241823986E+02  0.00000000000E+00 0. -1.
         -5    1    5    5    0  501 -0.63080231515E+02 -0.24404547779E+02 -0.87997728206E+01  0.68368293543E+02  0.47000000000E+01 0.  1.
         13    1    6    6    0    0  0.49373351232E+02  0.49714596423E+01 -0.33470451508E+02  0.59855779562E+02  0.00000000000E+00 0. -1.
        -14    1    6    6    0    0 -0.94978959176E+01  0.56903847309E+02 -0.24903746156E+02  0.62836728416E+02  0.00000000000E+00 0.  1.
</event>
<event>
12    1  0.2625820E-002  0.2292098E+03  0.7818608E-02  0.1127197E+00
          2   -1    0    0  502    0  0.00000000000E+00  0.00000000000E+00  0.37294262970E+03  0.37294262970E+03  0.00000000000E+00 0. -1.
         -2   -1    0    0    0  501 -0.00000000000E+00 -0.00000000000E+00 -0.14727701510E+03  0.14727701510E+03  0.00000000000E+00 0.  1.
          6    2    1    2  502    0  0.14452963828E+03 -0.47487547821E+02  0.58796202883E+02  0.23705373028E+03  0.17202788735E+03 0.  0.
         24    2    3    3    0    0  0.32907678834E+02 -0.63721471322E+02 -0.44659153434E+01  0.10764280452E+03  0.80147911590E+02 0.  0.
         -6    2    1    2    0  501 -0.14452963828E+03  0.47487547821E+02  0.16686941172E+03  0.28316591452E+03  0.17086149665E+03 0.  0.
        -24    2    5    5    0    0 -0.73990572515E+02  0.49230066872E+02  0.21658567437E+02  0.12165097567E+03  0.80197643567E+02 0.  0.
          5    1    3    3  502    0  0.11162195945E+03  0.16233923501E+02  0.63262118227E+02  0.12941092576E+03  0.47000000000E+01 0. -1.
        -11    1    4    4    0    0  0.54792842389E+02 -0.30230234422E+02  0.13121748426E+02  0.63939838380E+02  0.00000000000E+00 0.  1.
         12    1    4    4    0    0 -0.21885163555E+02 -0.33491236899E+02 -0.17587663770E+02  0.43702966144E+02  0.00000000000E+00 0. -1.
         -5    1    5    5    0  501 -0.70539065768E+02 -0.17425190515E+01  0.14521084428E+03  0.16151493884E+03  0.47000000000E+01 0.  1.
         13    1    6    6    0    0 -0.84197236020E+02  0.43505659246E+02  0.37528608628E+02  0.10193288677E+03  0.00000000000E+00 0. -1.
        -14    1    6    6    0    0  0.10206663505E+02  0.57244076258E+01 -0.15870041191E+02  0.19718088903E+02  0.00000000000E+00 0.  1.
</event>
<event>
12    1  0.2625820E-002  0.1746878E+03  0.7818608E-02  0.1173046E+00
          2   -1    0    0  502    0  0.00000000000E+00  0.00000000000E+00  0.10984686955E+04  0.10984686955E+04  0.00000000000E+00 0.  1.
         -2   -1    0    0    0  501 -0.00000000000E+00 -0.00000000000E+00 -0.27978356359E+02  0.27978356359E+02  0.00000000000E+00 0. -1.
          6    2    1    2  502    0 -0.25542015288E+02  0.25728065445E+02  0.58230405165E+03  0.60791192232E+03  0.17077637083E+03 0.  0.
         24    2    3    3    0    0 -0.54638076679E+02 -0.25270727409E+02  0.48026737320E+03  0.49009413330E+03  0.76886804099E+02 0.  0.
         -6    2    1    2    0  501  0.25542015288E+02 -0.25728065445E+02  0.48818628744E+03  0.51853512949E+03  0.17099269391E+03 0.  0.
        -24    2    5    5    0    0  0.33088652549E+02  0.43357283500E+02  0.19849661622E+03  0.22058893840E+03  0.79270802528E+02 0.  0.
          5    1    3    3  502    0  0.29096061391E+02  0.50998792853E+02  0.10203667845E+03  0.11781778902E+03  0.47000000000E+01 0. -1.
        -11    1    4    4    0    0 -0.43773888611E+02  0.21282721477E+02  0.28009754685E+03  0.28429516934E+03  0.00000000000E+00 0.  1.
         12    1    4    4    0    0 -0.10864188069E+02 -0.46553448886E+02  0.20016982635E+03  0.20579896396E+03  0.00000000000E+00 0. -1.
         -5    1    5    5    0  501 -0.75466372610E+01 -0.69085348945E+02  0.28968967122E+03  0.29794619109E+03  0.47000000000E+01 0.  1.
         13    1    6    6    0    0  0.43931312802E+02  0.51212709498E+01  0.49492068258E+02  0.66375089311E+02  0.00000000000E+00 0. -1.
        -14    1    6    6    0    0 -0.10842660253E+02  0.38236012550E+02  0.14900454797E+03  0.15421384909E+03  0.00000000000E+00 0.  1.
</event>
<event>
12    1  0.2625820E-002  0.2311613E+03  0.7818608E-02  0.1125825E+00
          2   -1    0    0  502    0  0.00000000000E+00  0.00000000000E+00  0.33940501447E+03  0.33940501447E+03  0.00000000000E+00 0. -1.
         -2   -1    0    0    0  501 -0.00000000000E+00 -0.00000000000E+00 -0.15932474996E+03  0.15932474996E+03  0.00000000000E+00 0.  1.
          6    2    1    2  502    0 -0.53656732035E+02 -0.14983947627E+03  0.11599815285E+03  0.25628024498E+03  0.16399109415E+03 0.  0.
         24    2    3    3    0    0 -0.49617040020E+02 -0.11078826169E+03  0.17776788754E+02  0.15039897734E+03  0.86993957130E+02 0.  0.
         -6    2    1    2    0  501  0.53656732035E+02  0.14983947627E+03  0.64082111651E+02  0.24244951945E+03  0.17130189405E+03 0.  0.
        -24    2    5    5    0    0 -0.26511699359E+01  0.14704830510E+03  0.98329316015E+01  0.16406945823E+03  0.72054617095E+02 0.  0.
          5    1    3    3  502    0 -0.40396920147E+01 -0.39051214580E+02  0.98221364099E+02  0.10588126764E+03  0.47000000000E+01 0. -1.
        -11    1    4    4    0    0 -0.15589013966E+02 -0.10683200440E+03 -0.68932485106E+01  0.10818323066E+03  0.00000000000E+00 0.  1.
         12    1    4    4    0    0 -0.34028026054E+02 -0.39562572869E+01  0.24670037264E+02  0.42215746677E+02  0.00000000000E+00 0. -1.
         -5    1    5    5    0  501  0.56307901971E+02  0.27911711690E+01  0.54249180049E+02  0.78380061220E+02  0.47000000000E+01 0.  1.
         11    1    6    6    0    0 -0.11576295481E+02  0.96514094703E+02  0.39351267179E+02  0.10486898170E+03  0.00000000000E+00 0. -1.
        -12    1    6    6    0    0  0.89251255451E+01  0.50534210397E+02 -0.29518335577E+02  0.59200476533E+02  0.00000000000E+00 0.  1.
</event>
<event>
12    1  0.2625820E-002  0.3386408E+03  0.7818608E-02  0.1067376E+00
         -2   -1    0    0    0  501 -0.00000000000E+00  0.00000000000E+00  0.42533863054E+02  0.42533863054E+02  0.00000000000E+00 0.  1.
          2   -1    0    0  502    0  0.00000000000E+00 -0.00000000000E+00 -0.33736759452E+04  0.33736759452E+04  0.00000000000E+00 0. -1.
          6    2    1    2  502    0  0.16716372548E+03 -0.23884849153E+03 -0.90013452600E+03  0.96173023333E+03  0.17230950000E+03 0.  0.
         24    2    3    3    0    0  0.52012940542E+02 -0.16397513720E+02 -0.23292384217E+03  0.24903371488E+03  0.69210190402E+02 0.  0.
         -6    2    1    2    0  501 -0.16716372548E+03  0.23884849153E+03 -0.24310075561E+04  0.24544795749E+04  0.17227864823E+03 0.  0.
        -24    2    5    5    0    0 -0.15664002797E+03  0.22002849709E+03 -0.24020130287E+04  0.24180417783E+04  0.65656787185E+02 0.  0.
          5    1    3    3  502    0  0.11515078494E+03 -0.22245097781E+03 -0.66721068383E+03  0.71269651846E+03  0.47000000000E+01 0. -1.
        -13    1    4    4    0    0  0.52742342756E+02  0.16446086397E+02 -0.14838300205E+03  0.15833427858E+03  0.00000000000E+00 0.  1.
         14    1    4    4    0    0 -0.72940221441E+00 -0.32843600117E+02 -0.84540840122E+02  0.90699436298E+02  0.00000000000E+00 0. -1.
         -5    1    5    5    0  501 -0.10523697508E+02  0.18819994438E+02 -0.28994527434E+02  0.36437796599E+02  0.47000000000E+01 0.  1.
         13    1    6    6    0    0 -0.62439263199E+01  0.24715516779E+02 -0.11553036757E+03  0.11830937925E+03  0.00000000000E+00 0. -1.
        -14    1    6    6    0    0 -0.15039610165E+03  0.19531298031E+03 -0.22864826611E+04  0.22997323991E+04  0.00000000000E+00 0.  1.
</event>
<event>
12    1  0.2625820E-002  0.2122497E+03  0.7818608E-02  0.1139797E+00
          1   -1    0    0  502    0  0.00000000000E+00  0.00000000000E+00  0.18179437362E+04  0.18179437362E+04  0.00000000000E+00 0.  1.
         -1   -1    0    0    0  501 -0.00000000000E+00 -0.00000000000E+00 -0.26954830990E+02  0.26954830990E+02  0.00000000000E+00 0. -1.
          6    2    1    2  502    0 -0.10677813171E+03 -0.63068470593E+02  0.11573635536E+04  0.11766598102E+04  0.17221704985E+03 0.  0.
         24    2    3    3    0    0 -0.74733061291E+02 -0.92570756042E+02  0.10626909667E+04  0.10723417384E+04  0.80313995668E+02 0.  0.
         -6    2    1    2    0  501  0.10677813171E+03  0.63068470593E+02  0.63362535162E+03  0.66823875703E+03  0.17228682130E+03 0.  0.
        -24    2    5    5    0    0  0.54485554607E+02  0.61766220535E+02  0.58659491610E+03  0.59773938583E+03  0.80093920597E+02 0.  0.
          5    1    3    3  502    0 -0.32045070419E+02  0.29502285449E+02  0.94672586913E+02  0.10431807177E+03  0.47000000000E+01 0. -1.
        -11    1    4    4    0    0 -0.70826211472E+02 -0.24180074898E+02  0.58312519298E+03  0.58790817220E+03  0.00000000000E+00 0.  1.
         12    1    4    4    0    0 -0.39068498185E+01 -0.68390681143E+02  0.47956577370E+03  0.48443356619E+03  0.00000000000E+00 0. -1.
         -5    1    5    5    0  501  0.52292577103E+02  0.13022500579E+01  0.47030435519E+02  0.70499371206E+02  0.47000000000E+01 0.  1.
         11    1    6    6    0    0  0.34962122172E+02  0.47951603920E+02  0.16294734331E+03  0.17341725116E+03  0.00000000000E+00 0. -1.
        -12    1    6    6    0    0  0.19523432436E+02  0.13814616615E+02  0.42364757278E+03  0.42432213467E+03  0.00000000000E+00 0.  1.
</event>
<event>
12    1  0.2625820E-002  0.2466745E+03  0.7818608E-02  0.1115425E+00
         -3   -1    0    0    0  501 -0.00000000000E+00  0.00000000000E+00  0.46641650389E+03  0.46641650389E+03  0.00000000000E+00 0.  1.
          3   -1    0    0  502    0  0.00000000000E+00 -0.00000000000E+00 -0.25434181559E+03  0.25434181559E+03  0.00000000000E+00 0. -1.
          6    2    1    2  502    0  0.17528482873E+03 -0.24747269884E+02  0.35763293225E+03  0.43467411931E+03  0.17234580707E+03 0.  0.
         24    2    3    3    0    0  0.15733295499E+03 -0.65027226202E+02  0.21605210607E+03  0.28630982106E+03  0.79451886231E+02 0.  0.
         -6    2    1    2    0  501 -0.17528482873E+03  0.24747269884E+02 -0.14555824395E+03  0.28608420018E+03  0.17123016282E+03 0.  0.
        -24    2    5    5    0    0 -0.20132496151E+03  0.29608789308E+02 -0.14834677285E+03  0.25903630230E+03  0.60701073800E+02 0.  0.
          5    1    3    3  502    0  0.17951873744E+02  0.40279956318E+02  0.14158082618E+03  0.14836429824E+03  0.47000000000E+01 0. -1.
        -13    1    4    4    0    0  0.11860626387E+03 -0.11137076081E+02  0.15977908469E+03  0.19930086853E+03  0.00000000000E+00 0.  1.
         14    1    4    4    0    0  0.38726691118E+02 -0.53890150121E+02  0.56273021381E+02  0.87008952530E+02  0.00000000000E+00 0. -1.
         -5    1    5    5    0  501  0.26040132782E+02 -0.48615194236E+01  0.27885288989E+01  0.27047897882E+02  0.47000000000E+01 0.  1.
         11    1    6    6    0    0 -0.19013611884E+03  0.40675081260E+02 -0.12596270441E+03  0.23167392781E+03  0.00000000000E+00 0. -1.
        -12    1    6    6    0    0 -0.11188842675E+02 -0.11066291952E+02 -0.22384068436E+02  0.27362374490E+02  0.00000000000E+00 0.  1.
</event>
<event>
12    1  0.2625820E-002  0.1998247E+03  0.7818608E-02  0.1149887E+00
          2   -1    0    0  502    0  0.00000000000E+00  0.00000000000E+00  0.67117921545E+03  0.67117921545E+03  0.00000000000E+00 0. -1.
         -2   -1    0    0    0  501 -0.00000000000E+00 -0.00000000000E+00 -0.74448266427E+02  0.74448266427E+02  0.00000000000E+00 0.  1.
          6    2    1    2  502    0  0.10181333513E+03 -0.12075960740E+02  0.46384387742E+03  0.50452739733E+03  0.16995578248E+03 0.  0.
         24    2    3    3    0    0  0.53216068527E+02  0.61480804694E+01  0.10592513550E+03  0.14283453616E+03  0.79446973182E+02 0.  0.
         -6    2    1    2    0  501 -0.10181333513E+03  0.12075960740E+02  0.13288707161E+03  0.24110008455E+03  0.17308521870E+03 0.  0.
        -24    2    5    5    0    0 -0.11839013081E+02  0.39930637764E+02  0.11320224572E+03  0.14476294721E+03  0.80043390656E+02 0.  0.
          5    1    3    3  502    0  0.48597266602E+02 -0.18224041210E+02  0.35791874192E+03  0.36169286117E+03  0.47000000000E+01 0. -1.
        -13    1    4    4    0    0  0.47324784936E+02  0.10302223520E+02  0.11868068426E+03  0.12818297818E+03  0.00000000000E+00 0.  1.
         14    1    4    4    0    0  0.58912835906E+01 -0.41541430510E+01 -0.12755548767E+02  0.14651557978E+02  0.00000000000E+00 0. -1.
         -5    1    5    5    0  501 -0.89974322048E+02 -0.27854677023E+02  0.19684825890E+02  0.96337137338E+02  0.47000000000E+01 0.  1.
         11    1    6    6    0    0  0.32212249970E+02  0.18182794218E+02  0.27925029119E+02  0.46347063607E+02  0.00000000000E+00 0. -1.
        -12    1    6    6    0    0 -0.44051263051E+02  0.21747843546E+02  0.85277216599E+02  0.98415883607E+02  0.00000000000E+00 0.  1.
</event>
<event>
12    1  0.2625820E-002  0.1904143E+03  0.7818608E-02  0.1158088E+00
         -1   -1    0    0    0  501 -0.00000000000E+00  0.00000000000E+00  0.72113667110E+02  0.72113667110E+02  0.00000000000E+00 0. -1.
          1   -1    0    0  502    0  0.00000000000E+00 -0.00000000000E+00 -0.60822372974E+03  0.60822372974E+03  0.00000000000E+00 0.  1.
          6    2    1    2  502    0  0.50549586833E+02 -0.69915021482E+02 -0.40809672866E+03  0.44976659091E+03  0.16823696203E+03 0.  0.
         24    2    3    3    0    0  0.87550674855E+02 -0.68940210604E+02 -0.32362421452E+03  0.35742090115E+03  0.10295239216E+03 0.  0.
         -6    2    1    2    0  501 -0.50549586833E+02  0.69915021482E+02 -0.12801333397E+03  0.23057080594E+03  0.17126620192E+03 0.  0.
        -24    2    5    5    0    0 -0.78649830924E+02  0.29644756720E+01 -0.99559853155E+02  0.15244469077E+03  0.84454930951E+02 0.  0.
          5    1    3    3  502    0 -0.37001088021E+02 -0.97481087783E+00 -0.84472514140E+02  0.92345689754E+02  0.47000000000E+01 0. -1.
        -13    1    4    4    0    0 -0.50684925461E+01  0.86201062188E+00 -0.14092838335E+03  0.14102213271E+03  0.00000000000E+00 0.  1.
         14    1    4    4    0    0  0.92619167401E+02 -0.69802221226E+02 -0.18269583117E+03  0.21639876844E+03  0.00000000000E+00 0. -1.
         -5    1    5    5    0  501  0.28100244091E+02  0.66950545810E+02 -0.28453480813E+02  0.78126115177E+02  0.47000000000E+01 0.  1.
         13    1    6    6    0    0 -0.63229516421E+02 -0.21397607021E+02 -0.22946936496E+02  0.70586055475E+02  0.00000000000E+00 0. -1.
        -14    1    6    6    0    0 -0.15420314504E+02  0.24362082693E+02 -0.76612916659E+02  0.81858635290E+02  0.00000000000E+00 0.  1.
</event>
<event>
12    1  0.2625820E-002  0.2455605E+03  0.7818608E-02  0.1116143E+00
          1   -1    0    0  502    0  0.00000000000E+00  0.00000000000E+00  0.22773788540E+04  0.22773788540E+04  0.00000000000E+00 0.  1.
         -1   -1    0    0    0  501 -0.00000000000E+00 -0.00000000000E+00 -0.41949881036E+02  0.41949881036E+02  0.00000000000E+00 0. -1.
          6    2    1    2  502    0  0.63224023248E+02 -0.15844593070E+03  0.41344417139E+03  0.48087066726E+03  0.17662991170E+03 0.  0.
         24    2    3    3    0    0  0.84624920857E+01 -0.16889452794E+03  0.30162713908E+03  0.35583812272E+03  0.83933683422E+02 0.  0.
         -6    2    1    2    0  501 -0.63224023248E+02  0.15844593070E+03  0.18219848015E+04  0.18384580677E+04  0.17662689410E+03 0.  0.
        -24    2    5    5    0    0  0.11712182837E+02  0.59069187561E+02  0.12101176185E+04  0.12140425717E+04  0.76735722162E+02 0.  0.
          5    1    3    3  502    0  0.54761531163E+02  0.10448597237E+02  0.11181703231E+03  0.12503254454E+03  0.47000000000E+01 0. -1.
        -13    1    4    4    0    0  0.41490924209E+02 -0.10000287426E+03  0.21216132725E+03  0.23819005108E+03  0.00000000000E+00 0.  1.
         14    1    4    4    0    0 -0.33028432123E+02 -0.68891653681E+02  0.89465811826E+02  0.11764807164E+03  0.00000000000E+00 0. -1.
         -5    1    5    5    0  501 -0.74936206086E+02  0.99376743143E+02  0.61186718302E+03  0.62441549606E+03  0.47000000000E+01 0.  1.
         13    1    6    6    0    0  0.28061796066E+02  0.21046320639E+02  0.19828046366E+03  0.20135926668E+03  0.00000000000E+00 0. -1.
        -14    1    6    6    0    0 -0.16349613229E+02  0.38022866922E+02  0.10118371549E+04  0.10126833050E+04  0.00000000000E+00 0.  1.
</event>
<event>
12    1  0.2625820E-002  0.2004720E+03  0.7818608E-02  0.1149341E+00
          2   -1    0    0  502    0  0.00000000000E+00  0.00000000000E+00  0.12112294530E+04  0.12112294530E+04  0.00000000000E+00 0. -1.
         -2   -1    0    0    0  501 -0.00000000000E+00 -0.00000000000E+00 -0.34616015245E+02  0.34616015245E+02  0.00000000000E+00 0.  1.
          6    2    1    2  502    0 -0.40396229280E+02  0.95223494692E+02  0.71543969227E+03  0.74302221376E+03  0.17183913285E+03 0.  0.
         24    2    3    3    0    0 -0.70262501831E+02  0.95747114116E+02  0.68635937802E+03  0.70106958463E+03  0.79404267399E+02 0.  0.
         -6    2    1    2    0  501  0.40396229280E+02 -0.95223494692E+02  0.46117374552E+03  0.50282325452E+03  0.17161186571E+03 0.  0.
        -24    2    5    5    0    0 -0.43654068388E+02 -0.51142367121E+02  0.26433525708E+03  0.28424814414E+03  0.80016622728E+02 0.  0.
          5    1    3    3  502    0  0.29866272550E+02 -0.52361942390E+00  0.29080314258E+02  0.41952629127E+02  0.47000000000E+01 0. -1.
        -11    1    4    4    0    0 -0.47218322722E+02  0.60903965931E+02  0.22517566192E+03  0.23799777685E+03  0.00000000000E+00 0.  1.
         12    1    4    4    0    0 -0.23044179109E+02  0.34843148186E+02  0.46118371610E+03  0.46307180778E+03  0.00000000000E+00 0. -1.
         -5    1    5    5    0  501  0.84050297668E+02 -0.44081127571E+02  0.19683848844E+03  0.21857511038E+03  0.47000000000E+01 0.  1.
         11    1    6    6    0    0  0.18485788809E+02 -0.34663017931E+02  0.82317471770E+02  0.91210829174E+02  0.00000000000E+00 0. -1.
        -12    1    6    6    0    0 -0.62139857197E+02 -0.16479349191E+02  0.18201778531E+03  0.19303731497E+03  0.00000000000E+00 0.  1.
</event>
<event>
12    1  0.2625820E-002  0.2057101E+03  0.7818608E-02  0.1145009E+00
         -2   -1    0    0    0  501 -0.00000000000E+00  0.00000000000E+00  0.14143863080E+03  0.14143863080E+03  0.00000000000E+00 0.  1.
          2   -1    0    0  502    0  0.00000000000E+00 -0.00000000000E+00 -0.31838569915E+03  0.31838569915E+03  0.00000000000E+00 0. -1.
          6    2    1    2  502    0 -0.10726916474E+03 -0.24849052821E+02 -0.14363312537E+03  0.24848130311E+03  0.17025960813E+03 0.  0.
         24    2    3    3    0    0 -0.12948643139E+03 -0.58376613982E+02 -0.11681123220E+03  0.19990962157E+03  0.78386400926E+02 0.  0.
         -6    2    1    2    0  501  0.10726916474E+03  0.24849052821E+02 -0.33313942977E+02  0.21134302684E+03  0.17729045961E+03 0.  0.
        -24    2    5    5    0    0  0.13164343300E+03  0.35701240054E+02 -0.63986651536E+02  0.17041895115E+03  0.79647695158E+02 0.  0.
          5    1    3    3  502    0  0.22217266657E+02  0.33527561161E+02 -0.26821893167E+02  0.48571681546E+02  0.47000000000E+01 0. -1.
        -13    1    4    4    0    0 -0.11518628398E+03 -0.29187372139E+02 -0.56896411296E+02  0.13174590820E+03  0.00000000000E+00 0.  1.
         14    1    4    4    0    0 -0.14300147419E+02 -0.29189241843E+02 -0.59914820908E+02  0.68163713367E+02  0.00000000000E+00 0. -1.
         -5    1    5    5    0  501 -0.24374268260E+02 -0.10852187233E+02  0.30672708558E+02  0.40924075692E+02  0.47000000000E+01 0.  1.
         11    1    6    6    0    0  0.80813817390E+02  0.51903365043E+01 -0.74703259400E+02  0.11017436017E+03  0.00000000000E+00 0. -1.
        -12    1    6    6    0    0  0.50829615608E+02  0.30510903550E+02  0.10716607864E+02  0.60244590980E+02  0.00000000000E+00 0.  1.
</event>
<event>
12    1  0.2625820E-002  0.1783803E+03  0.7818608E-02  0.1169380E+00
          2   -1    0    0  502    0  0.00000000000E+00  0.00000000000E+00  0.13164260955E+04  0.13164260955E+04  0.00000000000E+00 0.  1.
         -2   -1    0    0    0  501 -0.00000000000E+00 -0.00000000000E+00 -0.28075566051E+02  0.28075566051E+02  0.00000000000E+00 0. -1.
          6    2    1    2  502    0 -0.28732920364E+02 -0.35651977308E+02  0.89707124865E+03  0.91477409505E+03  0.17314206776E+03 0.  0.
         24    2    3    3    0    0  0.23025753394E+01  0.10587581983E+02  0.21638624394E+03  0.23179864566E+03  0.82402711229E+02 0.  0.
         -6    2    1    2    0  501  0.28732920364E+02  0.35651977308E+02  0.39127928075E+03  0.42972756645E+03  0.17166729922E+03 0.  0.
        -24    2    5    5    0    0  0.79174810252E+01 -0.40100000938E+02  0.14664767566E+03  0.17274827364E+03  0.81643913969E+02 0.  0.
          5    1    3    3  502    0 -0.31035495704E+02 -0.46239559290E+02  0.68068500471E+03  0.68297544940E+03  0.47000000000E+01 0. -1.
        -11    1    4    4    0    0 -0.13791641645E+02 -0.17823097024E+02  0.18546281345E+03  0.18682699842E+03  0.00000000000E+00 0.  1.
         12    1    4    4    0    0  0.16094216985E+02  0.28410679007E+02  0.30923430490E+02  0.44971647237E+02  0.00000000000E+00 0. -1.
         -5    1    5    5    0  501  0.20815439339E+02  0.75751978246E+02  0.24463160510E+03  0.25697929282E+03  0.47000000000E+01 0.  1.
         11    1    6    6    0    0 -0.40725379228E+01 -0.19671002308E+02 -0.38024032894E+01  0.20444856754E+02  0.00000000000E+00 0. -1.
        -12    1    6    6    0    0  0.11990018948E+02 -0.20428998630E+02  0.15045007894E+03  0.15230341688E+03  0.00000000000E+00 0.  1.
</event>
<event>
12    1  0.2625820E-002  0.1961057E+03  0.7818608E-02  0.1153067E+00
         -2   -1    0    0    0  501 -0.00000000000E+00  0.00000000000E+00  0.16737318068E+02  0.16737318068E+02  0.00000000000E+00 0. -1.
          2   -1    0    0  502    0  0.00000000000E+00 -0.00000000000E+00 -0.26373223498E+04  0.26373223498E+04  0.00000000000E+00 0.  1.
          6    2    1    2  502    0 -0.11325292262E+02  0.81867447053E+02 -0.86185779154E+03  0.88493062182E+03  0.18295576369E+03 0.  0.
         24    2    3    3    0    0  0.94741308954E+01 -0.51093686561E+01 -0.56961088292E+03  0.57927079772E+03  0.10479615613E+03 0.  0.
         -6    2    1    2    0  501  0.11325292262E+02 -0.81867447053E+02 -0.17587272402E+04  0.17691290461E+04  0.17281647792E+03 0.  0.
        -24    2    5    5    0    0  0.26775253249E+02  0.17754205339E+02 -0.10293545349E+04  0.10328072359E+04  0.78025008482E+02 0.  0.
          5    1    3    3  502    0 -0.20799423158E+02  0.86976815710E+02 -0.29224690862E+03  0.30565982411E+03  0.47000000000E+01 0. -1.
        -13    1    4    4    0    0 -0.28651728990E+02 -0.11921912909E+02 -0.54578711605E+02  0.62784467362E+02  0.00000000000E+00 0.  1.
         14    1    4    4    0    0  0.38125859886E+02  0.68125442530E+01 -0.51503217132E+03  0.51648633035E+03  0.00000000000E+00 0. -1.
         -5    1    5    5    0  501 -0.15449960986E+02 -0.99621652392E+02 -0.72937270528E+03  0.73632181016E+03  0.47000000000E+01 0.  1.
         11    1    6    6    0    0  0.40058491306E+02 -0.99557033595E+01 -0.83668484746E+03  0.83770241299E+03  0.00000000000E+00 0. -1.
        -12    1    6    6    0    0 -0.13283238058E+02  0.27709908698E+02 -0.19266968748E+03  0.19510482292E+03  0.00000000000E+00 0.  1.
</event>
<event>
12    1  0.2625820E-002  0.1926656E+03  0.7818608E-02  0.1156079E+00
         -1   -1    0    0    0  501 -0.00000000000E+00  0.00000000000E+00  0.35723667070E+02  0.35723667070E+02  0.00000000000E+00 0. -1.
          1   -1    0    0  502    0  0.00000000000E+00 -0.00000000000E+00 -0.10695846461E+04  0.10695846461E+04  0.00000000000E+00 0.  1.
          6    2    1    2  502    0 -0.42818792851E+02 -0.73958527114E+02 -0.42445819744E+03  0.46627196203E+03  0.17303603223E+03 0.  0.
         24    2    3    3    0    0 -0.88791742937E+02 -0.10832759647E+01 -0.23786321544E+03  0.26068963867E+03  0.59118790185E+02 0.  0.
         -6    2    1    2    0  501  0.42818792851E+02  0.73958527114E+02 -0.60940278158E+03  0.63903635112E+03  0.17231481395E+03 0.  0.
        -24    2    5    5    0    0  0.16834993080E+02  0.97302132023E+02 -0.27447074752E+03  0.30225505832E+03  0.79201055238E+02 0.  0.
          5    1    3    3  502    0  0.45972950086E+02 -0.72875251150E+02 -0.18659498200E+03  0.20558232336E+03  0.47000000000E+01 0. -1.
        -13    1    4    4    0    0 -0.66109996028E+02 -0.20575203056E+02 -0.20440824683E+03  0.21581612990E+03  0.00000000000E+00 0.  1.
         14    1    4    4    0    0 -0.22681746910E+02  0.19491927091E+02 -0.33454968608E+02  0.44873508768E+02  0.00000000000E+00 0. -1.
         -5    1    5    5    0  501  0.25983799772E+02 -0.23343604908E+02 -0.33493203406E+03  0.33678129280E+03  0.47000000000E+01 0.  1.
         11    1    6    6    0    0 -0.27580068101E+02  0.57631983811E+02 -0.10837787738E+03  0.12580886304E+03  0.00000000000E+00 0. -1.
        -12    1    6    6    0    0  0.44415061181E+02  0.39670148212E+02 -0.16609287014E+03  0.17644619528E+03  0.00000000000E+00 0.  1.
</event>
<event>
12    1  0.2625820E-002  0.1951813E+03  0.7818608E-02  0.1153869E+00
          2   -1    0    0  502    0  0.00000000000E+00  0.00000000000E+00  0.85008455647E+03  0.85008455647E+03  0.00000000000E+00 0.  1.
         -2   -1    0    0    0  501 -0.00000000000E+00 -0.00000000000E+00 -0.57952857415E+02  0.57952857415E+02  0.00000000000E+00 0. -1.
          6    2    1    2  502    0 -0.35083233461E+02 -0.82430077398E+02  0.61413564617E+03  0.64477585719E+03  0.17477918410E+03 0.  0.
         24    2    3    3    0    0 -0.67680590657E+02 -0.75406596882E+02  0.27375526090E+03  0.30273373457E+03  0.80243092971E+02 0.  0.
         -6    2    1    2    0  501  0.35083233461E+02  0.82430077398E+02  0.17799605289E+03  0.26326155670E+03  0.17204215024E+03 0.  0.
        -24    2    5    5    0    0  0.56341433331E+02  0.67798638794E+02  0.19739632852E+03  0.23063563523E+03  0.80352182247E+02 0.  0.
          5    1    3    3  502    0  0.32597357196E+02 -0.70234805164E+01  0.34038038527E+03  0.34204212262E+03  0.47000000000E+01 0. -1.
        -13    1    4    4    0    0  0.15218143663E+02 -0.13169065240E+02  0.85381180394E+02  0.87720933313E+02  0.00000000000E+00 0.  1.
         14    1    4    4    0    0 -0.82898734320E+02 -0.62237531642E+02  0.18837408051E+03  0.21501280125E+03  0.00000000000E+00 0. -1.
         -5    1    5    5    0  501 -0.21258199870E+02  0.14631438604E+02 -0.19400275628E+02  0.32625921470E+02  0.47000000000E+01 0.  1.
         11    1    6    6    0    0  0.57658331560E+02  0.71634784329E+02  0.11099223210E+03  0.14413639759E+03  0.00000000000E+00 0. -1.
        -12    1    6    6    0    0 -0.13168982298E+01 -0.38361455352E+01  0.86404096420E+02  0.86499237636E+02  0.00000000000E+00 0.  1.
</event>
<event>
12    1  0.2625820E-002  0.2100052E+03  0.7818608E-02  0.1141562E+00
         -2   -1    0    0    0  501 -0.00000000000E+00  0.00000000000E+00  0.22064322250E+03  0.22064322250E+03  0.00000000000E+00 0.  1.
          2   -1    0    0  502    0  0.00000000000E+00 -0.00000000000E+00 -0.32238364109E+03  0.32238364109E+03  0.00000000000E+00 0. -1.
          6    2    1    2  502    0  0.84928174039E+02  0.87190635765E+02 -0.21838675301E+03  0.30367282461E+03  0.17236417496E+03 0.  0.
         24    2    3    3    0    0  0.37584350471E+02  0.12177396601E+03 -0.13824019860E+03  0.20425952297E+03  0.79813019095E+02 0.  0.
         -6    2    1    2    0  501 -0.84928174039E+02 -0.87190635765E+02  0.11664633442E+03  0.23935403898E+03  0.16990876061E+03 0.  0.
        -24    2    5    5    0    0 -0.25246400691E+02 -0.97056488687E+02  0.24671871876E+02  0.12916946254E+03  0.77580319980E+02 0.  0.
          5    1    3    3  502    0  0.47343823568E+02 -0.34583330241E+02 -0.80146554403E+02  0.99413301641E+02  0.47000000000E+01 0. -1.
        -13    1    4    4    0    0 -0.86967657683E+01  0.75618724382E+02 -0.39260791360E+02  0.85645986188E+02  0.00000000000E+00 0.  1.
         14    1    4    4    0    0  0.46281116239E+02  0.46155241624E+02 -0.98979407243E+02  0.11861353678E+03  0.00000000000E+00 0. -1.
         -5    1    5    5    0  501 -0.59681773348E+02  0.98658529215E+01  0.91974462543E+02  0.11018457643E+03  0.47000000000E+01 0.  1.
         13    1    6    6    0    0 -0.21515788088E+02 -0.48896303314E+02 -0.25784925361E+02  0.59318125313E+02  0.00000000000E+00 0. -1.
        -14    1    6    6    0    0 -0.37306126027E+01 -0.48160185373E+02  0.50456797238E+02  0.69851337231E+02  0.00000000000E+00 0.  1.
</event>
<event>
12    1  0.2625820E-002  0.2902715E+03  0.7818608E-02  0.1090207E+00
          2   -1    0    0  502    0  0.00000000000E+00  0.00000000000E+00  0.74293581514E+03  0.74293581514E+03  0.00000000000E+00 0. -1.
         -2   -1    0    0    0  501 -0.00000000000E+00 -0.00000000000E+00 -0.12371748441E+03  0.12371748441E+03  0.00000000000E+00 0.  1.
          6    2    1    2  502    0 -0.22701142008E+03  0.55148676922E+02  0.43488696762E+03  0.52298159607E+03  0.17264852681E+03 0.  0.
         24    2    3    3    0    0 -0.14124731187E+03 -0.30087808834E+02  0.29550884082E+03  0.33840344733E+03  0.79594841630E+02 0.  0.
         -6    2    1    2    0  501  0.22701142008E+03 -0.55148676922E+02  0.18433136311E+03  0.34367170348E+03  0.17192040871E+03 0.  0.
        -24    2    5    5    0    0  0.80452467410E+02  0.32841709108E+02  0.92681032192E+02  0.14965183903E+03  0.79086799332E+02 0.  0.
          5    1    3    3  502    0 -0.85764108209E+02  0.85236485756E+02  0.13937812680E+03  0.18457814874E+03  0.47000000000E+01 0. -1.
        -11    1    4    4    0    0 -0.94053062871E+02 -0.40086496676E+02  0.12653295197E+03  0.16267603937E+03  0.00000000000E+00 0.  1.
         12    1    4    4    0    0 -0.47194249000E+02  0.99986878421E+01  0.16897588885E+03  0.17572740796E+03  0.00000000000E+00 0. -1.
         -5    1    5    5    0  501  0.14655895267E+03 -0.87990386031E+02  0.91650330919E+02  0.19401986445E+03  0.47000000000E+01 0.  1.
         11    1    6    6    0    0  0.58519509661E+01 -0.16287576074E+02 -0.42686267406E+01  0.17825589435E+02  0.00000000000E+00 0. -1.
        -12    1    6    6    0    0  0.74600516444E+02  0.49129285182E+02  0.96949658933E+02  0.13182624960E+03  0.00000000000E+00 0.  1.
</event>
<event>
12    1  0.2625820E-002  0.3783872E+03  0.7818608E-02  0.1051531E+00
          2   -1    0    0  502    0  0.00000000000E+00  0.00000000000E+00  0.14667108598E+04  0.14667108598E+04  0.00000000000E+00 0. -1.
         -2   -1    0    0    0  501 -0.00000000000E+00 -0.00000000000E+00 -0.98650889846E+02  0.98650889846E+02  0.00000000000E+00 0.  1.
          6    2    1    2  502    0 -0.24150492985E+03 -0.23518131623E+03  0.76438764385E+03  0.85297983650E+03  0.17219537962E+03 0.  0.
         24    2    3    3    0    0 -0.22386543357E+03 -0.12785306247E+03  0.57134155730E+03  0.63135089567E+03  0.75568779461E+02 0.  0.
         -6    2    1    2    0  501  0.24150492985E+03  0.23518131623E+03  0.60367232615E+03  0.71238191319E+03  0.17155999021E+03 0.  0.
        -24    2    5    5    0    0  0.13769474836E+03  0.21311227619E+03  0.48716965192E+03  0.55471593902E+03  0.77452032009E+02 0.  0.
          5    1    3    3  502    0 -0.17639496282E+02 -0.10732825375E+03  0.19304608655E+03  0.22162894083E+03  0.47000000000E+01 0. -1.
        -13    1    4    4    0    0 -0.76151845070E+02 -0.51065058041E+02  0.29310662266E+03  0.30711274136E+03  0.00000000000E+00 0.  1.
         14    1    4    4    0    0 -0.14771358850E+03 -0.76788004429E+02  0.27823493464E+03  0.32423815430E+03  0.00000000000E+00 0. -1.
         -5    1    5    5    0  501  0.10381018149E+03  0.22069040036E+02  0.11650267423E+03  0.15766597417E+03  0.47000000000E+01 0.  1.
         11    1    6    6    0    0  0.21045879897E+02  0.93855833857E+02  0.14433344802E+03  0.17344737192E+03  0.00000000000E+00 0. -1.
        -12    1    6    6    0    0  0.11664886846E+03  0.11925644233E+03  0.34283620390E+03  0.38126856710E+03  0.00000000000E+00 0.  1.
</event>
<event>
12    1  0.2625820E-002  0.1843237E+03  0.7818608E-02  0.1163683E+00
         -2   -1    0    0    0  501 -0.00000000000E+00  0.00000000000E+00  0.63650712326E+02  0.63650712326E+02  0.00000000000E+00 0. -1.
          2   -1    0    0  502    0  0.00000000000E+00 -0.00000000000E+00 -0.18666030283E+04  0.18666030283E+04  0.00000000000E+00 0.  1.
          6    2    1    2  502    0 -0.31723982533E+02 -0.60131124099E+02 -0.17165543347E+04  0.17263871807E+04  0.17097295249E+03 0.  0.
         24    2    3    3    0    0 -0.49558906579E+02 -0.96336796271E+02 -0.10467204117E+04  0.10553219755E+04  0.79649156601E+02 0.  0.
         -6    2    1    2    0  501  0.31723982533E+02  0.60131124099E+02 -0.86397981213E+02  0.20386655989E+03  0.17168226446E+03 0.  0.
        -24    2    5    5    0    0  0.39465260042E+02  0.58065458317E+02  0.10524633597E+02  0.10649984271E+03  0.79387306194E+02 0.  0.
          5    1    3    3  502    0  0.17834924046E+02  0.36205672173E+02 -0.66983392299E+03  0.67106520518E+03  0.47000000000E+01 0. -1.
        -11    1    4    4    0    0 -0.69289488432E+02 -0.59849524037E+02 -0.78733613052E+03  0.79264189969E+03  0.00000000000E+00 0.  1.
         12    1    4    4    0    0  0.19730581853E+02 -0.36487272234E+02 -0.25938428123E+03  0.26268007585E+03  0.00000000000E+00 0. -1.
         -5    1    5    5    0  501 -0.77412775087E+01  0.20656657813E+01 -0.96922614810E+02  0.97366717179E+02  0.47000000000E+01 0.  1.
         13    1    6    6    0    0  0.45448946903E+02  0.21218176953E+02 -0.24043324525E+02  0.55622830403E+02  0.00000000000E+00 0. -1.
        -14    1    6    6    0    0 -0.59836868612E+01  0.36847281364E+02  0.34567958122E+02  0.50877012305E+02  0.00000000000E+00 0.  1.
</event>
<event>
12    1  0.2625820E-002  0.1916956E+03  0.7818608E-02  0.1156941E+00
         -1   -1    0    0    0  501 -0.00000000000E+00  0.00000000000E+00  0.35992822449E+02  0.35992822449E+02  0.00000000000E+00 0.  1.
          1   -1    0    0  502    0  0.00000000000E+00 -0.00000000000E+00 -0.10230064042E+04  0.10230064042E+04  0.00000000000E+00 0. -1.
          6    2    1    2  502    0 -0.38929902707E+02 -0.76578548882E+02 -0.47272532636E+03  0.51051461925E+03  0.17255761594E+03 0.  0.
         24    2    3    3    0    0 -0.91557562304E+02 -0.57892155408E+02 -0.38632808253E+03  0.40753197218E+03  0.71404706643E+02 0.  0.
         -6    2    1    2    0  501  0.38929902707E+02  0.76578548882E+02 -0.51428825537E+03  0.54848460738E+03  0.17018561467E+03 0.  0.
        -24    2    5    5    0    0  0.58214695141E+02  0.11001160422E+03 -0.45147100931E+03  0.47460789378E+03  0.77039449656E+02 0.  0.
          5    1    3    3  502    0  0.52627659597E+02 -0.18686393474E+02 -0.86397243833E+02  0.10298264707E+03  0.47000000000E+01 0. -1.
        -13    1    4    4    0    0 -0.21161106417E+01 -0.35943659702E+02 -0.81583738556E+02  0.89175843107E+02  0.00000000000E+00 0.  1.
         14    1    4    4    0    0 -0.89441451662E+02 -0.21948495706E+02 -0.30474434397E+03  0.31835612908E+03  0.00000000000E+00 0. -1.
         -5    1    5    5    0  501 -0.19284792434E+02 -0.33433055333E+02 -0.62817246064E+02  0.73876713592E+02  0.47000000000E+01 0.  1.
         11    1    6    6    0    0  0.14700550341E+02 -0.95062166353E+01 -0.82257190366E+02  0.84099463149E+02  0.00000000000E+00 0. -1.
        -12    1    6    6    0    0  0.43514144800E+02  0.11951782085E+03 -0.36921381894E+03  0.39050843064E+03  0.00000000000E+00 0.  1.
</event>
<event>
12    1  0.2625820E-002  0.2130502E+03  0.7818608E-02  0.1139173E+00
          1   -1    0    0  502    0  0.00000000000E+00  0.00000000000E+00  0.42927912449E+03  0.42927912449E+03  0.00000000000E+00 0.  1.
         -1   -1    0    0    0  501 -0.00000000000E+00 -0.00000000000E+00 -0.10828952115E+03  0.10828952115E+03  0.00000000000E+00 0. -1.
          6    2    1    2  502    0 -0.10205697411E+03  0.71819317870E+02  0.20166430978E+03  0.29325761908E+03  0.17250477362E+03 0.  0.
         24    2    3    3    0    0 -0.12293596472E+03  0.33987862708E+02  0.19886511377E+03  0.24970217457E+03  0.80841921518E+02 0.  0.
         -6    2    1    2    0  501  0.10205697411E+03 -0.71819317870E+02  0.11932529356E+03  0.24431102657E+03  0.17284591877E+03 0.  0.
        -24    2    5    5    0    0  0.84012546228E+02 -0.11081490228E+03  0.60991361620E+02  0.17170803354E+03  0.80160165296E+02 0.  0.
          5    1    3    3  502    0  0.20878990605E+02  0.37831455162E+02  0.27991960115E+01  0.43555444513E+02  0.47000000000E+01 0. -1.
        -11    1    4    4    0    0 -0.45481085773E+02  0.51998998589E+02  0.11481016735E+03  0.13399178910E+03  0.00000000000E+00 0.  1.
         12    1    4    4    0    0 -0.77454878946E+02 -0.18011135881E+02  0.84054946419E+02  0.11571038547E+03  0.00000000000E+00 0. -1.
         -5    1    5    5    0  501  0.18044427886E+02  0.38995584407E+02  0.58333931936E+02  0.72602993024E+02  0.47000000000E+01 0.  1.
         11    1    6    6    0    0  0.46390565211E+02 -0.37035816015E+02 -0.12867895167E+02  0.60739764031E+02  0.00000000000E+00 0. -1.
        -12    1    6    6    0    0  0.37621981017E+02 -0.73779086262E+02  0.73859256787E+02  0.11096826951E+03  0.00000000000E+00 0.  1.
</event>
<event>
12    1  0.2625820E-002  0.1996222E+03  0.7818608E-02  0.1150058E+00
         -2   -1    0    0    0  501 -0.00000000000E+00  0.00000000000E+00  0.13406069486E+03  0.13406069486E+03  0.00000000000E+00 0.  1.
          2   -1    0    0  502    0  0.00000000000E+00 -0.00000000000E+00 -0.29961996676E+03  0.29961996676E+03  0.00000000000E+00 0. -1.
          6    2    1    2  502    0 -0.85425088787E+02  0.50260733738E+02 -0.10275779589E+03  0.22623509228E+03  0.17549804903E+03 0.  0.
         24    2    3    3    0    0 -0.53637802818E+02 -0.39707122370E+02 -0.41295160037E+02  0.11263759104E+03  0.80797693128E+02 0.  0.
         -6    2    1    2    0  501  0.85425088787E+02 -0.50260733738E+02 -0.62801476009E+02  0.20744556934E+03  0.17107323491E+03 0.  0.
        -24    2    5    5    0    0 -0.14691228440E+02 -0.62198577019E+02 -0.52933521865E+02  0.10602932017E+03  0.65998210752E+02 0.  0.
          5    1    3    3  502    0 -0.31787285969E+02  0.89967856108E+02 -0.61462635854E+02  0.11359750124E+03  0.47000000000E+01 0. -1.
        -11    1    4    4    0    0 -0.61343085588E+02 -0.51833884601E+02 -0.51149251763E+02  0.95215396330E+02  0.00000000000E+00 0.  1.
         12    1    4    4    0    0  0.77052827700E+01  0.12126762231E+02  0.98540917259E+01  0.17422194710E+02  0.00000000000E+00 0. -1.
         -5    1    5    5    0  501  0.10011631723E+03  0.11937843281E+02 -0.98679541441E+01  0.10141624917E+03  0.47000000000E+01 0.  1.
         13    1    6    6    0    0 -0.15033098990E+02 -0.40218581690E+02 -0.67255756354E+02  0.79792638389E+02  0.00000000000E+00 0. -1.
        -14    1    6    6    0    0  0.34187055020E+00 -0.21979995330E+02  0.14322234488E+02  0.26236681782E+02  0.00000000000E+00 0.  1.
</event>
<event>
12    1  0.2625820E-002  0.2046563E+03  0.7818608E-02  0.1145869E+00
         -2   -1    0    0    0  501 -0.00000000000E+00  0.00000000000E+00  0.72371450548E+03  0.72371450548E+03  0.00000000000E+00 0.  1.
          2   -1    0    0  502    0  0.00000000000E+00 -0.00000000000E+00 -0.60708368392E+02  0.60708368392E+02  0.00000000000E+00 0. -1.
          6    2    1    2  502    0  0.50639898494E+02  0.89239776788E+02  0.23680969543E+03  0.30843814157E+03  0.16889972838E+03 0.  0.
         24    2    3    3    0    0 -0.32467785192E+02  0.19130225035E+02  0.91236172417E+02  0.12668012404E+03  0.79395793875E+02 0.  0.
         -6    2    1    2    0  501 -0.50639898494E+02 -0.89239776788E+02  0.42619644166E+03  0.47598473230E+03  0.18544519788E+03 0.  0.
        -24    2    5    5    0    0 -0.57979075790E+02 -0.13212047445E+03  0.37025221122E+03  0.40496033738E+03  0.78030647406E+02 0.  0.
          5    1    3    3  502    0  0.83107683686E+02  0.70109551753E+02  0.14557352301E+03  0.18175801753E+03  0.47000000000E+01 0. -1.
        -13    1    4    4    0    0 -0.32524672623E+02  0.43652726912E+02  0.85720104044E+02  0.10154482327E+03  0.00000000000E+00 0.  1.
         14    1    4    4    0    0  0.56887431893E-01 -0.24522501877E+02  0.55160683728E+01  0.25135300770E+02  0.00000000000E+00 0. -1.
         -5    1    5    5    0  501  0.73391772956E+01  0.42880697658E+02  0.55944230438E+02  0.71024394924E+02  0.47000000000E+01 0.  1.
         11    1    6    6    0    0 -0.50737225260E+02 -0.62014652683E+02  0.11502936106E+03  0.14018501019E+03  0.00000000000E+00 0. -1.
        -12    1    6    6    0    0 -0.72418505298E+01 -0.70105821763E+02  0.25522285016E+03  0.26477532719E+03  0.00000000000E+00 0.  1.
</event>
<event>
12    1  0.2625820E-002  0.2041617E+03  0.7818608E-02  0.1146275E+00
          2   -1    0    0  502    0  0.00000000000E+00  0.00000000000E+00  0.52166404327E+03  0.52166404327E+03  0.00000000000E+00 0. -1.
         -2   -1    0    0    0  501 -0.00000000000E+00 -0.00000000000E+00 -0.12252642172E+03  0.12252642172E+03  0.00000000000E+00 0.  1.
          6    2    1    2  502    0  0.56351029372E+01 -0.10931297395E+03  0.97204107299E+01  0.20459269731E+03  0.17257637366E+03 0.  0.
         24    2    3    3    0    0 -0.49075519750E+02 -0.37232311025E+02 -0.24756785752E+02  0.10764095013E+03  0.84729121804E+02 0.  0.
         -6    2    1    2    0  501 -0.56351029372E+01  0.10931297395E+03  0.38941721082E+03  0.43959776769E+03  0.17210273855E+03 0.  0.
        -24    2    5    5    0    0  0.17637582411E+02  0.14097120247E+03  0.30048109530E+03  0.34225515646E+03  0.81643978682E+02 0.  0.
          5    1    3    3  502    0  0.54710622687E+02 -0.72080662929E+02  0.34477196482E+02  0.96951747175E+02  0.47000000000E+01 0. -1.
        -13    1    4    4    0    0  0.31652643368E+01  0.12023830493E+02 -0.33099484288E+02  0.35357704368E+02  0.00000000000E+00 0.  1.
         14    1    4    4    0    0 -0.52240784087E+02 -0.49256141518E+02  0.83426985367E+01  0.72283245764E+02  0.00000000000E+00 0. -1.
         -5    1    5    5    0  501 -0.23272685349E+02 -0.31658228518E+02  0.88936115523E+02  0.97342611227E+02  0.47000000000E+01 0.  1.
         13    1    6    6    0    0  0.26950953289E+02  0.69602272648E+01  0.34972319221E+02  0.44697446890E+02  0.00000000000E+00 0. -1.
        -14    1    6    6    0    0 -0.93133708780E+01  0.13401097521E+03  0.26550877608E+03  0.29755770957E+03  0.00000000000E+00 0.  1.
</event>
<event>
12    1  0.2625820E-002  0.3004905E+03  0.7818608E-02  0.1084996E+00
         -1   -1    0    0    0  501 -0.00000000000E+00  0.00000000000E+00  0.56372390997E+03  0.56372390997E+03  0.00000000000E+00 0.  1.
          1   -1    0    0  502    0  0.00000000000E+00 -0.00000000000E+00 -0.16221903904E+03  0.16221903904E+03  0.00000000000E+00 0. -1.
          6    2    1    2  502    0  0.36570107226E+02 -0.24493634065E+03  0.16057368253E+03  0.34144139444E+03  0.17165993884E+03 0.  0.
         24    2    3    3    0    0  0.67159851959E+02 -0.22979939480E+03  0.16574519443E+03  0.30660328100E+03  0.95999452483E+02 0.  0.
         -6    2    1    2    0  501 -0.36570107226E+02  0.24493634065E+03  0.24093118841E+03  0.38450155457E+03  0.16870810357E+03 0.  0.
        -24    2    5    5    0    0  0.43105244866E+02  0.11321594183E+03  0.11080386187E+03  0.18287408545E+03  0.80557580049E+02 0.  0.
          5    1    3    3  502    0 -0.30589744733E+02 -0.15136945842E+02 -0.51715119047E+01  0.34838113434E+02  0.47000000000E+01 0. -1.
        -13    1    4    4    0    0  0.70077749998E+02 -0.12145766416E+03  0.13329294623E+03  0.19346799411E+03  0.00000000000E+00 0.  1.
         14    1    4    4    0    0 -0.29178980394E+01 -0.10834173064E+03  0.32452248197E+02  0.11313528690E+03  0.00000000000E+00 0. -1.
         -5    1    5    5    0  501 -0.79675352092E+02  0.13172039882E+03  0.13012732653E+03  0.20162746913E+03  0.47000000000E+01 0.  1.
         13    1    6    6    0    0 -0.48437775057E+01  0.91015467369E+02  0.57203879976E+02  0.10760837033E+03  0.00000000000E+00 0. -1.
        -14    1    6    6    0    0  0.47949022372E+02  0.22200474457E+02  0.53599981897E+02  0.75265715116E+02  0.00000000000E+00 0.  1.
</event>
<event>
12    1  0.2625820E-002  0.2888032E+03  0.7818608E-02  0.1090976E+00
         -1   -1    0    0    0  501 -0.00000000000E+00  0.00000000000E+00  0.70215661586E+03  0.70215661586E+03  0.00000000000E+00 0.  1.
          1   -1    0    0  502    0  0.00000000000E+00 -0.00000000000E+00 -0.13313476483E+03  0.13313476483E+03  0.00000000000E+00 0. -1.
          6    2    1    2  502    0  0.77761175498E+02 -0.21985713772E+03  0.14828009968E+03  0.32552276088E+03  0.17202941164E+03 0.  0.
         24    2    3    3    0    0  0.18266687870E+02 -0.29180441753E+02  0.60955890231E+02  0.10747505051E+03  0.81548119911E+02 0.  0.
         -6    2    1    2    0  501 -0.77761175498E+02  0.21985713772E+03  0.42074175136E+03  0.50976861981E+03  0.16869043537E+03 0.  0.
        -24    2    5    5    0    0 -0.10730719096E+03  0.13791886043E+03  0.22889813691E+03  0.29902491120E+03  0.80530088438E+02 0.  0.
          5    1    3    3  502    0  0.59494487628E+02 -0.19067669597E+03  0.87324209445E+02  0.21804771037E+03  0.47000000000E+01 0. -1.
        -13    1    4    4    0    0 -0.11478477551E+02 -0.50555143399E+02  0.33995779199E+02  0.61994281787E+02  0.00000000000E+00 0.  1.
         14    1    4    4    0    0  0.29745165422E+02  0.21374701646E+02  0.26960111033E+02  0.45480768720E+02  0.00000000000E+00 0. -1.
         -5    1    5    5    0  501  0.29546015457E+02  0.81938277287E+02  0.19184361445E+03  0.21074370861E+03  0.47000000000E+01 0.  1.
         11    1    6    6    0    0 -0.36410961102E+02 -0.97853858232E+00  0.40953122828E+02  0.54807608008E+02  0.00000000000E+00 0. -1.
        -12    1    6    6    0    0 -0.70896229853E+02  0.13889739902E+03  0.18794501408E+03  0.24421730319E+03  0.00000000000E+00 0.  1.
</event>
<event>
12    1  0.2625820E-002  0.1712167E+03  0.7818608E-02  0.1176585E+00
         -2   -1    0    0    0  501 -0.00000000000E+00  0.00000000000E+00  0.58435228605E+03  0.58435228605E+03  0.00000000000E+00 0. -1.
          2   -1    0    0  502    0  0.00000000000E+00 -0.00000000000E+00 -0.50256961958E+02  0.50256961958E+02  0.00000000000E+00 0.  1.
          6    2    1    2  502    0  0.20087333863E+02  0.13007333657E+02  0.25220435512E+03  0.30427820615E+03  0.16853930783E+03 0.  0.
         24    2    3    3    0    0 -0.27600103623E+02 -0.85025991924E+01  0.56868705751E+02  0.10200394971E+03  0.79603367698E+02 0.  0.
         -6    2    1    2    0  501 -0.20087333863E+02 -0.13007333657E+02  0.28189096898E+03  0.33033104186E+03  0.17053852092E+03 0.  0.
        -24    2    5    5    0    0 -0.25561134786E+01 -0.72390465786E+02  0.20690271051E+03  0.23297073693E+03  0.78865197614E+02 0.  0.
          5    1    3    3  502    0  0.47687437486E+02  0.21509932849E+02  0.19533564937E+03  0.20227425644E+03  0.47000000000E+01 0. -1.
        -11    1    4    4    0    0 -0.77768990717E+01 -0.40895980750E+02  0.46959971241E+02  0.62755081863E+02  0.00000000000E+00 0.  1.
         12    1    4    4    0    0 -0.19823204552E+02  0.32393381557E+02  0.99087345105E+01  0.39248867844E+02  0.00000000000E+00 0. -1.
         -5    1    5    5    0  501 -0.17531220384E+02  0.59383132129E+02  0.74988258465E+02  0.97360304936E+02  0.47000000000E+01 0.  1.
         11    1    6    6    0    0  0.11482415263E+02  0.82819155983E+01  0.84667704254E+02  0.85843206661E+02  0.00000000000E+00 0. -1.
        -12    1    6    6    0    0 -0.14038528742E+02 -0.80672381384E+02  0.12223500626E+03  0.14712753027E+03  0.00000000000E+00 0.  1.
</event>
<event>
12    1  0.2625820E-002  0.2409268E+03  0.7818608E-02  0.1119177E+00
         -2   -1    0    0    0  501 -0.00000000000E+00  0.00000000000E+00  0.64752646151E+02  0.64752646151E+02  0.00000000000E+00 0.  1.
          2   -1    0    0  502    0  0.00000000000E+00 -0.00000000000E+00 -0.97508022907E+03  0.97508022907E+03  0.00000000000E+00 0. -1.
          6    2    1    2  502    0 -0.14972968521E+03 -0.78077431158E+02 -0.30713862594E+03  0.39023126773E+03  0.17155536389E+03 0.  0.
         24    2    3    3    0    0 -0.12621337248E+03 -0.88170222892E+02 -0.14448046241E+03  0.22550528444E+03  0.79210010051E+02 0.  0.
         -6    2    1    2    0  501  0.14972968521E+03  0.78077431158E+02 -0.60318895698E+03  0.64960160749E+03  0.17213444382E+03 0.  0.
        -24    2    5    5    0    0  0.14416129521E+03  0.40789952649E+02 -0.29824626249E+03  0.34230126590E+03  0.75980420338E+02 0.  0.
          5    1    3    3  502    0 -0.23516312730E+02  0.10092791735E+02 -0.16265816353E+03  0.16472598329E+03  0.47000000000E+01 0. -1.
        -13    1    4    4    0    0 -0.48841865971E+01  0.79899868428E+01  0.47293498277E+01  0.10491039904E+02  0.00000000000E+00 0.  1.
         14    1    4    4    0    0 -0.12132918588E+03 -0.96160209735E+02 -0.14920981224E+03  0.21501424453E+03  0.00000000000E+00 0. -1.
         -5    1    5    5    0  501  0.55683899985E+01  0.37287478508E+02 -0.30494269448E+03  0.30730034159E+03  0.47000000000E+01 0.  1.
         13    1    6    6    0    0  0.46502193789E+02 -0.22351088585E+02 -0.86325099602E+02  0.10056862338E+03  0.00000000000E+00 0. -1.
        -14    1    6    6    0    0  0.97659101420E+02  0.63141041235E+02 -0.21192116289E+03  0.24173264252E+03  0.00000000000E+00 0.  1.
</event>
<event>
12    1  0.2625820E-002  0.2216325E+03  0.7818608E-02  0.1132672E+00
          2   -1    0    0  502    0  0.00000000000E+00  0.00000000000E+00  0.12133152674E+04  0.12133152674E+04  0.00000000000E+00 0. -1.
         -2   -1    0    0    0  501 -0.00000000000E+00 -0.00000000000E+00 -0.53127311458E+02  0.53127311458E+02  0.00000000000E+00 0.  1.
          6    2    1    2  502    0  0.10550508588E+03 -0.91880851510E+02  0.27268508343E+03  0.35186362535E+03  0.17285092449E+03 0.  0.
         24    2    3    3    0    0  0.81442216519E+02 -0.94421659715E+02  0.10288480385E+03  0.18028360806E+03  0.79803583986E+02 0.  0.
         -6    2    1    2    0  501 -0.10550508588E+03  0.91880851510E+02  0.88750287249E+03  0.91457895348E+03  0.17093829137E+03 0.  0.
        -24    2    5    5    0    0 -0.41736308859E+02  0.39049046184E+02  0.22557564538E+03  0.24747521300E+03  0.84219129514E+02 0.  0.
          5    1    3    3  502    0  0.24062869365E+02  0.25408082052E+01  0.16980027957E+03  0.17158001729E+03  0.47000000000E+01 0. -1.
        -11    1    4    4    0    0  0.64985642158E+02 -0.81495206503E+02  0.11571376476E+03  0.15573784936E+03  0.00000000000E+00 0.  1.
         12    1    4    4    0    0  0.16456574361E+02 -0.12926453212E+02 -0.12828960903E+02  0.24545758701E+02  0.00000000000E+00 0. -1.
         -5    1    5    5    0  501 -0.63768777025E+02  0.52831805326E+02  0.66192722711E+03  0.66710374048E+03  0.47000000000E+01 0.  1.
         11    1    6    6    0    0 -0.53169754515E+02  0.58158790241E+02  0.18715132625E+03  0.20306424253E+03  0.00000000000E+00 0. -1.
        -12    1    6    6    0    0  0.11433445655E+02 -0.19109744057E+02  0.38424319126E+02  0.44410970467E+02  0.00000000000E+00 0.  1.
</event>
<event>
12    1  0.2625820E-002  0.1742626E+03  0.7818608E-02  0.1173474E+00
         -1   -1    0    0    0  501 -0.00000000000E+00  0.00000000000E+00  0.34569314023E+02  0.34569314023E+02  0.00000000000E+00 0. -1.
          1   -1    0    0  502    0  0.00000000000E+00 -0.00000000000E+00 -0.11176097938E+04  0.11176097938E+04  0.00000000000E+00 0.  1.
          6    2    1    2  502    0 -0.15738200769E+02 -0.25895414520E+02 -0.81021822100E+03  0.82893870300E+03  0.17253273378E+03 0.  0.
         24    2    3    3    0    0 -0.46623690652E+02 -0.59168826340E+02 -0.36587229067E+03  0.38225488952E+03  0.81126746157E+02 0.  0.
         -6    2    1    2    0  501  0.15738200769E+02  0.25895414520E+02 -0.27282225874E+03  0.32324040480E+03  0.17068717283E+03 0.  0.
        -24    2    5    5    0    0  0.26054988408E+02  0.27693586805E+01 -0.28352739383E+03  0.29534882035E+03  0.78464073712E+02 0.  0.
          5    1    3    3  502    0  0.30885489883E+02  0.33273411820E+02 -0.44434593033E+03  0.44668381348E+03  0.47000000000E+01 0. -1.
        -11    1    4    4    0    0 -0.43411227249E+02  0.44613110709E+01 -0.10484014037E+03  0.11356008533E+03  0.00000000000E+00 0.  1.
         12    1    4    4    0    0 -0.32124634032E+01 -0.63630137411E+02 -0.26103215030E+03  0.26869480419E+03  0.00000000000E+00 0. -1.
         -5    1    5    5    0  501 -0.10316787639E+02  0.23126055839E+02  0.10705135081E+02  0.27891584447E+02  0.47000000000E+01 0.  1.
         11    1    6    6    0    0 -0.18122512237E+02 -0.21960003211E+02 -0.63812004645E+02  0.69875883734E+02  0.00000000000E+00 0. -1.
        -12    1    6    6    0    0  0.44177500645E+02  0.24729361891E+02 -0.21971538918E+03  0.22547293661E+03  0.00000000000E+00 0.  1.
</event>
<event>
12    1  0.2625820E-002  0.2081332E+03  0.7818608E-02  0.1143053E+00
          2   -1    0    0  502    0  0.00000000000E+00  0.00000000000E+00  0.60709126634E+03  0.60709126634E+03  0.00000000000E+00 0.  1.
         -2   -1    0    0    0  501 -0.00000000000E+00 -0.00000000000E+00 -0.90710453039E+02  0.90710453039E+02  0.00000000000E+00 0. -1.
          6    2    1    2  502    0 -0.11583140342E+03  0.19471132981E+02  0.97085305454E+02  0.22971711504E+03  0.17189635647E+03 0.  0.
         24    2    3    3    0    0 -0.12801609963E+03  0.46424565141E+02  0.11458390174E+03  0.19502929010E+03  0.79772121983E+02 0.  0.
         -6    2    1    2    0  501  0.11583140342E+03 -0.19471132981E+02  0.41929550785E+03  0.46808460434E+03  0.17175108407E+03 0.  0.
        -24    2    5    5    0    0  0.17467207209E+02  0.27158455382E+02  0.21007555105E+03  0.23219286237E+03  0.93483170459E+02 0.  0.
          5    1    3    3  502    0  0.12184696205E+02 -0.26953432161E+02 -0.17498596291E+02  0.34687824939E+02  0.47000000000E+01 0. -1.
        -13    1    4    4    0    0 -0.54551349909E+02  0.58985676703E+02  0.78098991936E+02  0.11204736666E+03  0.00000000000E+00 0.  1.
         14    1    4    4    0    0 -0.73464749719E+02 -0.12561111562E+02  0.36484909809E+02  0.82981923445E+02  0.00000000000E+00 0. -1.
         -5    1    5    5    0  501  0.98364196214E+02 -0.46629588363E+02  0.20921995680E+03  0.23589174197E+03  0.47000000000E+01 0.  1.
         13    1    6    6    0    0 -0.12960230903E+02 -0.22557715690E+02  0.13320695307E+03  0.13572365478E+03  0.00000000000E+00 0. -1.
        -14    1    6    6    0    0  0.30427438112E+02  0.49716171072E+02  0.76868597980E+02  0.96469207583E+02  0.00000000000E+00 0.  1.
</event>
<event>
12    1  0.2625820E-002  0.3611261E+03  0.7818608E-02  0.1058139E+00
         -1   -1    0    0    0  501 -0.00000000000E+00  0.00000000000E+00  0.57323852978E+03  0.57323852978E+03  0.00000000000E+00 0. -1.
          1   -1    0    0  502    0  0.00000000000E+00 -0.00000000000E+00 -0.35762941557E+03  0.35762941557E+03  0.00000000000E+00 0.  1.
          6    2    1    2  502    0  0.13502222451E+03  0.28139402710E+03  0.38763390554E+03  0.52668532593E+03  0.17240588223E+03 0.  0.
         24    2    3    3    0    0  0.34603669219E+02  0.43016483119E+02  0.76215355610E+02  0.12182566758E+03  0.77362013330E+02 0.  0.
         -6    2    1    2    0  501 -0.13502222451E+03 -0.28139402710E+03 -0.17202479134E+03  0.40418261941E+03  0.19067632626E+03 0.  0.
        -24    2    5    5    0    0 -0.49722422883E+02 -0.25852840606E+03 -0.11251343275E+03  0.29758719463E+03  0.81176411476E+02 0.  0.
          5    1    3    3  502    0  0.10041855530E+03  0.23837754398E+03  0.31141854993E+03  0.40485965836E+03  0.47000000000E+01 0. -1.
        -11    1    4    4    0    0 -0.11064934491E+02  0.17835725037E+02  0.65239165505E+02  0.68532434502E+02  0.00000000000E+00 0.  1.
         12    1    4    4    0    0  0.45668603710E+02  0.25180758083E+02  0.10976190105E+02  0.53293233076E+02  0.00000000000E+00 0. -1.
         -5    1    5    5    0  501 -0.85299801631E+02 -0.22865621045E+02 -0.59511358585E+02  0.10659542478E+03  0.47000000000E+01 0.  1.
         13    1    6    6    0    0 -0.12683282059E+02 -0.21050334838E+00  0.15667673090E+01  0.12781420705E+02  0.00000000000E+00 0. -1.
        -14    1    6    6    0    0 -0.37039140824E+02 -0.25831790271E+03 -0.11408020006E+03  0.28480577392E+03  0.00000000000E+00 0.  1.
</event>
<event>
12    1  0.2625820E-002  0.1853507E+03  0.7818608E-02  0.1162723E+00
         -4   -1    0    0    0  501 -0.00000000000E+00  0.00000000000E+00  0.22471888298E+02  0.22471888298E+02  0.00000000000E+00 0.  1.
          4   -1    0    0  502    0  0.00000000000E+00 -0.00000000000E+00 -0.15671734093E+04  0.15671734093E+04  0.00000000000E+00 0. -1.
          6    2    1    2  502    0 -0.52690333306E+02 -0.46931430786E+02 -0.64462790846E+03  0.67051627998E+03  0.17049372696E+03 0.  0.
         24    2    3    3    0    0 -0.17114827107E+02  0.17804206211E+02 -0.17424482146E+03  0.19434545152E+03  0.82455986176E+02 0.  0.
         -6    2    1    2    0  501  0.52690333306E+02  0.46931430786E+02 -0.90007361258E+03  0.91912901766E+03  0.17229861466E+03 0.  0.
        -24    2    5    5    0    0  0.56875284267E+02  0.14935409688E+01 -0.82756456951E+03  0.83332827772E+03  0.79598198001E+02 0.  0.
          5    1    3    3  502    0 -0.35575506199E+02 -0.64735636997E+02 -0.47038308700E+03  0.47617082845E+03  0.47000000000E+01 0. -1.
        -13    1    4    4    0    0  0.25531353286E+02 -0.17284042656E+02 -0.60551910363E+02  0.67949407501E+02  0.00000000000E+00 0.  1.
         14    1    4    4    0    0 -0.42646180393E+02  0.35088248867E+02 -0.11369291110E+03  0.12639604402E+03  0.00000000000E+00 0. -1.
         -5    1    5    5    0  501 -0.41849509606E+01  0.45437889818E+02 -0.72509043075E+02  0.85800739934E+02  0.47000000000E+01 0.  1.
         13    1    6    6    0    0  0.48554577155E+02  0.34162936614E+02 -0.64089549336E+03  0.64363940728E+03  0.00000000000E+00 0. -1.
        -14    1    6    6    0    0  0.83207071117E+01 -0.32669395646E+02 -0.18666907615E+03  0.18968887044E+03  0.00000000000E+00 0.  1.
</event>
<event>
12    1  0.2625820E-002  0.2429816E+03  0.7818608E-02  0.1117822E+00
         -2   -1    0    0    0  501 -0.00000000000E+00  0.00000000000E+00  0.16381506870E+03  0.16381506870E+03  0.00000000000E+00 0.  1.
          2   -1    0    0  502    0  0.00000000000E+00 -0.00000000000E+00 -0.37049205145E+03  0.37049205145E+03  0.00000000000E+00 0. -1.
          6    2    1    2  502    0  0.14233165038E+03  0.97503598002E+02 -0.59670389088E+02  0.25113413806E+03  0.17246028425E+03 0.  0.
         24    2    3    3    0    0  0.41550999338E+02  0.77486443159E+02  0.21682173959E+02  0.11999392445E+03  0.78726049164E+02 0.  0.
         -6    2    1    2    0  501 -0.14233165038E+03 -0.97503598002E+02 -0.14700659367E+03  0.28317298209E+03  0.16973729372E+03 0.  0.
        -24    2    5    5    0    0 -0.81244788191E+02 -0.13121946164E+03 -0.10941266531E+03  0.20377677536E+03  0.75727010554E+02 0.  0.
          5    1    3    3  502    0  0.10078065104E+03  0.20017154843E+02 -0.81352563047E+02  0.13114021362E+03  0.47000000000E+01 0. -1.
        -13    1    4    4    0    0  0.16765193381E+02 -0.12150307825E+02  0.17146128983E+02  0.26882920757E+02  0.00000000000E+00 0.  1.
         14    1    4    4    0    0  0.24785805957E+02  0.89636750984E+02  0.45360449764E+01  0.93111003689E+02  0.00000000000E+00 0. -1.
         -5    1    5    5    0  501 -0.61086862192E+02  0.33715863636E+02 -0.37593928361E+02  0.79396206728E+02  0.47000000000E+01 0.  1.
         11    1    6    6    0    0 -0.93485626613E+02 -0.11985606534E+03 -0.10904269437E+03  0.18707043587E+03  0.00000000000E+00 0. -1.
        -12    1    6    6    0    0  0.12240838422E+02 -0.11363396294E+02 -0.36997093530E+00  0.16706339488E+02  0.00000000000E+00 0.  1.
</event>
<event>
12    1  0.2625820E-002  0.1890137E+03  0.7818608E-02  0.1159354E+00
         -2   -1    0    0    0  501 -0.00000000000E+00  0.00000000000E+00  0.15284074219E+02  0.15284074219E+02  0.00000000000E+00 0. -1.
          2   -1    0    0  502    0  0.00000000000E+00 -0.00000000000E+00 -0.24057981461E+04  0.24057981461E+04  0.00000000000E+00 0.  1.
          6    2    1    2  502    0  0.53005861874E+02  0.54002775657E+02 -0.98343621744E+03  0.10011916106E+04  0.17179035547E+03 0.  0.
         24    2    3    3    0    0  0.10019580920E+03  0.57358556293E+02 -0.75951210664E+03  0.77227623370E+03  0.78884325718E+02 0.  0.
         -6    2    1    2    0  501 -0.53005861874E+02 -0.54002775657E+02 -0.14070778544E+04  0.14198906097E+04  0.17462913239E+03 0.  0.
        -24    2    5    5    0    0 -0.73905083860E+01 -0.12644310163E+02 -0.29085374544E+03  0.30195964821E+03  0.79807454016E+02 0.  0.
          5    1    3    3  502    0 -0.47189947331E+02 -0.33557806365E+01 -0.22392411080E+03  0.22891537692E+03  0.47000000000E+01 0. -1.
        -11    1    4    4    0    0  0.23623714688E+02  0.54981928178E+02 -0.25157685352E+03  0.25859622107E+03  0.00000000000E+00 0.  1.
         12    1    4    4    0    0  0.76572094517E+02  0.23766281154E+01 -0.50793525312E+03  0.51368001263E+03  0.00000000000E+00 0. -1.
         -5    1    5    5    0  501 -0.45615353488E+02 -0.41358465494E+02 -0.11162241090E+04  0.11179309615E+04  0.47000000000E+01 0.  1.
         11    1    6    6    0    0  0.33049124261E+02  0.92819540608E+01 -0.14578510884E+03  0.14977215110E+03  0.00000000000E+00 0. -1.
        -12    1    6    6    0    0 -0.40439632647E+02 -0.21926264224E+02 -0.14506863661E+03  0.15218749712E+03  0.00000000000E+00 0.  1.
</event>
<event>
12    1  0.2625820E-002  0.2729946E+03  0.7818608E-02  0.1099578E+00
         -2   -1    0    0    0  501 -0.00000000000E+00  0.00000000000E+00  0.51873121613E+03  0.51873121613E+03  0.00000000000E+00 0.  1.
          2   -1    0    0  502    0  0.00000000000E+00 -0.00000000000E+00 -0.15220384109E+03  0.15220384109E+03  0.00000000000E+00 0. -1.
          6    2    1    2  502    0  0.19753188727E+03 -0.75335905709E+02  0.26211094794E+03  0.37779659233E+03  0.17127104532E+03 0.  0.
         24    2    3    3    0    0  0.54725220687E+02  0.14937098417E+02  0.13288052693E+03  0.16503956892E+03  0.79767525862E+02 0.  0.
         -6    2    1    2    0  501 -0.19753188727E+03  0.75335905709E+02  0.10441642710E+03  0.29313846489E+03  0.17416378548E+03 0.  0.
        -24    2    5    5    0    0 -0.12051700971E+03  0.10308886677E+03  0.11316416871E+03  0.21067555688E+03  0.80164812147E+02 0.  0.
          5    1    3    3  502    0  0.14280666659E+03 -0.90273004126E+02  0.12923042101E+03  0.21275702341E+03  0.47000000000E+01 0. -1.
        -13    1    4    4    0    0  0.12691705559E+01 -0.87964798119E+00  0.10061835191E+03  0.10063020082E+03  0.00000000000E+00 0.  1.
         14    1    4    4    0    0  0.53456050131E+02  0.15816746399E+02  0.32262175018E+02  0.64409368101E+02  0.00000000000E+00 0. -1.
         -5    1    5    5    0  501 -0.77014877565E+02 -0.27752961057E+02 -0.87477416179E+01  0.82462908008E+02  0.47000000000E+01 0.  1.
         11    1    6    6    0    0 -0.93747684109E+02  0.27780205765E+02  0.62142014971E+02  0.11585334753E+03  0.00000000000E+00 0. -1.
        -12    1    6    6    0    0 -0.26769325601E+02  0.75308661000E+02  0.51022153743E+02  0.94822209357E+02  0.00000000000E+00 0.  1.
</event>
<event>
12    1  0.2625820E-002  0.2119182E+03  0.7818608E-02  0.1140056E+00
         -1   -1    0    0    0  501 -0.00000000000E+00  0.00000000000E+00  0.63985384723E+02  0.63985384723E+02  0.00000000000E+00 0. -1.
          1   -1    0    0  502    0  0.00000000000E+00 -0.00000000000E+00 -0.15094714156E+04  0.15094714156E+04  0.00000000000E+00 0.  1.
          6    2    1    2  502    0 -0.10128615926E+03  0.70675346306E+02 -0.12986571064E+04  0.13158809336E+04  0.17256436703E+03 0.  0.
         24    2    3    3    0    0 -0.17019421453E+02  0.94652363644E+02 -0.69176823379E+03  0.70268278115E+03  0.77272705399E+02 0.  0.
         -6    2    1    2    0  501  0.10128615926E+03 -0.70675346306E+02 -0.14682892442E+03  0.25757586667E+03  0.17185081731E+03 0.  0.
        -24    2    5    5    0    0  0.66989914328E+02  0.10516227670E+02 -0.13126696041E+03  0.16795126723E+03  0.79864720628E+02 0.  0.
          5    1    3    3  502    0 -0.84266737812E+02 -0.23977017339E+02 -0.60688887264E+03  0.61319815247E+03  0.47000000000E+01 0. -1.
        -13    1    4    4    0    0 -0.17287337419E+02  0.73268521918E+02 -0.66064596139E+03  0.66492120935E+03  0.00000000000E+00 0.  1.
         14    1    4    4    0    0  0.26791596556E+00  0.21383841726E+02 -0.31122272395E+02  0.37761571802E+02  0.00000000000E+00 0. -1.
         -5    1    5    5    0  501  0.34296244936E+02 -0.81191573975E+02 -0.15561964008E+02  0.89624599442E+02  0.47000000000E+01 0.  1.
         11    1    6    6    0    0  0.36021320232E+02  0.17732004660E+02 -0.83767356439E+01  0.41013768427E+02  0.00000000000E+00 0. -1.
        -12    1    6    6    0    0  0.30968594096E+02 -0.72157769903E+01 -0.12289022477E+03  0.12693749880E+03  0.00000000000E+00 0.  1.
</event>
<event>
12    1  0.2625820E-002  0.1750125E+03  0.7818608E-02  0.1172719E+00
          2   -1    0    0  502    0  0.00000000000E+00  0.00000000000E+00  0.40969403308E+03  0.40969403308E+03  0.00000000000E+00 0.  1.
         -2   -1    0    0    0  501 -0.00000000000E+00 -0.00000000000E+00 -0.78186541315E+02  0.78186541315E+02  0.00000000000E+00 0. -1.
          6    2    1    2  502    0 -0.45281672091E+01  0.12994810809E+02  0.11201725537E+03  0.20515169926E+03  0.17131837263E+03 0.  0.
         24    2    3    3    0    0 -0.13978404976E+02 -0.54554921056E+02  0.10052400190E+03  0.13582307498E+03  0.71911038949E+02 0.  0.
         -6    2    1    2    0  501  0.45281672091E+01 -0.12994810809E+02  0.21949023639E+03  0.28272887514E+03  0.17768028466E+03 0.  0.
        -24    2    5    5    0    0 -0.35207038337E+02  0.30922585998E+02  0.54605005634E+02  0.10746663270E+03  0.79822481984E+02 0.  0.
          5    1    3    3  502    0  0.94502377671E+01  0.67549731864E+02  0.11493253473E+02  0.69328624277E+02  0.47000000000E+01 0. -1.
        -11    1    4    4    0    0  0.22635643431E+02 -0.29516974406E+02  0.16256297546E+02  0.40594227933E+02  0.00000000000E+00 0.  1.
         12    1    4    4    0    0 -0.36614048408E+02 -0.25037946650E+02  0.84267704355E+02  0.95228847050E+02  0.00000000000E+00 0. -1.
         -5    1    5    5    0  501  0.39735205546E+02 -0.43917396806E+02  0.16488523076E+03  0.17526224244E+03  0.47000000000E+01 0.  1.
         11    1    6    6    0    0 -0.33425274819E+02 -0.20322724989E+02  0.35254480382E+02  0.52660616543E+02  0.00000000000E+00 0. -1.
        -12    1    6    6    0    0 -0.17817635180E+01  0.51245310986E+02  0.19350525252E+02  0.54806016156E+02  0.00000000000E+00 0.  1.
</event>
<event>
12    1  0.2625820E-002  0.2350277E+03  0.7818608E-02  0.1123150E+00
         -1   -1    0    0    0  501 -0.00000000000E+00  0.00000000000E+00  0.18599220610E+03  0.18599220610E+03  0.00000000000E+00 0. -1.
          1   -1    0    0  502    0  0.00000000000E+00 -0.00000000000E+00 -0.33355356006E+03  0.33355356006E+03  0.00000000000E+00 0.  1.
          6    2    1    2  502    0  0.67132252788E+02 -0.14363501846E+03 -0.15906373501E+03  0.28178975679E+03  0.17019529178E+03 0.  0.
         24    2    3    3    0    0  0.49425930416E+02 -0.74770694650E+01 -0.53776227159E+02  0.10870003949E+03  0.80156015443E+02 0.  0.
         -6    2    1    2    0  501 -0.67132252788E+02  0.14363501846E+03  0.11502381052E+02  0.23775600937E+03  0.17679891778E+03 0.  0.
        -24    2    5    5    0    0 -0.21320406577E+02  0.16400972545E+03  0.29079720806E+02  0.18441834152E+03  0.76228241143E+02 0.  0.
          5    1    3    3  502    0  0.17706322372E+02 -0.13615794900E+03 -0.10528750785E+03  0.17308971730E+03  0.47000000000E+01 0. -1.
        -11    1    4    4    0    0  0.31540311262E+02 -0.42210305498E+02 -0.43434610141E+02  0.68286649374E+02  0.00000000000E+00 0.  1.
         12    1    4    4    0    0  0.17885619155E+02  0.34733236033E+02 -0.10341617018E+02  0.40413390113E+02  0.00000000000E+00 0. -1.
         -5    1    5    5    0  501 -0.45811846211E+02 -0.20374706991E+02 -0.17577339753E+02  0.53337667844E+02  0.47000000000E+01 0.  1.
         11    1    6    6    0    0 -0.46660360701E+02  0.11665091637E+03  0.54963078964E+01  0.12575704732E+03  0.00000000000E+00 0. -1.
        -12    1    6    6    0    0  0.25339954124E+02  0.47358809086E+02  0.23583412909E+02  0.58661294202E+02  0.00000000000E+00 0.  1.
</event>
<event>
12    1  0.2625820E-002  0.2372062E+03  0.7818608E-02  0.1121668E+00
          2   -1    0    0  502    0  0.00000000000E+00  0.00000000000E+00  0.29075717232E+02  0.29075717232E+02  0.00000000000E+00 0. -1.
         -2   -1    0    0    0  501 -0.00000000000E+00 -0.00000000000E+00 -0.20437764609E+04  0.20437764609E+04  0.00000000000E+00 0.  1.
          6    2    1    2  502    0 -0.15460792501E+03 -0.57590759319E+02 -0.12461187696E+04  0.12684882757E+04  0.17038254511E+03 0.  0.
         24    2    3    3    0    0 -0.37051620726E+01 -0.28678835013E+02 -0.44336872891E+03  0.45115281152E+03  0.78274042708E+02 0.  0.
         -6    2    1    2    0  501  0.15460792501E+03  0.57590759319E+02 -0.76858197400E+03  0.80436390234E+03  0.17047794752E+03 0.  0.
        -24    2    5    5    0    0  0.17389850820E+02  0.43335473259E+01 -0.18195796769E+03  0.19953752618E+03  0.79908296219E+02 0.  0.
          5    1    3    3  502    0 -0.15090276294E+03 -0.28911924305E+02 -0.80275004071E+03  0.81733546423E+03  0.47000000000E+01 0. -1.
        -11    1    4    4    0    0  0.28527722946E+01  0.18713006986E+01 -0.38441857238E+03  0.38443371193E+03  0.00000000000E+00 0.  1.
         12    1    4    4    0    0 -0.65579343672E+01 -0.30550135712E+02 -0.58950156528E+02  0.66719099588E+02  0.00000000000E+00 0. -1.
         -5    1    5    5    0  501  0.13721807419E+03  0.53257211993E+02 -0.58662400631E+03  0.60482637616E+03  0.47000000000E+01 0.  1.
         11    1    6    6    0    0  0.11784457464E+02 -0.37174891877E+02 -0.10342305042E+03  0.11053132308E+03  0.00000000000E+00 0. -1.
        -12    1    6    6    0    0  0.56053933552E+01  0.41508439203E+02 -0.78534917263E+02  0.89006203094E+02  0.00000000000E+00 0.  1.
</event>
<event>
12    1  0.2625820E-002  0.1970846E+03  0.7818608E-02  0.1152222E+00
          1   -1    0    0  502    0  0.00000000000E+00  0.00000000000E+00  0.17166367429E+04  0.17166367429E+04  0.00000000000E+00 0.  1.
         -1   -1    0    0    0  501 -0.00000000000E+00 -0.00000000000E+00 -0.28516259078E+02  0.28516259078E+02  0.00000000000E+00 0. -1.
          6    2    1    2  502    0 -0.81472100285E+02  0.49117358616E+02  0.12418468628E+04  0.12574462727E+04  0.17302392910E+03 0.  0.
         24    2    3    3    0    0 -0.10412458747E+02  0.38115536339E+01  0.95982521844E+03  0.96306491034E+03  0.78144893184E+02 0.  0.
         -6    2    1    2    0  501  0.81472100285E+02 -0.49117358616E+02  0.44627362096E+03  0.48770672921E+03  0.17218446769E+03 0.  0.
        -24    2    5    5    0    0 -0.23196365242E+02 -0.32360845389E+02  0.17165845543E+03  0.19330590118E+03  0.79468549966E+02 0.  0.
          5    1    3    3  502    0 -0.71059641538E+02  0.45305804983E+02  0.28202164441E+03  0.29438136241E+03  0.47000000000E+01 0. -1.
        -13    1    4    4    0    0 -0.14488507405E+02 -0.35915459844E+02  0.43322099072E+03  0.43494857616E+03  0.00000000000E+00 0.  1.
         14    1    4    4    0    0  0.40760486585E+01  0.39727013478E+02  0.52660422772E+03  0.52811633418E+03  0.00000000000E+00 0. -1.
         -5    1    5    5    0  501  0.10466846553E+03 -0.16756513228E+02  0.27461516552E+03  0.29440082803E+03  0.47000000000E+01 0.  1.
         13    1    6    6    0    0 -0.26004524749E+02 -0.28710231434E+02  0.23985487123E+02  0.45561126950E+02  0.00000000000E+00 0. -1.
        -14    1    6    6    0    0  0.28081595068E+01 -0.36506139547E+01  0.14767296831E+03  0.14774477423E+03  0.00000000000E+00 0.  1.
</event>
<event>
12    1  0.2625820E-002  0.2886924E+03  0.7818608E-02  0.1091034E+00
          2   -1    0    0  502    0  0.00000000000E+00  0.00000000000E+00  0.12520322646E+04  0.12520322646E+04  0.00000000000E+00 0. -1.
         -2   -1    0    0    0  501 -0.00000000000E+00 -0.00000000000E+00 -0.75768430292E+02  0.75768430292E+02  0.00000000000E+00 0.  1.
          6    2    1    2  502    0 -0.17928480750E+03  0.14627891348E+03  0.35618625761E+03  0.45828475958E+03  0.17209214979E+03 0.  0.
         24    2    3    3    0    0 -0.34854359274E+02  0.65811964197E+02  0.67889076960E+02  0.12591081554E+03  0.75488844925E+02 0.  0.
         -6    2    1    2    0  501  0.17928480750E+03 -0.14627891348E+03  0.82007757666E+03  0.86951593527E+03  0.17317669367E+03 0.  0.
        -24    2    5    5    0    0  0.16958019725E+03 -0.82523021411E+02  0.73389270836E+03  0.76177126136E+03  0.78290835262E+02 0.  0.
          5    1    3    3  502    0 -0.14443044823E+03  0.80466949285E+02  0.28829718065E+03  0.33237394404E+03  0.47000000000E+01 0. -1.
        -13    1    4    4    0    0 -0.49328061044E+02  0.68995857692E+02  0.38810266945E+02  0.93273376724E+02  0.00000000000E+00 0.  1.
         14    1    4    4    0    0  0.14473701770E+02 -0.31838934954E+01  0.29078810015E+02  0.32637438818E+02  0.00000000000E+00 0. -1.
         -5    1    5    5    0  501  0.97046102487E+01 -0.63755892071E+02  0.86184868295E+02  0.10774467391E+03  0.47000000000E+01 0.  1.
         13    1    6    6    0    0  0.58952051203E+02 -0.61927515500E+02  0.41193890262E+03  0.42071845813E+03  0.00000000000E+00 0. -1.
        -14    1    6    6    0    0  0.11062814605E+03 -0.20595505911E+02  0.32195380574E+03  0.34105280323E+03  0.00000000000E+00 0.  1.
</event>
<event>
12    1  0.2625820E-002  0.4964642E+03  0.7818608E-02  0.1014706E+00
          2   -1    0    0  502    0  0.00000000000E+00  0.00000000000E+00  0.26090238068E+04  0.26090238068E+04  0.00000000000E+00 0. -1.
         -2   -1    0    0    0  501 -0.00000000000E+00 -0.00000000000E+00 -0.39745550565E+03  0.39745550565E+03  0.00000000000E+00 0.  1.
          6    2    1    2  502    0 -0.25479672447E+03  0.38979003849E+03  0.24182706500E+04  0.24687067002E+04  0.17211098253E+03 0.  0.
         24    2    3    3    0    0 -0.24506127005E+03  0.40297468364E+03  0.23589943304E+04  0.24070269952E+04  0.80505176282E+02 0.  0.
         -6    2    1    2    0  501  0.25479672447E+03 -0.38979003849E+03 -0.20670234879E+03  0.53777261226E+03  0.17209263958E+03 0.  0.
        -24    2    5    5    0    0  0.59216679242E+02 -0.19119100185E+03 -0.96033244717E+02  0.23783449857E+03  0.85336102167E+02 0.  0.
          5    1    3    3  502    0 -0.97354544240E+01 -0.13184645142E+02  0.59276319599E+02  0.61679704973E+02  0.47000000000E+01 0. -1.
        -11    1    4    4    0    0 -0.48550723864E+02  0.47424867381E+02  0.46740337952E+03  0.47230520854E+03  0.00000000000E+00 0.  1.
         12    1    4    4    0    0 -0.19651054618E+03  0.35554981625E+03  0.18915909508E+04  0.19347217867E+04  0.00000000000E+00 0. -1.
         -5    1    5    5    0  501  0.19558004523E+03 -0.19859903665E+03 -0.11066910407E+03  0.29993811369E+03  0.47000000000E+01 0.  1.
         11    1    6    6    0    0  0.62612079735E+02 -0.19522274539E+03 -0.10272721037E+03  0.22931435323E+03  0.00000000000E+00 0. -1.
        -12    1    6    6    0    0 -0.33954004933E+01  0.40317435403E+01  0.66939656570E+01  0.85201453451E+01  0.00000000000E+00 0.  1.
</event>
<event>
12    1  0.2625820E-002  0.2181595E+03  0.7818608E-02  0.1135263E+00
          1   -1    0    0  502    0  0.00000000000E+00  0.00000000000E+00  0.63026544496E+03  0.63026544496E+03  0.00000000000E+00 0.  1.
         -1   -1    0    0    0  501 -0.00000000000E+00 -0.00000000000E+00 -0.80741536314E+02  0.80741536314E+02  0.00000000000E+00 0. -1.
          6    2    1    2  502    0 -0.13045588075E+03 -0.35534601789E+02  0.36468746707E+03  0.42472764436E+03  0.17063170426E+03 0.  0.
         24    2    3    3    0    0 -0.92666564723E+01 -0.34468027889E+02  0.21590629134E+03  0.23277480142E+03  0.79338929078E+02 0.  0.
         -6    2    1    2    0  501  0.13045588075E+03  0.35534601789E+02  0.18483644158E+03  0.28627933691E+03  0.17178446921E+03 0.  0.
        -24    2    5    5    0    0  0.17900723939E+02 -0.14921474826E+02  0.31040923476E+02  0.89074797462E+02  0.80172902431E+02 0.  0.
          5    1    3    3  502    0 -0.12118922428E+03 -0.10665739003E+01  0.14878117573E+03  0.19195284294E+03  0.47000000000E+01 0. -1.
        -11    1    4    4    0    0 -0.41264825353E+02 -0.18540312755E+01  0.10316504946E+03  0.11112718243E+03  0.00000000000E+00 0.  1.
         12    1    4    4    0    0  0.31998168881E+02 -0.32613996613E+02  0.11274124188E+03  0.12164761900E+03  0.00000000000E+00 0. -1.
         -5    1    5    5    0  501  0.11255515681E+03  0.50456076615E+02  0.15379551810E+03  0.19720453945E+03  0.47000000000E+01 0.  1.
         11    1    6    6    0    0 -0.25242191942E-01  0.20712439045E+02 -0.16883620865E+02  0.26721946446E+02  0.00000000000E+00 0. -1.
        -12    1    6    6    0    0  0.17925966131E+02 -0.35633913871E+02  0.47924544342E+02  0.62352851016E+02  0.00000000000E+00 0.  1.
</event>
<event>
12    1  0.2625820E-002  0.1941249E+03  0.7818608E-02  0.1154793E+00
          2   -1    0    0  502    0  0.00000000000E+00  0.00000000000E+00  0.28759037030E+03  0.28759037030E+03  0.00000000000E+00 0.  1.
         -2   -1    0    0    0  501 -0.00000000000E+00 -0.00000000000E+00 -0.19743955470E+03  0.19743955470E+03  0.00000000000E+00 0. -1.
          6    2    1    2  502    0 -0.85728388802E+02 -0.19246760753E+02 -0.95430892135E+02  0.21709287990E+03  0.17407604340E+03 0.  0.
         24    2    3    3    0    0 -0.13230459969E+02 -0.36830751894E+02  0.77186479206E+01  0.89707386054E+02  0.80351031299E+02 0.  0.
         -6    2    1    2    0  501  0.85728388802E+02  0.19246760753E+02  0.18558170773E+03  0.26793704510E+03  0.17213336530E+03 0.  0.
        -24    2    5    5    0    0  0.13291162120E+02 -0.13558870508E+02  0.16654517190E+03  0.18603563518E+03  0.80693651006E+02 0.  0.
          5    1    3    3  502    0 -0.72497928832E+02  0.17583991141E+02 -0.10314954006E+03  0.12738549385E+03  0.47000000000E+01 0. -1.
        -13    1    4    4    0    0  0.33329223647E+02 -0.14025013725E+02  0.10893787531E+02  0.37765232234E+02  0.00000000000E+00 0.  1.
         14    1    4    4    0    0 -0.46559683616E+02 -0.22805738170E+02 -0.31751396100E+01  0.51942153820E+02  0.00000000000E+00 0. -1.
         -5    1    5    5    0  501  0.72437226681E+02  0.32805631261E+02  0.19036535834E+02  0.81901409929E+02  0.47000000000E+01 0.  1.
         11    1    6    6    0    0  0.11803018005E+02  0.21488287181E+02  0.13977552078E+03  0.14190931586E+03  0.00000000000E+00 0. -1.
        -12    1    6    6    0    0  0.14881441159E+01 -0.35047157689E+02  0.26769651121E+02  0.44126319314E+02  0.00000000000E+00 0.  1.
</event>
<event>
12    1  0.2625820E-002  0.1804963E+03  0.7818608E-02  0.1167324E+00
          2   -1    0    0  502    0  0.00000000000E+00  0.00000000000E+00  0.12670312650E+04  0.12670312650E+04  0.00000000000E+00 0. -1.
         -2   -1    0    0    0  501 -0.00000000000E+00 -0.00000000000E+00 -0.35389104122E+02  0.35389104122E+02  0.00000000000E+00 0.  1.
          6    2    1    2  502    0  0.42074806474E+02  0.66479849431E+02  0.25745837911E+03  0.31021270000E+03  0.15413384622E+03 0.  0.
         24    2    3    3    0    0  0.22884932567E+02  0.84703597314E+02  0.11504668444E+03  0.16528672916E+03  0.79909597036E+02 0.  0.
         -6    2    1    2    0  501 -0.42074806474E+02 -0.66479849431E+02  0.97418378182E+03  0.99220766917E+03  0.17103262343E+03 0.  0.
        -24    2    5    5    0    0 -0.43399480168E+02 -0.67198273680E+02  0.36486976829E+03  0.38287366554E+03  0.84042686106E+02 0.  0.
          5    1    3    3  502    0  0.19189873907E+02 -0.18223747883E+02  0.14241169466E+03  0.14492597084E+03  0.47000000000E+01 0. -1.
        -13    1    4    4    0    0  0.49348929996E+02  0.62619223503E+02  0.99425699682E+02  0.12744392414E+03  0.00000000000E+00 0.  1.
         14    1    4    4    0    0 -0.26463997429E+02  0.22084373811E+02  0.15620984760E+02  0.37842805016E+02  0.00000000000E+00 0. -1.
         -5    1    5    5    0  501  0.13246736947E+01  0.71842424821E+00  0.60931401353E+03  0.60933400363E+03  0.47000000000E+01 0.  1.
         13    1    6    6    0    0 -0.34283946726E+02 -0.87353892682E+02  0.30018702175E+03  0.31451286078E+03  0.00000000000E+00 0. -1.
        -14    1    6    6    0    0 -0.91155334421E+01  0.20155619002E+02  0.64682746535E+02  0.68360804754E+02  0.00000000000E+00 0.  1.
</event>
<event>
12    1  0.2625820E-002  0.1803952E+03  0.7818608E-02  0.1167421E+00
          2   -1    0    0  502    0  0.00000000000E+00  0.00000000000E+00  0.17927092686E+03  0.17927092686E+03  0.00000000000E+00 0. -1.
         -2   -1    0    0    0  501 -0.00000000000E+00 -0.00000000000E+00 -0.18857546305E+03  0.18857546305E+03  0.00000000000E+00 0.  1.
          6    2    1    2  502    0 -0.58962531536E+02 -0.15583273563E+02  0.30778356279E+02  0.18522505602E+03  0.17216734772E+03 0.  0.
         24    2    3    3    0    0 -0.55688454803E+02 -0.34954554810E+00  0.84542903893E+02  0.12905119530E+03  0.80033631864E+02 0.  0.
         -6    2    1    2    0  501  0.58962531536E+02  0.15583273563E+02 -0.40082892465E+02  0.18262133389E+03  0.16740518147E+03 0.  0.
        -24    2    5    5    0    0  0.93524054007E+02  0.19588008813E+02  0.49620250776E+01  0.12551028998E+03  0.81226673151E+02 0.  0.
          5    1    3    3  502    0 -0.32740767330E+01 -0.15233728015E+02 -0.53764547615E+02  0.56173860717E+02  0.47000000000E+01 0. -1.
        -11    1    4    4    0    0  0.17355256210E+02 -0.14316757384E+02  0.13696059439E+02  0.26339257853E+02  0.00000000000E+00 0.  1.
         12    1    4    4    0    0 -0.73043711013E+02  0.13967211836E+02  0.70846844455E+02  0.10271193745E+03  0.00000000000E+00 0. -1.
         -5    1    5    5    0  501 -0.34561522471E+02 -0.40047352497E+01 -0.45044917543E+02  0.57111043909E+02  0.47000000000E+01 0.  1.
         13    1    6    6    0    0  0.71062094479E+01 -0.15946185604E+02  0.24468007146E+02  0.30057651634E+02  0.00000000000E+00 0. -1.
        -14    1    6    6    0    0  0.86417844559E+02  0.35534194417E+02 -0.19505982068E+02  0.95452638348E+02  0.00000000000E+00 0.  1.
</event>
<event>
12    1  0.2625820E-002  0.1744758E+03  0.7818608E-02  0.1173259E+00
          2   -1    0    0  502    0  0.00000000000E+00  0.00000000000E+00  0.70341688820E+03  0.70341688820E+03  0.00000000000E+00 0.  1.
         -2   -1    0    0    0  501 -0.00000000000E+00 -0.00000000000E+00 -0.49154150766E+02  0.49154150766E+02  0.00000000000E+00 0. -1.
          6    2    1    2  502    0 -0.27794832271E+02 -0.18350517627E+01  0.19648468527E+03  0.26255466918E+03  0.17190928610E+03 0.  0.
         24    2    3    3    0    0 -0.80867992664E+02  0.70641512138E+01  0.62019567941E+02  0.11764464901E+03  0.58346398027E+02 0.  0.
         -6    2    1    2    0  501  0.27794832271E+02  0.18350517627E+01  0.45777805216E+03  0.49001636979E+03  0.17256702321E+03 0.  0.
        -24    2    5    5    0    0  0.13848551138E+02 -0.11492241906E+02  0.89264283445E+02  0.12096813005E+03  0.79632419260E+02 0.  0.
          5    1    3    3  502    0  0.53073160394E+02 -0.88992029765E+01  0.13446511733E+03  0.14491002017E+03  0.47000000000E+01 0. -1.
        -13    1    4    4    0    0 -0.90210536547E+01 -0.20129180122E+02  0.21455343022E+02  0.30771659780E+02  0.00000000000E+00 0.  1.
         14    1    4    4    0    0 -0.71846939009E+02  0.27193331335E+02  0.40564224919E+02  0.86872989228E+02  0.00000000000E+00 0. -1.
         -5    1    5    5    0  501  0.13946281133E+02  0.13327293669E+02  0.36851376872E+03  0.36904823973E+03  0.47000000000E+01 0.  1.
         13    1    6    6    0    0 -0.18395788466E+02  0.17356474243E+02  0.43446087968E+01  0.25661797619E+02  0.00000000000E+00 0. -1.
        -14    1    6    6    0    0  0.32244339604E+02 -0.28848716149E+02  0.84919674648E+02  0.95306332435E+02  0.00000000000E+00 0.  1.
</event>
<event>
12    1  0.2625820E-002  0.2043816E+03  0.7818608E-02  0.1146094E+00
         -2   -1    0    0    0  501 -0.00000000000E+00  0.00000000000E+00  0.18397328673E+02  0.18397328673E+02  0.00000000000E+00 0.  1.
          2   -1    0    0  502    0  0.00000000000E+00 -0.00000000000E+00 -0.22736209387E+04  0.22736209387E+04  0.00000000000E+00 0. -1.
          6    2    1    2  502    0 -0.10124034203E+03 -0.38924745248E+02 -0.11768381802E+04  0.11946968656E+04  0.17489355513E+03 0.  0.
         24    2    3    3    0    0 -0.43584606767E+02 -0.73504524302E+02 -0.97178899962E+03  0.97885618039E+03  0.80517259501E+02 0.  0.
         -6    2    1    2    0  501  0.10124034203E+03  0.38924745248E+02 -0.10783854298E+04  0.10973214018E+04  0.17156450945E+03 0.  0.
        -24    2    5    5    0    0  0.82898895353E+02  0.30464759728E+02 -0.10670861513E+04  0.10737048035E+04  0.79804900919E+02 0.  0.
          5    1    3    3  502    0 -0.57655735268E+02  0.34579779054E+02 -0.20504918060E+03  0.21584068521E+03  0.47000000000E+01 0. -1.
        -13    1    4    4    0    0  0.18141618463E+02 -0.10164604249E+02 -0.78784408986E+02  0.81482639864E+02  0.00000000000E+00 0.  1.
         14    1    4    4    0    0 -0.61726225229E+02 -0.63339920053E+02 -0.89300459063E+03  0.89737354053E+03  0.00000000000E+00 0. -1.
         -5    1    5    5    0  501  0.18341446682E+02  0.84599855201E+01 -0.11299278509E+02  0.23616598320E+02  0.47000000000E+01 0.  1.
         11    1    6    6    0    0  0.16752155175E+02 -0.25778271698E+02 -0.21118889332E+03  0.21341486044E+03  0.00000000000E+00 0. -1.
        -12    1    6    6    0    0  0.66146740178E+02  0.56243031426E+02 -0.85589725801E+03  0.86028994303E+03  0.00000000000E+00 0.  1.
</event>
<event>
12    1  0.2625820E-002  0.1801939E+03  0.7818608E-02  0.1167616E+00
         -1   -1    0    0    0  501 -0.00000000000E+00  0.00000000000E+00  0.72371413524E+02  0.72371413524E+02  0.00000000000E+00 0. -1.
          1   -1    0    0  502    0  0.00000000000E+00 -0.00000000000E+00 -0.47311131968E+03  0.47311131968E+03  0.00000000000E+00 0.  1.
          6    2    1    2  502    0  0.49990221237E+02  0.31968836164E+02 -0.25957605284E+03  0.31455536132E+03  0.16746438254E+03 0.  0.
         24    2    3    3    0    0  0.74494997750E+02  0.24744565783E+02 -0.90361359579E+02  0.14335846716E+03  0.78896619540E+02 0.  0.
         -6    2    1    2    0  501 -0.49990221237E+02 -0.31968836164E+02 -0.14116385331E+03  0.23092737188E+03  0.17285597733E+03 0.  0.
        -24    2    5    5    0    0 -0.53039668187E+02  0.42613073161E+02 -0.10412640355E+03  0.14746706389E+03  0.79215822981E+02 0.  0.
          5    1    3    3  502    0 -0.24504776513E+02  0.72242703806E+01 -0.16921469326E+03  0.17119689416E+03  0.47000000000E+01 0. -1.
        -11    1    4    4    0    0  0.26308439862E+02  0.38717616614E+02 -0.79139798416E+02  0.91947243230E+02  0.00000000000E+00 0.  1.
         12    1    4    4    0    0  0.48186557888E+02 -0.13973050831E+02 -0.11221561162E+02  0.51411223926E+02  0.00000000000E+00 0. -1.
         -5    1    5    5    0  501  0.30494469502E+01 -0.74581909325E+02 -0.37037449756E+02  0.83460307989E+02  0.47000000000E+01 0.  1.
         13    1    6    6    0    0  0.10399853046E+02 -0.32581193318E+00  0.69672334073E+01  0.12522197816E+02  0.00000000000E+00 0. -1.
        -14    1    6    6    0    0 -0.63439521233E+02  0.42938885094E+02 -0.11109363696E+03  0.13494486608E+03  0.00000000000E+00 0.  1.
</event>
<event>
12    1  0.2625820E-002  0.1973710E+03  0.7818608E-02  0.1151976E+00
          1   -1    0    0  502    0  0.00000000000E+00  0.00000000000E+00  0.29902610696E+03  0.29902610696E+03  0.00000000000E+00 0. -1.
         -1   -1    0    0    0  501 -0.00000000000E+00 -0.00000000000E+00 -0.26589266179E+03  0.26589266179E+03  0.00000000000E+00 0.  1.
          6    2    1    2  502    0  0.94657772497E+02 -0.16856905892E+02  0.21829390740E+03  0.29430485378E+03  0.17239161169E+03 0.  0.
         24    2    3    3    0    0  0.37227573613E+02 -0.64346713876E+01  0.24979131723E+02  0.92315885740E+02  0.80442330308E+02 0.  0.
         -6    2    1    2    0  501 -0.94657772497E+02  0.16856905892E+02 -0.18516046223E+03  0.27061391497E+03  0.17234629393E+03 0.  0.
        -24    2    5    5    0    0 -0.93688170588E+02 -0.36338940590E+01 -0.20705515130E+03  0.24024484486E+03  0.77814338705E+02 0.  0.
          5    1    3    3  502    0  0.57430198884E+02 -0.10422234505E+02  0.19331477568E+03  0.20198896804E+03  0.47000000000E+01 0. -1.
        -11    1    4    4    0    0  0.51796666310E+02 -0.17912609801E+02 -0.70963637611E+01  0.55264044453E+02  0.00000000000E+00 0.  1.
         12    1    4    4    0    0 -0.14569092696E+02  0.11477938414E+02  0.32075495484E+02  0.37051841287E+02  0.00000000000E+00 0. -1.
         -5    1    5    5    0  501 -0.96960190896E+00  0.20490799951E+02  0.21894689062E+02  0.30369070115E+02  0.47000000000E+01 0.  1.
         13    1    6    6    0    0  0.58757348375E+01  0.78878328981E+00  0.37870013577E+01  0.70347578666E+01  0.00000000000E+00 0. -1.
        -14    1    6    6    0    0 -0.99563905426E+02 -0.44226773488E+01 -0.21084215265E+03  0.23321008699E+03  0.00000000000E+00 0.  1.
</event>
<event>
12    1  0.2625820E-002  0.1727527E+03  0.7818608E-02  0.1175007E+00
          1   -1    0    0  502    0  0.00000000000E+00  0.00000000000E+00  0.29393837730E+03  0.29393837730E+03  0.00000000000E+00 0. -1.
         -1   -1    0    0    0  501 -0.00000000000E+00 -0.00000000000E+00 -0.11961445944E+03  0.11961445944E+03  0.00000000000E+00 0.  1.
          6    2    1    2  502    0  0.83980732303E+01 -0.17444703814E+02  0.16759144818E+03  0.24073398618E+03  0.17172976817E+03 0.  0.
         24    2    3    3    0    0  0.20631134193E+02  0.50428565879E+02  0.62118329295E+02  0.11462650295E+03  0.79447242809E+02 0.  0.
         -6    2    1    2    0  501 -0.83980732303E+01  0.17444703814E+02  0.67324696827E+01  0.17281885055E+03  0.17159890336E+03 0.  0.
        -24    2    5    5    0    0 -0.72528752455E+02  0.78909993229E+01  0.39673309596E+01  0.10775155247E+03  0.79195767199E+02 0.  0.
          5    1    3    3  502    0 -0.12233060963E+02 -0.67873269693E+02  0.10547311889E+03  0.12610748323E+03  0.47000000000E+01 0. -1.
        -11    1    4    4    0    0  0.24963091883E+02  0.12074898344E+02 -0.12653171790E+02  0.30480516445E+02  0.00000000000E+00 0.  1.
         12    1    4    4    0    0 -0.43319576901E+01  0.38353667535E+02  0.74771501085E+02  0.84145986507E+02  0.00000000000E+00 0. -1.
         -5    1    5    5    0  501  0.64130679225E+02  0.95537044915E+01  0.27651387231E+01  0.65067298081E+02  0.47000000000E+01 0.  1.
         13    1    6    6    0    0 -0.54988228004E+02  0.34823847732E+02  0.24573735874E+02  0.69572078341E+02  0.00000000000E+00 0. -1.
        -14    1    6    6    0    0 -0.17540524452E+02 -0.26932848409E+02 -0.20606404914E+02  0.38179474132E+02  0.00000000000E+00 0.  1.
</event>
<event>
12    1  0.2625820E-002  0.2012398E+03  0.7818608E-02  0.1148697E+00
          1   -1    0    0  502    0  0.00000000000E+00  0.00000000000E+00  0.92615231934E+02  0.92615231934E+02  0.00000000000E+00 0.  1.
         -1   -1    0    0    0  501 -0.00000000000E+00 -0.00000000000E+00 -0.63275285361E+03  0.63275285361E+03  0.00000000000E+00 0. -1.
          6    2    1    2  502    0  0.98640856565E+02 -0.34284850509E+02 -0.68478279268E+02  0.21257190273E+03  0.17202345637E+03 0.  0.
         24    2    3    3    0    0  0.55296699982E+01  0.35028807785E+02 -0.25989577257E+02  0.88872848217E+02  0.77235551393E+02 0.  0.
         -6    2    1    2    0  501 -0.98640856565E+02  0.34284850509E+02 -0.47165934241E+03  0.51279618281E+03  0.17202302249E+03 0.  0.
        -24    2    5    5    0    0 -0.94461314743E+02 -0.34202666871E+02 -0.25502192729E+03  0.28550370992E+03  0.79896323891E+02 0.  0.
          5    1    3    3  502    0  0.93111186567E+02 -0.69313658294E+02 -0.42488702011E+02  0.12369905452E+03  0.47000000000E+01 0. -1.
        -13    1    4    4    0    0 -0.44941112204E+01 -0.19925290920E+02  0.96712797437E+01  0.22599732427E+02  0.00000000000E+00 0.  1.
         14    1    4    4    0    0  0.10023781219E+02  0.54954098705E+02 -0.35660857001E+02  0.66273115790E+02  0.00000000000E+00 0. -1.
         -5    1    5    5    0  501 -0.41795418226E+01  0.68487517380E+02 -0.21663741512E+03  0.22729247290E+03  0.47000000000E+01 0.  1.
         11    1    6    6    0    0 -0.46403411744E+02  0.81908368634E+01 -0.18358115135E+03  0.18953207001E+03  0.00000000000E+00 0. -1.
        -12    1    6    6    0    0 -0.48057902999E+02 -0.42393503734E+02 -0.71440775944E+02  0.95971639910E+02  0.00000000000E+00 0.  1.
</event>
<event>
12    1  0.2625820E-002  0.3637366E+03  0.7818608E-02  0.1057114E+00
         -1   -1    0    0    0  501 -0.00000000000E+00  0.00000000000E+00  0.51252981871E+03  0.51252981871E+03  0.00000000000E+00 0.  1.
          1   -1    0    0  502    0  0.00000000000E+00 -0.00000000000E+00 -0.30289206264E+03  0.30289206264E+03  0.00000000000E+00 0. -1.
          6    2    1    2  502    0 -0.29064845864E+03 -0.13538095639E+03 -0.51896792369E+02  0.36742546095E+03  0.17176630180E+03 0.  0.
         24    2    3    3    0    0 -0.54431138846E+02  0.21467136482E+02 -0.22620669111E+02  0.82330515711E+02  0.53320093036E+02 0.  0.
         -6    2    1    2    0  501  0.29064845864E+03  0.13538095639E+03  0.26153454844E+03  0.44799642040E+03  0.17174382900E+03 0.  0.
        -24    2    5    5    0    0  0.12672227570E+03  0.11338902917E+03  0.87634963742E+02  0.20795768629E+03  0.81553082847E+02 0.  0.
          5    1    3    3  502    0 -0.23621731979E+03 -0.15684809288E+03 -0.29276123258E+02  0.28509494524E+03  0.47000000000E+01 0. -1.
        -11    1    4    4    0    0  0.28664068748E+01 -0.46382859744E+01  0.10020859626E+02  0.11408225664E+02  0.00000000000E+00 0.  1.
         12    1    4    4    0    0 -0.57297545721E+02  0.26105422456E+02 -0.32641528737E+02  0.70922290048E+02  0.00000000000E+00 0. -1.
         -5    1    5    5    0  501  0.16392618294E+03  0.21991927230E+02  0.17389958470E+03  0.24003873411E+03  0.47000000000E+01 0.  1.
         11    1    6    6    0    0  0.88649848107E+02  0.28022149920E+02  0.59342662406E+02  0.11029772453E+03  0.00000000000E+00 0. -1.
        -12    1    6    6    0    0  0.38072427592E+02  0.85366879245E+02  0.28292301337E+02  0.97659961754E+02  0.00000000000E+00 0.  1.
</event>
<event>
12    1  0.2625820E-002  0.2075707E+03  0.7818608E-02  0.1143504E+00
          1   -1    0    0  502    0  0.00000000000E+00  0.00000000000E+00  0.19967706492E+03  0.19967706492E+03  0.00000000000E+00 0. -1.
         -1   -1    0    0    0  501 -0.00000000000E+00 -0.00000000000E+00 -0.24600568675E+03  0.24600568675E+03  0.00000000000E+00 0.  1.
          6    2    1    2  502    0 -0.10690371704E+03 -0.43771521963E+02  0.54969172879E+02  0.21454692062E+03  0.17223362137E+03 0.  0.
         24    2    3    3    0    0 -0.35546217718E+02  0.25637448763E+02 -0.14321550369E+02  0.93168206446E+02  0.80959221304E+02 0.  0.
         -6    2    1    2    0  501  0.10690371704E+03  0.43771521963E+02 -0.10129779470E+03  0.23113583105E+03  0.17267940911E+03 0.  0.
        -24    2    5    5    0    0  0.13513799068E+03  0.66817017938E+02 -0.84807263775E+02  0.19085808653E+03  0.80670606759E+02 0.  0.
          5    1    3    3  502    0 -0.71357499318E+02 -0.69408970726E+02  0.69290723248E+02  0.12137871417E+03  0.47000000000E+01 0. -1.
        -11    1    4    4    0    0 -0.45232678076E+02 -0.15434435008E+02 -0.17388111130E+02  0.50858267358E+02  0.00000000000E+00 0.  1.
         12    1    4    4    0    0  0.96864603576E+01  0.41071883771E+02  0.30665607609E+01  0.42309939088E+02  0.00000000000E+00 0. -1.
         -5    1    5    5    0  501 -0.28234273642E+02 -0.23045495975E+02 -0.16490530929E+02  0.40277744514E+02  0.47000000000E+01 0.  1.
         13    1    6    6    0    0  0.54497995739E+02 -0.11480937088E+02 -0.12099820519E+02  0.56993412888E+02  0.00000000000E+00 0. -1.
        -14    1    6    6    0    0  0.80639994940E+02  0.78297955026E+02 -0.72707443256E+02  0.13386467364E+03  0.00000000000E+00 0.  1.
</event>
<event>
12    1  0.2625820E-002  0.1819727E+03  0.7818608E-02  0.1165907E+00
         -2   -1    0    0    0  501 -0.00000000000E+00  0.00000000000E+00  0.48498490851E+02  0.48498490851E+02  0.00000000000E+00 0.  1.
          2   -1    0    0  502    0  0.00000000000E+00 -0.00000000000E+00 -0.17795241836E+04  0.17795241836E+04  0.00000000000E+00 0. -1.
          6    2    1    2  502    0 -0.56261040886E+02 -0.39591342288E+02 -0.15763784038E+04  0.15864437684E+04  0.16462739532E+03 0.  0.
         24    2    3    3    0    0  0.23646101500E+02 -0.44584892391E+02 -0.10185476421E+04  0.10228771480E+04  0.79318408599E+02 0.  0.
         -6    2    1    2    0  501  0.56261040886E+02  0.39591342288E+02 -0.15464728893E+03  0.24157890601E+03  0.17237112505E+03 0.  0.
        -24    2    5    5    0    0 -0.20447235935E+02  0.58280420069E+02 -0.11356939650E+03  0.15245581917E+03  0.80808861875E+02 0.  0.
          5    1    3    3  502    0 -0.79907142385E+02  0.49935501022E+01 -0.55783076176E+03  0.56356662048E+03  0.47000000000E+01 0. -1.
        -13    1    4    4    0    0  0.26627744403E+02  0.10946882876E+02 -0.59473747874E+03  0.59543390870E+03  0.00000000000E+00 0.  1.
         14    1    4    4    0    0 -0.29816429036E+01 -0.55531775266E+02 -0.42381016332E+03  0.42744323926E+03  0.00000000000E+00 0. -1.
         -5    1    5    5    0  501  0.76708276820E+02 -0.18689077781E+02 -0.41077892430E+02  0.89123086838E+02  0.47000000000E+01 0.  1.
         11    1    6    6    0    0 -0.24787044378E+01  0.73683454873E+02 -0.64418531957E+02  0.97903742304E+02  0.00000000000E+00 0. -1.
        -12    1    6    6    0    0 -0.17968531497E+02 -0.15403034804E+02 -0.49150864545E+02  0.54552076870E+02  0.00000000000E+00 0.  1.
</event>
<event>
12    1  0.2625820E-002  0.1753080E+03  0.7818608E-02  0.1172423E+00
         -2   -1    0    0    0  501 -0.00000000000E+00  0.00000000000E+00  0.78555776984E+02  0.78555776984E+02  0.00000000000E+00 0.  1.
          2   -1    0    0  502    0  0.00000000000E+00 -0.00000000000E+00 -0.39190653318E+03  0.39190653318E+03  0.00000000000E+00 0. -1.
          6    2    1    2  502    0  0.35270754688E+01  0.32088076752E+02 -0.16648701470E+03  0.24175993769E+03  0.17230164386E+03 0.  0.
         24    2    3    3    0    0  0.12178252871E+02  0.85659503517E+02 -0.13245772259E+03  0.17753514997E+03  0.80547009976E+02 0.  0.
         -6    2    1    2    0  501 -0.35270754688E+01 -0.32088076752E+02 -0.14686374149E+03  0.22870237247E+03  0.17231869219E+03 0.  0.
        -24    2    5    5    0    0 -0.17425801202E+02 -0.86725134401E+02 -0.11588834241E+03  0.16420471364E+03  0.75552449279E+02 0.  0.
          5    1    3    3  502    0 -0.86511774024E+01 -0.53571426765E+02 -0.34029292111E+02  0.64224787720E+02  0.47000000000E+01 0. -1.
        -11    1    4    4    0    0  0.19628673798E+00  0.91750694045E+01  0.11118608115E+02  0.14416791372E+02  0.00000000000E+00 0.  1.
         12    1    4    4    0    0  0.11981966133E+02  0.76484434112E+02 -0.14357633070E+03  0.16311835860E+03  0.00000000000E+00 0. -1.
         -5    1    5    5    0  501  0.13898725733E+02  0.54637057649E+02 -0.30975399082E+02  0.64497658825E+02  0.47000000000E+01 0.  1.
         13    1    6    6    0    0 -0.25787822815E+02 -0.74138869555E+02 -0.42471961041E+02  0.89249376799E+02  0.00000000000E+00 0. -1.
        -14    1    6    6    0    0  0.83620216128E+01 -0.12586264847E+02 -0.73416381370E+02  0.74955336846E+02  0.00000000000E+00 0.  1.
</event>
<event>
12    1  0.2625820E-002  0.1711067E+03  0.7818608E-02  0.1176699E+00
         -2   -1    0    0    0  501 -0.00000000000E+00  0.00000000000E+00  0.18938976955E+02  0.18938976955E+02  0.00000000000E+00 0.  1.
          2   -1    0    0  502    0  0.00000000000E+00 -0.00000000000E+00 -0.17204064682E+04  0.17204064682E+04  0.00000000000E+00 0. -1.
          6    2    1    2  502    0  0.27202665042E+02 -0.55233678760E+01 -0.11216362811E+04  0.11344113870E+04  0.16748359692E+03 0.  0.
         24    2    3    3    0    0  0.32773543292E+02  0.44998383114E+02 -0.94889612905E+03  0.95428717389E+03  0.84623796346E+02 0.  0.
         -6    2    1    2    0  501 -0.27202665042E+02  0.55233678760E+01 -0.57983121010E+03  0.60493405813E+03  0.17020719700E+03 0.  0.
        -24    2    5    5    0    0 -0.21446537150E+02 -0.25052017398E+02 -0.12741582625E+03  0.15142578177E+03  0.74882688743E+02 0.  0.
          5    1    3    3  502    0 -0.55708782497E+01 -0.50521750990E+02 -0.17274015206E+03  0.18012421309E+03  0.47000000000E+01 0. -1.
        -11    1    4    4    0    0  0.42000901240E+01  0.39854626089E+02 -0.16297301823E+03  0.16782799721E+03  0.00000000000E+00 0.  1.
         12    1    4    4    0    0  0.28573453168E+02  0.51437570246E+01 -0.78592311082E+03  0.78645917668E+03  0.00000000000E+00 0. -1.
         -5    1    5    5    0  501 -0.57561278923E+01  0.30575385274E+02 -0.45241538384E+03  0.45350827636E+03  0.47000000000E+01 0.  1.
         11    1    6    6    0    0 -0.14930264369E+02 -0.25832499552E+01 -0.12712965549E+03  0.12802943131E+03  0.00000000000E+00 0. -1.
        -12    1    6    6    0    0 -0.65162727811E+01 -0.22468767443E+02 -0.28617075971E+00  0.23396350464E+02  0.00000000000E+00 0.  1.
</event>
<event>
12    1  0.2625820E-002  0.1828483E+03  0.7818608E-02  0.1165075E+00
         -2   -1    0    0    0  501 -0.00000000000E+00  0.00000000000E+00  0.98034180560E+02  0.98034180560E+02  0.00000000000E+00 0.  1.
          2   -1    0    0  502    0  0.00000000000E+00 -0.00000000000E+00 -0.34190289764E+03  0.34190289764E+03  0.00000000000E+00 0. -1.
          6    2    1    2  502    0  0.48439492892E+02 -0.43028719462E+02 -0.13237243645E+03  0.22504324825E+03  0.17007100423E+03 0.  0.
         24    2    3    3    0    0  0.91960555265E+02 -0.21062665110E+02 -0.56390697669E+02  0.13464465843E+03  0.77774633863E+02 0.  0.
         -6    2    1    2    0  501 -0.48439492892E+02  0.43028719462E+02 -0.11149628064E+03  0.21489382996E+03  0.17190137401E+03 0.  0.
        -24    2    5    5    0    0  0.25701031278E+01  0.73374553042E+02 -0.11113731168E+03  0.15535336170E+03  0.79954577603E+02 0.  0.
          5    1    3    3  502    0 -0.43521062374E+02 -0.21966054352E+02 -0.75981738779E+02  0.90398589822E+02  0.47000000000E+01 0. -1.
        -13    1    4    4    0    0  0.34357279623E+02 -0.31002864761E+02  0.87762230371E+01  0.47102254481E+02  0.00000000000E+00 0.  1.
         14    1    4    4    0    0  0.57603275643E+02  0.99401996505E+01 -0.65166920707E+02  0.87542403944E+02  0.00000000000E+00 0. -1.
         -5    1    5    5    0  501 -0.51009596020E+02 -0.30345833580E+02 -0.35896895683E+00  0.59540468259E+02  0.47000000000E+01 0.  1.
         13    1    6    6    0    0 -0.12778819530E+02  0.81290242054E+02 -0.61307822417E+02  0.10261603564E+03  0.00000000000E+00 0. -1.
        -14    1    6    6    0    0  0.15348922658E+02 -0.79156890122E+01 -0.49829489263E+02  0.52737326055E+02  0.00000000000E+00 0.  1.
</event>
<event>
12    1  0.2625820E-002  0.1848230E+03  0.7818608E-02  0.1163215E+00
          2   -1    0    0  502    0  0.00000000000E+00  0.00000000000E+00  0.11359908098E+04  0.11359908098E+04  0.00000000000E+00 0.  1.
         -2   -1    0    0    0  501 -0.00000000000E+00 -0.00000000000E+00 -0.86303950293E+02  0.86303950293E+02  0.00000000000E+00 0. -1.
          6    2    1    2  502    0  0.69595933722E+02 -0.42784221671E+02  0.10132021810E+04  0.10290714883E+04  0.16042251973E+03 0.  0.
         24    2    3    3    0    0  0.58478759090E+02 -0.29251813526E+01  0.93735175312E+03  0.94253992137E+03  0.79529066040E+02 0.  0.
         -6    2    1    2    0  501 -0.69595933722E+02  0.42784221671E+02  0.36484678500E+02  0.19322327179E+03  0.17126008694E+03 0.  0.
        -24    2    5    5    0    0 -0.17950322200E+02 -0.38735437941E+02  0.32892712574E+02  0.96539683150E+02  0.80095765572E+02 0.  0.
          5    1    3    3  502    0  0.11117174631E+02 -0.39859040318E+02  0.75850427917E+02  0.86531566969E+02  0.47000000000E+01 0. -1.
        -11    1    4    4    0    0 -0.14963183652E+02 -0.17420898945E+02  0.27976517939E+03  0.28070614561E+03  0.00000000000E+00 0.  1.
         12    1    4    4    0    0  0.73441942742E+02  0.14495717593E+02  0.65758657373E+03  0.66183377576E+03  0.00000000000E+00 0. -1.
         -5    1    5    5    0  501 -0.51645611521E+02  0.81519659611E+02  0.35919659256E+01  0.96683588637E+02  0.47000000000E+01 0.  1.
         11    1    6    6    0    0 -0.45203515453E+02 -0.30396915996E+02  0.20021358294E+01  0.54509988619E+02  0.00000000000E+00 0. -1.
        -12    1    6    6    0    0  0.27253193253E+02 -0.83385219446E+01  0.30890576745E+02  0.42029694531E+02  0.00000000000E+00 0.  1.
</event>
<event>
12    1  0.2625820E-002  0.2535582E+03  0.7818608E-02  0.1111077E+00
         -3   -1    0    0    0  501 -0.00000000000E+00  0.00000000000E+00  0.34514137323E+03  0.34514137323E+03  0.00000000000E+00 0.  1.
          3   -1    0    0  502    0  0.00000000000E+00 -0.00000000000E+00 -0.41737832052E+03  0.41737832052E+03  0.00000000000E+00 0. -1.
          6    2    1    2  502    0  0.11225064931E+03  0.14821336488E+03 -0.31983661427E+03  0.40834120141E+03  0.17285736067E+03 0.  0.
         24    2    3    3    0    0  0.43440202646E+02  0.45349260797E+02 -0.62944253656E+02  0.12315411120E+03  0.85213551596E+02 0.  0.
         -6    2    1    2    0  501 -0.11225064931E+03 -0.14821336488E+03  0.24759966698E+03  0.35417849234E+03  0.17195755159E+03 0.  0.
        -24    2    5    5    0    0 -0.15702446781E+02 -0.12780925931E+03  0.17383479754E+03  0.23088522854E+03  0.80670182361E+02 0.  0.
          5    1    3    3  502    0  0.68810446667E+02  0.10286410408E+03 -0.25689236062E+03  0.28518709021E+03  0.47000000000E+01 0. -1.
        -13    1    4    4    0    0  0.12589039019E+02  0.45927309302E+02  0.56341168176E+01  0.47953570414E+02  0.00000000000E+00 0.  1.
         14    1    4    4    0    0  0.30851163626E+02 -0.57804850507E+00 -0.68578370474E+02  0.75200540783E+02  0.00000000000E+00 0. -1.
         -5    1    5    5    0  501 -0.96548202532E+02 -0.20404105575E+02  0.73764869437E+02  0.12329326380E+03  0.47000000000E+01 0.  1.
         11    1    6    6    0    0  0.14935287771E+02  0.41983445729E+01  0.10903864761E+02  0.18962678732E+02  0.00000000000E+00 0. -1.
        -12    1    6    6    0    0 -0.30637734552E+02 -0.13200760388E+03  0.16293093278E+03  0.21192254981E+03  0.00000000000E+00 0.  1.
</event>
<event>
12    1  0.2625820E-002  0.2225190E+03  0.7818608E-02  0.1132019E+00
          2   -1    0    0  502    0  0.00000000000E+00  0.00000000000E+00  0.19096286493E+03  0.19096286493E+03  0.00000000000E+00 0. -1.
         -2   -1    0    0    0  501 -0.00000000000E+00 -0.00000000000E+00 -0.26468770181E+03  0.26468770181E+03  0.00000000000E+00 0.  1.
          6    2    1    2  502    0 -0.95276957298E+02  0.10495054783E+03 -0.69567360870E+02  0.23427587034E+03  0.17307007148E+03 0.  0.
         24    2    3    3    0    0  0.40094551433E+01  0.17619433821E+02 -0.98057654091E+00  0.85243148582E+02  0.83300136081E+02 0.  0.
         -6    2    1    2    0  501  0.95276957298E+02 -0.10495054783E+03 -0.41574760086E+01  0.22137469640E+03  0.16999163367E+03 0.  0.
        -24    2    5    5    0    0  0.12981109286E+03 -0.90479962685E+02 -0.23365580182E+02  0.17903032701E+03  0.80426141103E+02 0.  0.
          5    1    3    3  502    0 -0.99286412441E+02  0.87331114005E+02 -0.68586784329E+02  0.14903272175E+03  0.47000000000E+01 0. -1.
        -11    1    4    4    0    0 -0.15723996995E+02  0.38257532978E+02 -0.24652999569E+02  0.48152396606E+02  0.00000000000E+00 0.  1.
         12    1    4    4    0    0  0.19733452139E+02 -0.20638099158E+02  0.23672423028E+02  0.37090751977E+02  0.00000000000E+00 0. -1.
         -5    1    5    5    0  501 -0.34534135565E+02 -0.14470585141E+02  0.19208104173E+02  0.42344369395E+02  0.47000000000E+01 0.  1.
         11    1    6    6    0    0  0.64592674904E+02 -0.29416851764E+01  0.87330192687E+01  0.65246707108E+02  0.00000000000E+00 0. -1.
        -12    1    6    6    0    0  0.65218417959E+02 -0.87538277508E+02 -0.32098599450E+02  0.11378361990E+03  0.00000000000E+00 0.  1.
</event>
<event>
12    1  0.2625820E-002  0.1749678E+03  0.7818608E-02  0.1172764E+00
          2   -1    0    0  502    0  0.00000000000E+00  0.00000000000E+00  0.64965126661E+03  0.64965126661E+03  0.00000000000E+00 0.  1.
         -2   -1    0    0    0  501 -0.00000000000E+00 -0.00000000000E+00 -0.47228749130E+02  0.47228749130E+02  0.00000000000E+00 0. -1.
          6    2    1    2  502    0 -0.21100549942E+02 -0.11811380962E+02  0.31626911395E+03  0.36106755746E+03  0.17250764240E+03 0.  0.
         24    2    3    3    0    0 -0.66908396316E+02 -0.26950803495E+02  0.28083238381E+03  0.30102246818E+03  0.80898821043E+02 0.  0.
         -6    2    1    2    0  501  0.21100549942E+02  0.11811380962E+02  0.28615340354E+03  0.33581245828E+03  0.17407324566E+03 0.  0.
        -24    2    5    5    0    0  0.75637426491E+02 -0.20736720408E+02  0.18793558182E+03  0.21875486430E+03  0.79892902573E+02 0.  0.
          5    1    3    3  502    0  0.45807846373E+02  0.15139422533E+02  0.35436730140E+02  0.60045089283E+02  0.47000000000E+01 0. -1.
        -11    1    4    4    0    0 -0.32015620268E+01 -0.11238286046E+01  0.17369087881E+03  0.17372401783E+03  0.00000000000E+00 0.  1.
         12    1    4    4    0    0 -0.63706834289E+02 -0.25826974891E+02  0.10714150500E+03  0.12729845034E+03  0.00000000000E+00 0. -1.
         -5    1    5    5    0  501 -0.54536876548E+02  0.32548101370E+02  0.98217821720E+02  0.11705759399E+03  0.47000000000E+01 0.  1.
         11    1    6    6    0    0  0.32257323528E+02  0.24169220194E+02  0.34333630604E+02  0.52947939681E+02  0.00000000000E+00 0. -1.
        -12    1    6    6    0    0  0.43380102963E+02 -0.44905940602E+02  0.15360195121E+03  0.16580692462E+03  0.00000000000E+00 0.  1.
</event>
<event>
12    1  0.2625820E-002  0.1790773E+03  0.7818608E-02  0.1168699E+00
          2   -1    0    0  502    0  0.00000000000E+00  0.00000000000E+00  0.91627497324E+03  0.91627497324E+03  0.00000000000E+00 0.  1.
         -2   -1    0    0    0  501 -0.00000000000E+00 -0.00000000000E+00 -0.37205638079E+02  0.37205638079E+02  0.00000000000E+00 0. -1.
          6    2    1    2  502    0  0.49637464918E+02 -0.65776936189E+01  0.32397998644E+03  0.37029283765E+03  0.17218190969E+03 0.  0.
         24    2    3    3    0    0 -0.17429833351E+02  0.29356848846E+02  0.24748170158E+03  0.26229565516E+03  0.79913668628E+02 0.  0.
         -6    2    1    2    0  501 -0.49637464918E+02  0.65776936189E+01  0.55508934872E+03  0.58318777367E+03  0.17168765336E+03 0.  0.
        -24    2    5    5    0    0 -0.17520597762E+02 -0.62249361235E+02  0.27718432902E+03  0.29505248147E+03  0.77735836315E+02 0.  0.
          5    1    3    3  502    0  0.67067298269E+02 -0.35934542464E+02  0.76498284858E+02  0.10799718249E+03  0.47000000000E+01 0. -1.
        -11    1    4    4    0    0  0.15349702299E+01  0.48545434835E+02  0.21324588286E+03  0.21870716022E+03  0.00000000000E+00 0.  1.
         12    1    4    4    0    0 -0.18964803581E+02 -0.19188585990E+02  0.34235818719E+02  0.43588494933E+02  0.00000000000E+00 0. -1.
         -5    1    5    5    0  501 -0.32116867156E+02  0.68827054854E+02  0.27790501970E+03  0.28813529220E+03  0.47000000000E+01 0.  1.
         13    1    6    6    0    0 -0.20883873866E+02 -0.13435526585E+02  0.16496451212E+02  0.29812454861E+02  0.00000000000E+00 0. -1.
        -14    1    6    6    0    0  0.33632761047E+01 -0.48813834650E+02  0.26068787781E+03  0.26524002661E+03  0.00000000000E+00 0.  1.
</event>
<event>
12    1  0.2625820E-002  0.2035480E+03  0.7818608E-02  0.1146780E+00
          1   -1    0    0  502    0  0.00000000000E+00  0.00000000000E+00  0.89895831447E+03  0.89895831447E+03  0.00000000000E+00 0. -1.
         -1   -1    0    0    0  501 -0.00000000000E+00 -0.00000000000E+00 -0.48028586890E+02  0.48028586890E+02  0.00000000000E+00 0.  1.
          6    2    1    2  502    0 -0.72668008712E+02  0.81647702964E+02  0.33038165560E+03  0.38807155083E+03  0.17175710558E+03 0.  0.
         24    2    3    3    0    0 -0.10995027353E+02  0.99934816249E+02  0.27284599812E+03  0.30163997660E+03  0.80211462209E+02 0.  0.
         -6    2    1    2    0  501  0.72668008712E+02 -0.81647702964E+02  0.52054807198E+03  0.55891535053E+03  0.17166562535E+03 0.  0.
        -24    2    5    5    0    0  0.54849052917E+02 -0.13793472444E+02  0.44586812207E+03  0.45634392808E+03  0.79074141962E+02 0.  0.
          5    1    3    3  502    0 -0.61672981358E+02 -0.18287113285E+02  0.57535657485E+02  0.86431574231E+02  0.47000000000E+01 0. -1.
        -11    1    4    4    0    0  0.38790600666E+01  0.16983041404E+02  0.14732269710E+01  0.17482597062E+02  0.00000000000E+00 0.  1.
         12    1    4    4    0    0 -0.14874087420E+02  0.82951774845E+02  0.27137277115E+03  0.28415737954E+03  0.00000000000E+00 0. -1.
         -5    1    5    5    0  501  0.17818955794E+02 -0.67854230520E+02  0.74679949906E+02  0.10257142245E+03  0.47000000000E+01 0.  1.
         11    1    6    6    0    0  0.59034687093E+02 -0.39205495465E+02  0.34810681104E+03  0.35524712109E+03  0.00000000000E+00 0. -1.
        -12    1    6    6    0    0 -0.41856341755E+01  0.25412023022E+02  0.97761311033E+02  0.10109680698E+03  0.00000000000E+00 0.  1.
</event>
<event>
12    1  0.2625820E-002  0.1748636E+03  0.7818608E-02  0.1172869E+00
          1   -1    0    0  502    0  0.00000000000E+00  0.00000000000E+00  0.64651875145E+03  0.64651875145E+03  0.00000000000E+00 0. -1.
         -1   -1    0    0    0  501 -0.00000000000E+00 -0.00000000000E+00 -0.47321854339E+02  0.47321854339E+02  0.00000000000E+00 0.  1.
          6    2    1    2  502    0 -0.31573381434E+02 -0.13059994617E+02  0.28995462387E+03  0.33810917085E+03  0.17051887179E+03 0.  0.
         24    2    3    3    0    0 -0.18151491588E+02 -0.21233043614E+02  0.30469176655E+03  0.31605879147E+03  0.79219746740E+02 0.  0.
         -6    2    1    2    0  501  0.31573381434E+02  0.13059994617E+02  0.30924227324E+03  0.35573143494E+03  0.17247210896E+03 0.  0.
        -24    2    5    5    0    0  0.69199662715E+02 -0.14794873910E+02  0.28200972768E+03  0.30136846701E+03  0.79284202652E+02 0.  0.
          5    1    3    3  502    0 -0.13421889846E+02  0.81730489967E+01 -0.14737142673E+02  0.22050379387E+02  0.47000000000E+01 0. -1.
        -11    1    4    4    0    0  0.31367435850E+02 -0.65832976874E+01  0.10377505002E+03  0.10861177122E+03  0.00000000000E+00 0.  1.
         12    1    4    4    0    0 -0.49518927438E+02 -0.14649745926E+02  0.20091671653E+03  0.20744702025E+03  0.00000000000E+00 0. -1.
         -5    1    5    5    0  501 -0.37626281281E+02  0.27854868527E+02  0.27232545556E+02  0.54362967921E+02  0.47000000000E+01 0.  1.
         13    1    6    6    0    0 -0.40899402680E+01 -0.30071598635E+02  0.10178020075E+03  0.10620846445E+03  0.00000000000E+00 0. -1.
        -14    1    6    6    0    0  0.73289602983E+02  0.15276724725E+02  0.18022952693E+03  0.19516000256E+03  0.00000000000E+00 0.  1.
</event>
<event>
12    1  0.2625820E-002  0.1956346E+03  0.7818608E-02  0.1153475E+00
         -2   -1    0    0    0  501 -0.00000000000E+00  0.00000000000E+00  0.17699255314E+03  0.17699255314E+03  0.00000000000E+00 0.  1.
          2   -1    0    0  502    0  0.00000000000E+00 -0.00000000000E+00 -0.21868352057E+03  0.21868352057E+03  0.00000000000E+00 0. -1.
          6    2    1    2  502    0  0.57040294088E+02  0.69605748007E+02  0.13407706562E+00  0.19216684949E+03  0.16979259336E+03 0.  0.
         24    2    3    3    0    0  0.43294024022E+01  0.74871204768E+02 -0.55936261215E+02  0.11488725340E+03  0.66676642432E+02 0.  0.
         -6    2    1    2    0  501 -0.57040294088E+02 -0.69605748007E+02 -0.41825044495E+02  0.20350922423E+03  0.17767418128E+03 0.  0.
        -24    2    5    5    0    0 -0.46106540898E+02 -0.10837032220E+03 -0.65259818606E+02  0.15667421799E+03  0.80112588338E+02 0.  0.
          5    1    3    3  502    0  0.52710891686E+02 -0.52654567601E+01  0.56070338280E+02  0.77279596092E+02  0.47000000000E+01 0. -1.
        -11    1    4    4    0    0 -0.56616653506E+01  0.21992155695E+02  0.13973307126E+02  0.26663883414E+02  0.00000000000E+00 0.  1.
         12    1    4    4    0    0  0.99910677528E+01  0.52879049072E+02 -0.69909568341E+02  0.88223369983E+02  0.00000000000E+00 0. -1.
         -5    1    5    5    0  501 -0.10933753190E+02  0.38764574198E+02  0.23434774111E+02  0.46835006236E+02  0.47000000000E+01 0.  1.
         11    1    6    6    0    0 -0.26812100004E+02 -0.63563704105E+02 -0.80071035217E+02  0.10569107752E+03  0.00000000000E+00 0. -1.
        -12    1    6    6    0    0 -0.19294440893E+02 -0.44806618100E+02  0.14811216611E+02  0.50983140473E+02  0.00000000000E+00 0.  1.
</event>
<event>
12    1  0.2625820E-002  0.2114455E+03  0.7818608E-02  0.1140426E+00
         -1   -1    0    0    0  501 -0.00000000000E+00  0.00000000000E+00  0.33361380303E+03  0.33361380303E+03  0.00000000000E+00 0. -1.
          1   -1    0    0  502    0  0.00000000000E+00 -0.00000000000E+00 -0.16780261062E+03  0.16780261062E+03  0.00000000000E+00 0.  1.
          6    2    1    2  502    0 -0.65046394176E+01 -0.11717044378E+03  0.19675565166E+03  0.29235884654E+03  0.18163062919E+03 0.  0.
         24    2    3    3    0    0  0.43328317122E+02 -0.30928573124E+02  0.38111282691E+02  0.10497925956E+03  0.82062508913E+02 0.  0.
         -6    2    1    2    0  501  0.65046394176E+01  0.11717044378E+03 -0.30944459258E+02  0.20905756711E+03  0.17022421560E+03 0.  0.
        -24    2    5    5    0    0  0.23068449290E+02  0.69404413548E+02  0.45950739284E+02  0.11691140604E+03  0.78788834543E+02 0.  0.
          5    1    3    3  502    0 -0.49832956539E+02 -0.86241870651E+02  0.15864436897E+03  0.18737958698E+03  0.47000000000E+01 0. -1.
        -13    1    4    4    0    0  0.41099781691E+02  0.11341456347E+02 -0.69008852589E+01  0.43190773372E+02  0.00000000000E+00 0.  1.
         14    1    4    4    0    0  0.22285354304E+01 -0.42270029471E+02  0.45012167950E+02  0.61788486187E+02  0.00000000000E+00 0. -1.
         -5    1    5    5    0  501 -0.16563809872E+02  0.47766030227E+02 -0.76895198542E+02  0.92146161070E+02  0.47000000000E+01 0.  1.
         11    1    6    6    0    0 -0.27727715073E+02  0.39612272431E+02  0.16670640295E+02  0.51145562449E+02  0.00000000000E+00 0. -1.
        -12    1    6    6    0    0  0.50796164363E+02  0.29792141117E+02  0.29280098989E+02  0.65765843590E+02  0.00000000000E+00 0.  1.
</event>
<event>
12    1  0.2625820E-002  0.2587308E+03  0.7818608E-02  0.1107908E+00
          2   -1    0    0  502    0  0.00000000000E+00  0.00000000000E+00  0.14613408455E+03  0.14613408455E+03  0.00000000000E+00 0. -1.
         -2   -1    0    0    0  501 -0.00000000000E+00 -0.00000000000E+00 -0.45829567518E+03  0.45829567518E+03  0.00000000000E+00 0.  1.
          6    2    1    2  502    0 -0.17937097303E+03  0.70235145870E+02 -0.14939217626E+03  0.29847468836E+03  0.17222716273E+03 0.  0.
         24    2    3    3    0    0 -0.11155509652E+03  0.94785422422E+02 -0.15336604236E+03  0.22608967058E+03  0.78527576896E+02 0.  0.
         -6    2    1    2    0  501  0.17937097303E+03 -0.70235145870E+02 -0.16276941437E+03  0.30595507138E+03  0.17322731241E+03 0.  0.
        -24    2    5    5    0    0  0.69138160979E+02 -0.38910131862E+02 -0.77009087566E+01  0.11307982468E+03  0.80210093433E+02 0.  0.
          5    1    3    3  502    0 -0.67815876517E+02 -0.24550276552E+02  0.39738661016E+01  0.72385017775E+02  0.47000000000E+01 0. -1.
        -13    1    4    4    0    0 -0.95755397093E+02  0.35210940134E+02 -0.11385461485E+03  0.15287831664E+03  0.00000000000E+00 0.  1.
         14    1    4    4    0    0 -0.15799699424E+02  0.59574482288E+02 -0.39511427510E+02  0.73211353940E+02  0.00000000000E+00 0. -1.
         -5    1    5    5    0  501  0.11023281205E+03 -0.31325014008E+02 -0.15506850562E+03  0.19287524670E+03  0.47000000000E+01 0.  1.
         11    1    6    6    0    0 -0.73113112115E+01  0.14004026907E+02  0.96320429553E+01  0.18502548277E+02  0.00000000000E+00 0. -1.
        -12    1    6    6    0    0  0.76449472190E+02 -0.52914158769E+02 -0.17332951712E+02  0.94577276401E+02  0.00000000000E+00 0.  1.
</event>
<event>
12    1  0.2625820E-002  0.2968281E+03  0.7818608E-02  0.1086837E+00
         -2   -1    0    0    0  501 -0.00000000000E+00  0.00000000000E+00  0.22607346148E+03  0.22607346148E+03  0.00000000000E+00 0. -1.
          2   -1    0    0  502    0  0.00000000000E+00 -0.00000000000E+00 -0.39195260307E+03  0.39195260307E+03  0.00000000000E+00 0.  1.
          6    2    1    2  502    0  0.60208664814E+02  0.23424085515E+03 -0.10621251994E+03  0.31521450466E+03  0.17200355524E+03 0.  0.
         24    2    3    3    0    0 -0.65904560716E+01  0.84193971228E+02 -0.96056896946E+02  0.15058942576E+03  0.79487035403E+02 0.  0.
         -6    2    1    2    0  501 -0.60208664814E+02 -0.23424085515E+03 -0.59666621642E+02  0.30281155989E+03  0.17216525063E+03 0.  0.
        -24    2    5    5    0    0 -0.43609467838E+02 -0.23591190384E+03 -0.89821742720E+02  0.26803014141E+03  0.78841608186E+02 0.  0.
          5    1    3    3  502    0  0.66799120886E+02  0.15004688392E+03 -0.10155622998E+02  0.16462507890E+03  0.47000000000E+01 0. -1.
        -11    1    4    4    0    0  0.42779534022E+01  0.88043684351E+02 -0.10419302625E+03  0.13647775628E+03  0.00000000000E+00 0.  1.
         12    1    4    4    0    0 -0.10868409474E+02 -0.38497131233E+01  0.81361293009E+01  0.14111669484E+02  0.00000000000E+00 0. -1.
         -5    1    5    5    0  501 -0.16599196976E+02  0.16710486935E+01  0.30155121078E+02  0.34781418476E+02  0.47000000000E+01 0.  1.
         13    1    6    6    0    0 -0.58629091409E+01 -0.19361530137E+03 -0.54456722998E+02  0.20121330301E+03  0.00000000000E+00 0. -1.
        -14    1    6    6    0    0 -0.37746558697E+02 -0.42296602466E+02 -0.35365019722E+02  0.66816838399E+02  0.00000000000E+00 0.  1.
</event>
<event>
12    1  0.2625820E-002  0.2007937E+03  0.7818608E-02  0.1149071E+00
         -1   -1    0    0    0  501 -0.00000000000E+00  0.00000000000E+00  0.97877935042E+02  0.97877935042E+02  0.00000000000E+00 0.  1.
          1   -1    0    0  502    0  0.00000000000E+00 -0.00000000000E+00 -0.46146845513E+03  0.46146845513E+03  0.00000000000E+00 0. -1.
          6    2    1    2  502    0 -0.13483166371E+02 -0.10113784777E+03 -0.27253176340E+03  0.33786306869E+03  0.17166021990E+03 0.  0.
         24    2    3    3    0    0 -0.15939777427E+02 -0.84980072567E+02 -0.74179068883E+02  0.13878270788E+03  0.79261696348E+02 0.  0.
         -6    2    1    2    0  501  0.13483166371E+02  0.10113784777E+03 -0.91058756686E+02  0.22148332148E+03  0.17421970181E+03 0.  0.
        -24    2    5    5    0    0  0.48692336833E+02  0.65041002188E+02 -0.11754242313E+03  0.16433314621E+03  0.81165793745E+02 0.  0.
          5    1    3    3  502    0  0.24566110566E+01 -0.16157775200E+02 -0.19835269452E+03  0.19908036081E+03  0.47000000000E+01 0. -1.
        -13    1    4    4    0    0 -0.18319523001E+02 -0.32795184031E+02  0.10750770959E+02  0.39073112172E+02  0.00000000000E+00 0.  1.
         14    1    4    4    0    0  0.23797455735E+01 -0.52184888536E+02 -0.84929839842E+02  0.99709595707E+02  0.00000000000E+00 0. -1.
         -5    1    5    5    0  501 -0.35209170463E+02  0.36096845580E+02  0.26483666448E+02  0.57150175275E+02  0.47000000000E+01 0.  1.
         11    1    6    6    0    0  0.12246903638E+02  0.35414260468E+02 -0.11069866097E+03  0.11686894384E+03  0.00000000000E+00 0. -1.
        -12    1    6    6    0    0  0.36445433195E+02  0.29626741719E+02 -0.68437621606E+01  0.47464202366E+02  0.00000000000E+00 0.  1.
</event>
<event>
12    1  0.2625820E-002  0.1852669E+03  0.7818608E-02  0.1162801E+00
          2   -1    0    0  502    0  0.00000000000E+00  0.00000000000E+00  0.17200978512E+03  0.17200978512E+03  0.00000000000E+00 0.  1.
         -2   -1    0    0    0  501 -0.00000000000E+00 -0.00000000000E+00 -0.24771511888E+03  0.24771511888E+03  0.00000000000E+00 0. -1.
          6    2    1    2  502    0  0.77327925489E+01 -0.68080667857E+02  0.54577303425E+02  0.19378125062E+03  0.17285172151E+03 0.  0.
         24    2    3    3    0    0  0.74703431973E+01 -0.10633686720E+03  0.67467605817E+02  0.15313822461E+03  0.86810728876E+02 0.  0.
         -6    2    1    2    0  501 -0.77327925489E+01  0.68080667857E+02 -0.13028263719E+03  0.22594365337E+03  0.17141235525E+03 0.  0.
        -24    2    5    5    0    0  0.28516220723E+02 -0.15738459989E+02 -0.94109773303E+02  0.12760646185E+03  0.79786500780E+02 0.  0.
          5    1    3    3  502    0  0.26244935162E+00  0.38256199344E+02 -0.12890302392E+02  0.40643026015E+02  0.47000000000E+01 0. -1.
        -11    1    4    4    0    0 -0.39795406081E+02 -0.51350185318E+02  0.31673575133E+02  0.72275384738E+02  0.00000000000E+00 0.  1.
         12    1    4    4    0    0  0.47265749278E+02 -0.54986681882E+02  0.35794030683E+02  0.80862839870E+02  0.00000000000E+00 0. -1.
         -5    1    5    5    0  501 -0.36249013271E+02  0.83819127845E+02 -0.36172863882E+02  0.98337191527E+02  0.47000000000E+01 0.  1.
         13    1    6    6    0    0 -0.63456273223E+01  0.26759353265E+02 -0.15150700987E+02  0.31398625984E+02  0.00000000000E+00 0. -1.
        -14    1    6    6    0    0  0.34861848045E+02 -0.42497813254E+02 -0.78959072316E+02  0.96207835863E+02  0.00000000000E+00 0.  1.
</event>
<event>
12    1  0.2625820E-002  0.1841048E+03  0.7818608E-02  0.1163888E+00
          3   -1    0    0  502    0  0.00000000000E+00  0.00000000000E+00  0.93235010583E+02  0.93235010583E+02  0.00000000000E+00 0.  1.
         -3   -1    0    0    0  501 -0.00000000000E+00 -0.00000000000E+00 -0.41834633036E+03  0.41834633036E+03  0.00000000000E+00 0. -1.
          6    2    1    2  502    0  0.68481246462E+02 -0.11292599387E+02 -0.25488268231E+03  0.31422485919E+03  0.17016132484E+03 0.  0.
         24    2    3    3    0    0  0.73692395614E+02 -0.43301672331E+02 -0.93412465389E+02  0.14946303783E+03  0.79421073952E+02 0.  0.
         -6    2    1    2    0  501 -0.68481246462E+02  0.11292599387E+02 -0.70228637465E+02  0.19735648175E+03  0.17088099793E+03 0.  0.
        -24    2    5    5    0    0 -0.82165886150E+02  0.61797674973E+02 -0.34708770100E+02  0.13393895262E+03  0.78515978175E+02 0.  0.
          5    1    3    3  502    0 -0.52111491522E+01  0.32009072945E+02 -0.16147021692E+03  0.16476182137E+03  0.47000000000E+01 0. -1.
        -11    1    4    4    0    0  0.98149374501E+01 -0.14386123751E+02 -0.74962618471E+02  0.76959000265E+02  0.00000000000E+00 0.  1.
         12    1    4    4    0    0  0.63877458164E+02 -0.28915548581E+02 -0.18449846918E+02  0.72504037560E+02  0.00000000000E+00 0. -1.
         -5    1    5    5    0  501  0.13684639688E+02 -0.50505075587E+02 -0.35519867365E+02  0.63417529131E+02  0.47000000000E+01 0.  1.
         11    1    6    6    0    0 -0.81674812820E+02  0.50144701335E+02 -0.55025245001E+02  0.11051264049E+03  0.00000000000E+00 0. -1.
        -12    1    6    6    0    0 -0.49107333029E+00  0.11652973638E+02  0.20316474901E+02  0.23426312130E+02  0.00000000000E+00 0.  1.
</event>
<event>
12    1  0.2625820E-002  0.2053950E+03  0.7818608E-02  0.1145265E+00
          2   -1    0    0  502    0  0.00000000000E+00  0.00000000000E+00  0.62928271158E+03  0.62928271158E+03  0.00000000000E+00 0.  1.
         -2   -1    0    0    0  501 -0.00000000000E+00 -0.00000000000E+00 -0.71916648453E+02  0.71916648453E+02  0.00000000000E+00 0. -1.
          6    2    1    2  502    0 -0.27774402968E+02  0.10974632774E+03  0.37079564352E+03  0.42419848782E+03  0.17216060497E+03 0.  0.
         24    2    3    3    0    0 -0.65623115942E+02  0.93213084079E+02  0.35177027614E+03  0.37848275941E+03  0.80695722386E+02 0.  0.
         -6    2    1    2    0  501  0.27774402968E+02 -0.10974632774E+03  0.18657041962E+03  0.27700087222E+03  0.17060271927E+03 0.  0.
        -24    2    5    5    0    0 -0.39823932870E+02 -0.21916398246E+02  0.69669000897E+02  0.11584360983E+03  0.80620705219E+02 0.  0.
          5    1    3    3  502    0  0.37848712973E+02  0.16533243663E+02  0.19025367381E+02  0.45715728406E+02  0.47000000000E+01 0. -1.
        -13    1    4    4    0    0 -0.26441577878E+02  0.36924650805E+02  0.25989160235E+03  0.26382992978E+03  0.00000000000E+00 0.  1.
         14    1    4    4    0    0 -0.39181538063E+02  0.56288433274E+02  0.91878673786E+02  0.11465282963E+03  0.00000000000E+00 0. -1.
         -5    1    5    5    0  501  0.67598335839E+02 -0.87829929496E+02  0.11690141872E+03  0.16115726239E+03  0.47000000000E+01 0.  1.
         13    1    6    6    0    0  0.42353757260E+01 -0.14634205140E+02 -0.14200035110E+02  0.20826410271E+02  0.00000000000E+00 0. -1.
        -14    1    6    6    0    0 -0.44059308596E+02 -0.72821931056E+01  0.83869036008E+02  0.95017199555E+02  0.00000000000E+00 0.  1.
</event>
<event>
12    1  0.2625820E-002  0.2624408E+03  0.7818608E-02  0.1105686E+00
         -2   -1    0    0    0  501 -0.00000000000E+00  0.00000000000E+00  0.26259529711E+02  0.26259529711E+02  0.00000000000E+00 0. -1.
          2   -1    0    0  502    0  0.00000000000E+00 -0.00000000000E+00 -0.39234362741E+04  0.39234362741E+04  0.00000000000E+00 0.  1.
          6    2    1    2  502    0  0.13725382651E+03  0.14290822522E+03 -0.30865800207E+04  0.30977337568E+04  0.17238570170E+03 0.  0.
         24    2    3    3    0    0  0.59287045842E+02  0.14756898910E+03 -0.17926661302E+04  0.18014560907E+04  0.79376520587E+02 0.  0.
         -6    2    1    2    0  501 -0.13725382651E+03 -0.14290822522E+03 -0.81059672375E+03  0.85196204706E+03  0.17178738998E+03 0.  0.
        -24    2    5    5    0    0 -0.14217195685E+03 -0.14336196882E+03 -0.55070347667E+03  0.59197938656E+03  0.79998471648E+02 0.  0.
          5    1    3    3  502    0  0.77966780667E+02 -0.46607638813E+01 -0.12939138905E+04  0.12962776661E+04  0.47000000000E+01 0. -1.
        -13    1    4    4    0    0  0.27978842060E+02  0.14231758686E+03 -0.15364378249E+04  0.15432687066E+04  0.00000000000E+00 0.  1.
         14    1    4    4    0    0  0.31308203782E+02  0.52514022472E+01 -0.25622830526E+03  0.25818738402E+03  0.00000000000E+00 0. -1.
         -5    1    5    5    0  501  0.49181303445E+01  0.45374360271E+00 -0.25989324707E+03  0.25998266050E+03  0.47000000000E+01 0.  1.
         11    1    6    6    0    0 -0.56107706262E+02 -0.21212134600E+02 -0.23749977291E+03  0.24495748915E+03  0.00000000000E+00 0. -1.
        -12    1    6    6    0    0 -0.86064250592E+02 -0.12214983422E+03 -0.31320370376E+03  0.34702189741E+03  0.00000000000E+00 0.  1.
</event>
<event>
12    1  0.2625820E-002  0.1925394E+03  0.7818608E-02  0.1156191E+00
         -2   -1    0    0    0  501 -0.00000000000E+00  0.00000000000E+00  0.72813939911E+02  0.72813939911E+02  0.00000000000E+00 0. -1.
          2   -1    0    0  502    0  0.00000000000E+00 -0.00000000000E+00 -0.55866917322E+03  0.55866917322E+03  0.00000000000E+00 0.  1.
          6    2    1    2  502    0 -0.69055369714E+02  0.55951711833E+02 -0.14998667761E+03  0.24480290587E+03  0.17185232358E+03 0.  0.
         24    2    3    3    0    0 -0.57463841383E+01  0.81868638346E+02 -0.54793953661E+02  0.12748513472E+03  0.80712993636E+02 0.  0.
         -6    2    1    2    0  501  0.69055369714E+02 -0.55951711833E+02 -0.33586855570E+03  0.38668020726E+03  0.16974880806E+03 0.  0.
        -24    2    5    5    0    0  0.84926154810E+02 -0.34877025716E+02 -0.12951200240E+03  0.17859094443E+03  0.81807750085E+02 0.  0.
          5    1    3    3  502    0 -0.63308985576E+02 -0.25916926513E+02 -0.95192723951E+02  0.11731777115E+03  0.47000000000E+01 0. -1.
        -11    1    4    4    0    0 -0.12855860634E+02  0.96746058181E+02 -0.40510863901E+02  0.10567025608E+03  0.00000000000E+00 0.  1.
         12    1    4    4    0    0  0.71094764954E+01 -0.14877419835E+02 -0.14283089760E+02  0.21814878640E+02  0.00000000000E+00 0. -1.
         -5    1    5    5    0  501 -0.15870785096E+02 -0.21074686117E+02 -0.20635655331E+03  0.20808926283E+03  0.47000000000E+01 0.  1.
         11    1    6    6    0    0  0.68762361656E+02  0.10967344936E+02 -0.99559678747E+02  0.12149351698E+03  0.00000000000E+00 0. -1.
        -12    1    6    6    0    0  0.16163793154E+02 -0.45844370652E+02 -0.29952323648E+02  0.57097427451E+02  0.00000000000E+00 0.  1.
</event>
<event>
12    1  0.2625820E-002  0.2269936E+03  0.7818608E-02  0.1128774E+00
         -2   -1    0    0    0  501 -0.00000000000E+00  0.00000000000E+00  0.77813070827E+02  0.77813070827E+02  0.00000000000E+00 0.  1.
          2   -1    0    0  502    0  0.00000000000E+00 -0.00000000000E+00 -0.66291939085E+03  0.66291939085E+03  0.00000000000E+00 0. -1.
          6    2    1    2  502    0  0.13489139188E+03 -0.57047220017E+02 -0.27879922913E+03  0.35878101741E+03  0.17188582076E+03 0.  0.
         24    2    3    3    0    0  0.87809036554E+02 -0.67434282507E+02 -0.89209607566E+02  0.16310027269E+03  0.79909545817E+02 0.  0.
         -6    2    1    2    0  501 -0.13489139188E+03  0.57047220017E+02 -0.30630709090E+03  0.38195144427E+03  0.17496513633E+03 0.  0.
        -24    2    5    5    0    0 -0.66497594063E+02  0.42339603744E+02 -0.58963878219E+02  0.12486239274E+03  0.76806940608E+02 0.  0.
          5    1    3    3  502    0  0.47082355321E+02  0.10387062489E+02 -0.18958962156E+03  0.19568074472E+03  0.47000000000E+01 0. -1.
        -13    1    4    4    0    0  0.18945810217E+02  0.80614096611E+01  0.79753327656E+01  0.22080217010E+02  0.00000000000E+00 0.  1.
         14    1    4    4    0    0  0.68863226337E+02 -0.75495692168E+02 -0.97184940331E+02  0.14102005568E+03  0.00000000000E+00 0. -1.
         -5    1    5    5    0  501 -0.68393797813E+02  0.14707616273E+02 -0.24734321268E+03  0.25708905152E+03  0.47000000000E+01 0.  1.
         11    1    6    6    0    0 -0.12020789782E+02  0.17924421570E+02 -0.61432854488E+02  0.65113592177E+02  0.00000000000E+00 0. -1.
        -12    1    6    6    0    0 -0.54476804281E+02  0.24415182174E+02  0.24689762696E+01  0.59748800566E+02  0.00000000000E+00 0.  1.
</event>
<event>
12    1  0.2625820E-002  0.1939644E+03  0.7818608E-02  0.1154933E+00
         -2   -1    0    0    0  501 -0.00000000000E+00  0.00000000000E+00  0.55399136321E+02  0.55399136321E+02  0.00000000000E+00 0. -1.
          2   -1    0    0  502    0  0.00000000000E+00 -0.00000000000E+00 -0.88400499124E+03  0.88400499124E+03  0.00000000000E+00 0.  1.
          6    2    1    2  502    0 -0.54253457836E+02  0.71159794662E+02 -0.18754766947E+03  0.26953381293E+03  0.17166011164E+03 0.  0.
         24    2    3    3    0    0 -0.49690719319E+02 -0.27343448232E+02 -0.77078236647E+02  0.12138087496E+03  0.74668805355E+02 0.  0.
         -6    2    1    2    0  501  0.54253457836E+02 -0.71159794662E+02 -0.64105818546E+03  0.66987031463E+03  0.17252097618E+03 0.  0.
        -24    2    5    5    0    0  0.32461704190E+01 -0.13720363138E+02 -0.13240100169E+03  0.15542376516E+03  0.80173159734E+02 0.  0.
          5    1    3    3  502    0 -0.45627385166E+01  0.98503242894E+02 -0.11046943282E+03  0.14815293798E+03  0.47000000000E+01 0. -1.
        -13    1    4    4    0    0 -0.58020982429E+02 -0.24294646425E+02 -0.23618243569E+02  0.67189922430E+02  0.00000000000E+00 0.  1.
         14    1    4    4    0    0  0.83302631094E+01 -0.30488018073E+01 -0.53459993077E+02  0.54190952527E+02  0.00000000000E+00 0. -1.
         -5    1    5    5    0  501  0.51007287417E+02 -0.57439431524E+02 -0.50865718377E+03  0.51444654947E+03  0.47000000000E+01 0.  1.
         11    1    6    6    0    0  0.25431712617E+02 -0.33749659468E+02 -0.39545380301E+02  0.57876149008E+02  0.00000000000E+00 0. -1.
        -12    1    6    6    0    0 -0.22185542198E+02  0.20029296330E+02 -0.92855621385E+02  0.97547616152E+02  0.00000000000E+00 0.  1.
</event>
<event>
12    1  0.2625820E-002  0.3118651E+03  0.7818608E-02  0.1079455E+00
         -2   -1    0    0    0  501 -0.00000000000E+00  0.00000000000E+00  0.37210704297E+02  0.37210704297E+02  0.00000000000E+00 0.  1.
          2   -1    0    0  502    0  0.00000000000E+00 -0.00000000000E+00 -0.33421335046E+04  0.33421335046E+04  0.00000000000E+00 0. -1.
          6    2    1    2  502    0 -0.15107175068E+03  0.21052675941E+03 -0.24485040889E+04  0.24685089623E+04  0.17669191693E+03 0.  0.
         24    2    3    3    0    0 -0.10501865802E+03  0.13753099317E+03 -0.10321903719E+04  0.10495600894E+04  0.78839867277E+02 0.  0.
         -6    2    1    2    0  501  0.15107175068E+03 -0.21052675941E+03 -0.85641871143E+03  0.91083524658E+03  0.17036327905E+03 0.  0.
        -24    2    5    5    0    0  0.14860698311E+03 -0.22956751642E+03 -0.83439499020E+03  0.88124200744E+03  0.74747548301E+02 0.  0.
          5    1    3    3  502    0 -0.46053092657E+02  0.72995766243E+02 -0.14163137170E+04  0.14189488730E+04  0.47000000000E+01 0. -1.
        -11    1    4    4    0    0 -0.69475221822E+02  0.28485310012E+02 -0.37655669374E+03  0.38397026309E+03  0.00000000000E+00 0.  1.
         12    1    4    4    0    0 -0.35543436201E+02  0.10904568316E+03 -0.65563367820E+03  0.66558982629E+03  0.00000000000E+00 0. -1.
         -5    1    5    5    0  501  0.24647675739E+01  0.19040757001E+02 -0.22023721227E+02  0.29593239144E+02  0.47000000000E+01 0.  1.
         11    1    6    6    0    0 -0.45042278807E+01 -0.15892350830E+02 -0.96937778628E+02  0.98335079239E+02  0.00000000000E+00 0. -1.
        -12    1    6    6    0    0  0.15311121099E+03 -0.21367516559E+03 -0.73745721158E+03  0.78290692820E+03  0.00000000000E+00 0.  1.
</event>
<event>
12    1  0.2625820E-002  0.1985271E+03  0.7818608E-02  0.1150988E+00
         -2   -1    0    0    0  501 -0.00000000000E+00  0.00000000000E+00  0.85371706785E+02  0.85371706785E+02  0.00000000000E+00 0. -1.
          2   -1    0    0  502    0  0.00000000000E+00 -0.00000000000E+00 -0.46227925971E+03  0.46227925971E+03  0.00000000000E+00 0.  1.
          6    2    1    2  502    0  0.16843809121E+01 -0.93733587258E+02 -0.19991470624E+03  0.28311353642E+03  0.17719639448E+03 0.  0.
         24    2    3    3    0    0  0.33126353176E+02 -0.12772704023E+03 -0.15864728352E+03  0.22091029983E+03  0.78872352076E+02 0.  0.
         -6    2    1    2    0  501 -0.16843809121E+01  0.93733587258E+02 -0.17699284668E+03  0.26453743007E+03  0.17281424018E+03 0.  0.
        -24    2    5    5    0    0  0.48860096951E+02  0.92042307952E+02 -0.85097543457E+02  0.15954008999E+03  0.85745862201E+02 0.  0.
          5    1    3    3  502    0 -0.31441972264E+02  0.33993452972E+02 -0.41267422715E+02  0.62203236591E+02  0.47000000000E+01 0. -1.
        -13    1    4    4    0    0  0.39170166489E+02 -0.27417339217E+02 -0.80422281861E+02  0.93561508391E+02  0.00000000000E+00 0.  1.
         14    1    4    4    0    0 -0.60438133133E+01 -0.10030970101E+03 -0.78225001663E+02  0.12734879144E+03  0.00000000000E+00 0. -1.
         -5    1    5    5    0  501 -0.50544477863E+02  0.16912793055E+01 -0.91895303223E+02  0.10499734007E+03  0.47000000000E+01 0.  1.
         11    1    6    6    0    0 -0.40468188889E+01  0.79781490534E+02 -0.58850140695E+02  0.99220975780E+02  0.00000000000E+00 0. -1.
        -12    1    6    6    0    0  0.52906915840E+02  0.12260817419E+02 -0.26247402762E+02  0.60319114211E+02  0.00000000000E+00 0.  1.
</event>
<event>
12    1  0.2625820E-002  0.2159583E+03  0.7818608E-02  0.1136933E+00
         -2   -1    0    0    0  501 -0.00000000000E+00  0.00000000000E+00  0.10004199169E+03  0.10004199169E+03  0.00000000000E+00 0.  1.
          2   -1    0    0  502    0  0.00000000000E+00 -0.00000000000E+00 -0.47382659445E+03  0.47382659445E+03  0.00000000000E+00 0. -1.
          6    2    1    2  502    0 -0.13198332205E+03 -0.59437389970E+01 -0.14872564634E+03  0.26044901473E+03  0.16810546114E+03 0.  0.
         24    2    3    3    0    0 -0.97863250308E+02  0.88939900385E+01 -0.22600888371E+02  0.12886678922E+03  0.80246684598E+02 0.  0.
         -6    2    1    2    0  501  0.13198332205E+03  0.59437389970E+01 -0.22505895642E+03  0.31341957141E+03  0.17356661127E+03 0.  0.
        -24    2    5    5    0    0  0.72112220959E+02  0.58902819612E+02 -0.18778599228E+03  0.22509869721E+03  0.82073930196E+02 0.  0.
          5    1    3    3  502    0 -0.34120071738E+02 -0.14837729036E+02 -0.12612475797E+03  0.13158222551E+03  0.47000000000E+01 0. -1.
        -11    1    4    4    0    0 -0.41599198713E+02  0.31885882253E+02 -0.39671532224E+02  0.65734566932E+02  0.00000000000E+00 0.  1.
         12    1    4    4    0    0 -0.56264051595E+02 -0.22991892214E+02  0.17070643854E+02  0.63132222288E+02  0.00000000000E+00 0. -1.
         -5    1    5    5    0  501  0.59871101087E+02 -0.52959080615E+02 -0.37272964141E+02  0.88320874208E+02  0.47000000000E+01 0.  1.
         13    1    6    6    0    0  0.25261306338E+01 -0.19227290185E+02 -0.26152734693E+02  0.32558187231E+02  0.00000000000E+00 0. -1.
        -14    1    6    6    0    0  0.69586090325E+02  0.78130109797E+02 -0.16163325759E+03  0.19254050998E+03  0.00000000000E+00 0.  1.
</event>
<event>
12    1  0.2625820E-002  0.1845090E+03  0.7818608E-02  0.1163509E+00
          1   -1    0    0  502    0  0.00000000000E+00  0.00000000000E+00  0.72659970803E+03  0.72659970803E+03  0.00000000000E+00 0.  1.
         -1   -1    0    0    0  501 -0.00000000000E+00 -0.00000000000E+00 -0.47094582395E+02  0.47094582395E+02  0.00000000000E+00 0. -1.
          6    2    1    2  502    0 -0.76351719710E+02  0.25185164075E+02  0.37462416000E+03  0.41989673704E+03  0.17177348727E+03 0.  0.
         24    2    3    3    0    0 -0.38399861264E+02  0.80966122290E+02  0.27070763561E+03  0.29591047611E+03  0.79058988024E+02 0.  0.
         -6    2    1    2    0  501  0.76351719710E+02 -0.25185164075E+02  0.30488096564E+03  0.35379755339E+03  0.16048809297E+03 0.  0.
        -24    2    5    5    0    0  0.10010310548E+03 -0.48905099000E+02  0.19496673438E+03  0.23877585165E+03  0.81175977849E+02 0.  0.
          5    1    3    3  502    0 -0.37951858446E+02 -0.55780958215E+02  0.10391652439E+03  0.12398626093E+03  0.47000000000E+01 0. -1.
        -11    1    4    4    0    0 -0.36884785837E+02  0.29748916079E+01  0.12839534950E+03  0.13362149221E+03  0.00000000000E+00 0.  1.
         12    1    4    4    0    0 -0.15150754269E+01  0.77991230682E+02  0.14231228611E+03  0.16228898390E+03  0.00000000000E+00 0. -1.
         -5    1    5    5    0  501 -0.23751385771E+02  0.23719934925E+02  0.10991423125E+03  0.11502170174E+03  0.47000000000E+01 0.  1.
         13    1    6    6    0    0  0.13651472037E+01 -0.25859573489E+01 -0.79149165288E+01  0.84378140508E+01  0.00000000000E+00 0. -1.
        -14    1    6    6    0    0  0.98737958276E+02 -0.46319141651E+02  0.20288165091E+03  0.23033803760E+03  0.00000000000E+00 0.  1.
</event>
<event>
12    1  0.2625820E-002  0.2402837E+03  0.7818608E-02  0.1119604E+00
         -2   -1    0    0    0  501 -0.00000000000E+00  0.00000000000E+00  0.62250553405E+02  0.62250553405E+02  0.00000000000E+00 0.  1.
          2   -1    0    0  502    0  0.00000000000E+00 -0.00000000000E+00 -0.14845291952E+04  0.14845291952E+04  0.00000000000E+00 0. -1.
          6    2    1    2  502    0 -0.14102503705E+03  0.93052539130E+02 -0.11868448099E+04  0.12111357857E+04  0.17234399520E+03 0.  0.
         24    2    3    3    0    0 -0.12373097938E+03  0.96676236915E+02 -0.63760500381E+03  0.66159172911E+03  0.80671092146E+02 0.  0.
         -6    2    1    2    0  501  0.14102503705E+03 -0.93052539130E+02 -0.23543383190E+03  0.33564396284E+03  0.16935449351E+03 0.  0.
        -24    2    5    5    0    0  0.15232199356E+03 -0.37828090873E+02 -0.20874891591E+03  0.27310169190E+03  0.79846540608E+02 0.  0.
          5    1    3    3  502    0 -0.17294057675E+02 -0.36236977855E+01 -0.54923980605E+03  0.54954405662E+03  0.47000000000E+01 0. -1.
        -13    1    4    4    0    0 -0.14229464167E+02 -0.70173724523E+01 -0.18442394714E+02  0.24327825414E+02  0.00000000000E+00 0.  1.
         14    1    4    4    0    0 -0.10950151521E+03  0.10369360937E+03 -0.61916260909E+03  0.63726390370E+03  0.00000000000E+00 0. -1.
         -5    1    5    5    0  501 -0.11296956510E+02 -0.55224448257E+02 -0.26684915995E+02  0.62542270932E+02  0.47000000000E+01 0.  1.
         11    1    6    6    0    0  0.93912880562E+02 -0.61322639724E+02 -0.11960801943E+03  0.16397003870E+03  0.00000000000E+00 0. -1.
        -12    1    6    6    0    0  0.58409113001E+02  0.23494548852E+02 -0.89140896478E+02  0.10913165321E+03  0.00000000000E+00 0.  1.
</event>
<event>
12    1  0.2625820E-002  0.2177866E+03  0.7818608E-02  0.1135544E+00
         -2   -1    0    0    0  501 -0.00000000000E+00  0.00000000000E+00  0.18406178905E+02  0.18406178905E+02  0.00000000000E+00 0.  1.
          2   -1    0    0  502    0  0.00000000000E+00 -0.00000000000E+00 -0.26708396063E+04  0.26708396063E+04  0.00000000000E+00 0. -1.
          6    2    1    2  502    0  0.12972450831E+03  0.37250021067E+02 -0.10669890811E+04  0.10887459265E+04  0.16936936320E+03 0.  0.
         24    2    3    3    0    0  0.11784413287E+03  0.61733936865E+02 -0.10343718240E+04  0.10460074086E+04  0.80672857460E+02 0.  0.
         -6    2    1    2    0  501 -0.12972450831E+03 -0.37250021067E+02 -0.15854443463E+04  0.16004998587E+04  0.17248191307E+03 0.  0.
        -24    2    5    5    0    0 -0.94035667510E+02 -0.72912986013E+02 -0.76449176453E+03  0.77798495187E+03  0.81571545365E+02 0.  0.
          5    1    3    3  502    0  0.11880375440E+02 -0.24483915798E+02 -0.32617257089E+02  0.42738517913E+02  0.47000000000E+01 0. -1.
        -11    1    4    4    0    0  0.45282937041E+02 -0.14738051022E+02 -0.24073893708E+03  0.24540372931E+03  0.00000000000E+00 0.  1.
         12    1    4    4    0    0  0.72561195830E+02  0.76471987887E+02 -0.79363288690E+03  0.80060367926E+03  0.00000000000E+00 0. -1.
         -5    1    5    5    0  501 -0.35688840801E+02  0.35662964946E+02 -0.82095258177E+03  0.82251490682E+03  0.47000000000E+01 0.  1.
         11    1    6    6    0    0 -0.19825364292E+01 -0.46664861828E+01 -0.28297991089E+03  0.28302532839E+03  0.00000000000E+00 0. -1.
        -12    1    6    6    0    0 -0.92053131081E+02 -0.68246499830E+02 -0.48151185364E+03  0.49495962348E+03  0.00000000000E+00 0.  1.
</event>
<event>
12    1  0.2625820E-002  0.1986532E+03  0.7818608E-02  0.1150880E+00
         -1   -1    0    0    0  501 -0.00000000000E+00  0.00000000000E+00  0.11653151527E+03  0.11653151527E+03  0.00000000000E+00 0. -1.
          1   -1    0    0  502    0  0.00000000000E+00 -0.00000000000E+00 -0.60642165631E+03  0.60642165631E+03  0.00000000000E+00 0.  1.
          6    2    1    2  502    0  0.59661222926E+02 -0.82222143450E+02 -0.39773312774E+01  0.19757473026E+03  0.16941078029E+03 0.  0.
         24    2    3    3    0    0 -0.17332210532E+02 -0.78682230591E+02  0.16488972381E+02  0.11769056810E+03  0.84189575822E+02 0.  0.
         -6    2    1    2    0  501 -0.59661222926E+02  0.82222143450E+02 -0.48591280976E+03  0.52537844131E+03  0.17202123564E+03 0.  0.
        -24    2    5    5    0    0  0.18468320811E+02  0.80946015154E+02 -0.34517078448E+03  0.36433105142E+03  0.81859076057E+02 0.  0.
          5    1    3    3  502    0  0.76993433458E+02 -0.35399128594E+01 -0.20466303659E+02  0.79884162161E+02  0.47000000000E+01 0. -1.
        -13    1    4    4    0    0  0.87606219492E+01  0.11605894960E+02 -0.12671638165E+02  0.19287708743E+02  0.00000000000E+00 0.  1.
         14    1    4    4    0    0 -0.26092832481E+02 -0.90288125551E+02  0.29160610546E+02  0.98402859358E+02  0.00000000000E+00 0. -1.
         -5    1    5    5    0  501 -0.78129543737E+02  0.12761282962E+01 -0.14074202529E+03  0.16104738989E+03  0.47000000000E+01 0.  1.
         13    1    6    6    0    0  0.29772644051E+01 -0.61865711967E+01  0.10793329982E+01  0.69500162756E+01  0.00000000000E+00 0. -1.
        -14    1    6    6    0    0  0.15491056406E+02  0.87132586351E+02 -0.34625011747E+03  0.35738103515E+03  0.00000000000E+00 0.  1.
</event>
<event>
12    1  0.2625820E-002  0.1913440E+03  0.7818608E-02  0.1157255E+00
          2   -1    0    0  502    0  0.00000000000E+00  0.00000000000E+00  0.65639472494E+03  0.65639472494E+03  0.00000000000E+00 0. -1.
         -2   -1    0    0    0  501 -0.00000000000E+00 -0.00000000000E+00 -0.62658028944E+02  0.62658028944E+02  0.00000000000E+00 0.  1.
          6    2    1    2  502    0  0.32032487594E+02  0.83510837634E+02  0.17861016175E+03  0.26221278685E+03  0.16986410876E+03 0.  0.
         24    2    3    3    0    0  0.43119672405E+02  0.97007486323E+02  0.60655457371E+02  0.14287927321E+03  0.73929991575E+02 0.  0.
         -6    2    1    2    0  501 -0.32032487594E+02 -0.83510837634E+02  0.41512653425E+03  0.45683996704E+03  0.16844160940E+03 0.  0.
        -24    2    5    5    0    0  0.25541218018E+02 -0.24533321530E+02  0.31632924936E+03  0.32809187002E+03  0.79535171385E+02 0.  0.
          5    1    3    3  502    0 -0.11087184811E+02 -0.13496648689E+02  0.11795470437E+03  0.11933351364E+03  0.47000000000E+01 0. -1.
        -13    1    4    4    0    0  0.22265506767E+02  0.78108496374E+02  0.75647035436E+02  0.11099172928E+03  0.00000000000E+00 0.  1.
         14    1    4    4    0    0  0.20854165638E+02  0.18898989949E+02 -0.14991578065E+02  0.31887543938E+02  0.00000000000E+00 0. -1.
         -5    1    5    5    0  501 -0.57573705612E+02 -0.58977516104E+02  0.98797284892E+02  0.12874809702E+03  0.47000000000E+01 0.  1.
         11    1    6    6    0    0  0.38470975856E+02  0.17725323538E+02  0.17263305450E+03  0.17775369077E+03  0.00000000000E+00 0. -1.
        -12    1    6    6    0    0 -0.12929757838E+02 -0.42258645068E+02  0.14369619487E+03  0.15033817925E+03  0.00000000000E+00 0.  1.
</event>
<event>
12    1  0.2625820E-002  0.3754885E+03  0.7818608E-02  0.1052614E+00
         -2   -1    0    0    0  501 -0.00000000000E+00  0.00000000000E+00  0.26087682641E+03  0.26087682641E+03  0.00000000000E+00 0.  1.
          2   -1    0    0  502    0  0.00000000000E+00 -0.00000000000E+00 -0.58946105312E+03  0.58946105312E+03  0.00000000000E+00 0. -1.
          6    2    1    2  502    0 -0.18826545691E+03 -0.27552846795E+03 -0.28668611487E+03  0.47202653110E+03  0.17105641959E+03 0.  0.
         24    2    3    3    0    0 -0.16432087092E+03 -0.24155554900E+03 -0.16830374884E+03  0.34647185374E+03  0.79788230235E+02 0.  0.
         -6    2    1    2    0  501  0.18826545691E+03  0.27552846795E+03 -0.41898111827E+02  0.37831134843E+03  0.17321722102E+03 0.  0.
        -24    2    5    5    0    0  0.71503985763E+02  0.50399738494E+02  0.68531952785E-01  0.12121316648E+03  0.83902761644E+02 0.  0.
          5    1    3    3  502    0 -0.23944585992E+02 -0.33972918945E+02 -0.11838236603E+03  0.12555467736E+03  0.47000000000E+01 0. -1.
        -13    1    4    4    0    0 -0.10886563975E+03 -0.10081550504E+03 -0.10847108962E+03  0.18379736358E+03  0.00000000000E+00 0.  1.
         14    1    4    4    0    0 -0.55455231173E+02 -0.14074004397E+03 -0.59832659217E+02  0.16267449016E+03  0.00000000000E+00 0. -1.
         -5    1    5    5    0  501  0.11676147115E+03  0.22512872945E+03 -0.41966643780E+02  0.25709818195E+03  0.47000000000E+01 0.  1.
         11    1    6    6    0    0  0.76006910620E+00  0.44567108448E+02  0.17884301565E+02  0.48027628538E+02  0.00000000000E+00 0. -1.
        -12    1    6    6    0    0  0.70743916657E+02  0.58326300461E+01 -0.17815769613E+02  0.73185537944E+02  0.00000000000E+00 0.  1.
</event>
<event>
12    1  0.2625820E-002  0.2699205E+03  0.7818608E-02  0.1101325E+00
          2   -1    0    0  502    0  0.00000000000E+00  0.00000000000E+00  0.12821265288E+04  0.12821265288E+04  0.00000000000E+00 0. -1.
         -2   -1    0    0    0  501 -0.00000000000E+00 -0.00000000000E+00 -0.58770106015E+02  0.58770106015E+02  0.00000000000E+00 0.  1.
          6    2    1    2  502    0 -0.18347874004E+03 -0.98137505720E+02  0.48779081490E+03  0.55706400059E+03  0.17054326015E+03 0.  0.
         24    2    3    3    0    0 -0.62786071857E+02  0.11616529581E+02  0.22449274411E+03  0.24728886844E+03  0.81717548415E+02 0.  0.
         -6    2    1    2    0  501  0.18347874004E+03  0.98137505720E+02  0.73556560785E+03  0.78383263419E+03  0.17332459978E+03 0.  0.
        -24    2    5    5    0    0  0.18708425508E+03  0.10929289436E+03  0.73433191312E+03  0.77114191170E+03  0.92038220904E+02 0.  0.
          5    1    3    3  502    0 -0.12069266818E+03 -0.10975403530E+03  0.26329807078E+03  0.30977513215E+03  0.47000000000E+01 0. -1.
        -13    1    4    4    0    0 -0.20837643227E+02 -0.32634830842E+01  0.29235462352E+01  0.21293304574E+02  0.00000000000E+00 0.  1.
         14    1    4    4    0    0 -0.41948428630E+02  0.14880012665E+02  0.22156919788E+03  0.22599556387E+03  0.00000000000E+00 0. -1.
         -5    1    5    5    0  501 -0.36055150474E+01 -0.11155388639E+02  0.12336947351E+01  0.12690722483E+02  0.47000000000E+01 0.  1.
         13    1    6    6    0    0  0.52974745811E+02  0.24843441031E+01  0.29141059443E+03  0.29619694497E+03  0.00000000000E+00 0. -1.
        -14    1    6    6    0    0  0.13410950927E+03  0.10680855026E+03  0.44292131868E+03  0.47494496674E+03  0.00000000000E+00 0.  1.
</event>
<event>
12    1  0.2625820E-002  0.1937349E+03  0.7818608E-02  0.1155135E+00
         -2   -1    0    0    0  501 -0.00000000000E+00  0.00000000000E+00  0.38482065292E+02  0.38482065292E+02  0.00000000000E+00 0. -1.
          2   -1    0    0  502    0  0.00000000000E+00 -0.00000000000E+00 -0.11052993948E+04  0.11052993948E+04  0.00000000000E+00 0.  1.
          6    2    1    2  502    0  0.78116864215E+02  0.45662463767E+02 -0.33890595818E+03  0.39069701855E+03  0.17204536246E+03 0.  0.
         24    2    3    3    0    0  0.94633115797E+02  0.40913702260E+02 -0.34693319419E+03  0.37115568236E+03  0.82246833871E+02 0.  0.
         -6    2    1    2    0  501 -0.78116864215E+02 -0.45662463767E+02 -0.72791137132E+03  0.75308444153E+03  0.17056935983E+03 0.  0.
        -24    2    5    5    0    0 -0.40559533907E+02 -0.38549451588E+02 -0.18699765750E+03  0.21080141229E+03  0.79611403119E+02 0.  0.
          5    1    3    3  502    0 -0.16516251582E+02  0.47487615061E+01  0.80272360069E+01  0.19541336190E+02  0.47000000000E+01 0. -1.
        -11    1    4    4    0    0  0.19705968507E+02 -0.13400029134E+02 -0.16825817782E+03  0.16993734251E+03  0.00000000000E+00 0.  1.
         12    1    4    4    0    0  0.74927147291E+02  0.54313731394E+02 -0.17867501637E+03  0.20121833985E+03  0.00000000000E+00 0. -1.
         -5    1    5    5    0  501 -0.37557330308E+02 -0.71130121784E+01 -0.54091371382E+03  0.54228302924E+03  0.47000000000E+01 0.  1.
         13    1    6    6    0    0 -0.17569547756E+02  0.15532886842E+02 -0.12292925538E+02  0.26477832243E+02  0.00000000000E+00 0. -1.
        -14    1    6    6    0    0 -0.22989986151E+02 -0.54082338430E+02 -0.17470473196E+03  0.18432358005E+03  0.00000000000E+00 0.  1.
</event>
<event>
12    1  0.2625820E-002  0.1947808E+03  0.7818608E-02  0.1154219E+00
          2   -1    0    0  502    0  0.00000000000E+00  0.00000000000E+00  0.20505431235E+04  0.20505431235E+04  0.00000000000E+00 0. -1.
         -2   -1    0    0    0  501 -0.00000000000E+00 -0.00000000000E+00 -0.35147319433E+02  0.35147319433E+02  0.00000000000E+00 0.  1.
          6    2    1    2  502    0  0.20738332746E+02 -0.64493814726E+02  0.32123214796E+03  0.38153142691E+03  0.19438777290E+03 0.  0.
         24    2    3    3    0    0 -0.66955149443E+02 -0.14889197326E+02  0.14636279715E+03  0.17965982232E+03  0.78427693663E+02 0.  0.
         -6    2    1    2    0  501 -0.20738332746E+02  0.64493814726E+02  0.16941636561E+04  0.17041590160E+04  0.17139990561E+03 0.  0.
        -24    2    5    5    0    0 -0.78411692971E+02  0.58992841480E+02  0.12603621404E+04  0.12664806841E+04  0.76367855563E+02 0.  0.
          5    1    3    3  502    0  0.87693482189E+02 -0.49604617399E+02  0.17486935081E+03  0.20187160459E+03  0.47000000000E+01 0. -1.
        -13    1    4    4    0    0  0.15196211297E+02  0.24540926610E+01  0.68904016476E+01  0.16864905675E+02  0.00000000000E+00 0.  1.
         14    1    4    4    0    0 -0.82151360740E+02 -0.17343289987E+02  0.13947239550E+03  0.16279491665E+03  0.00000000000E+00 0. -1.
         -5    1    5    5    0  501  0.57673360225E+02  0.55009732454E+01  0.43380151570E+03  0.43767833190E+03  0.47000000000E+01 0.  1.
         13    1    6    6    0    0 -0.52987792588E+02  0.98094446132E+01  0.92591019760E+03  0.92747702148E+03  0.00000000000E+00 0. -1.
        -14    1    6    6    0    0 -0.25423900383E+02  0.49183396867E+02  0.33445194280E+03  0.33900366264E+03  0.00000000000E+00 0.  1.
</event>
<event>
12    1  0.2625820E-002  0.1741827E+03  0.7818608E-02  0.1173555E+00
          2   -1    0    0  502    0  0.00000000000E+00  0.00000000000E+00  0.28021674204E+04  0.28021674204E+04  0.00000000000E+00 0. -1.
         -2   -1    0    0    0  501 -0.00000000000E+00 -0.00000000000E+00 -0.10866819640E+02  0.10866819640E+02  0.00000000000E+00 0.  1.
          6    2    1    2  502    0  0.23436723803E+02 -0.19176510512E+01  0.13117076904E+04  0.13232382965E+04  0.17271238129E+03 0.  0.
         24    2    3    3    0    0 -0.13335553561E+02  0.52755201463E+02  0.53015137544E+03  0.53889546026E+03  0.79918007580E+02 0.  0.
         -6    2    1    2    0  501 -0.23436723803E+02  0.19176510512E+01  0.14795929103E+04  0.14897959436E+04  0.17246395516E+03 0.  0.
        -24    2    5    5    0    0 -0.48955729135E+02  0.60578341716E+01  0.14363422749E+04  0.14391889459E+04  0.75844120404E+02 0.  0.
          5    1    3    3  502    0  0.36772277363E+02 -0.54672852514E+02  0.78155631499E+03  0.78434283619E+03  0.47000000000E+01 0. -1.
        -13    1    4    4    0    0 -0.20817587962E+02  0.62007745804E+01  0.32963701410E+02  0.39476919644E+02  0.00000000000E+00 0.  1.
         14    1    4    4    0    0  0.74820344016E+01  0.46554426882E+02  0.49718767403E+03  0.49941854062E+03  0.00000000000E+00 0. -1.
         -5    1    5    5    0  501  0.25519005332E+02 -0.41401831204E+01  0.43250635468E+02  0.50606997715E+02  0.47000000000E+01 0.  1.
         11    1    6    6    0    0 -0.16234618486E+02 -0.30552893275E+01  0.54957115227E+02  0.57386253967E+02  0.00000000000E+00 0. -1.
        -12    1    6    6    0    0 -0.32721110649E+02  0.91131234991E+01  0.13813851596E+04  0.13818026919E+04  0.00000000000E+00 0.  1.
</event>
<event>
12    1  0.2625820E-002  0.2740282E+03  0.7818608E-02  0.1098996E+00
         -2   -1    0    0    0  501 -0.00000000000E+00  0.00000000000E+00  0.11692136154E+03  0.11692136154E+03  0.00000000000E+00 0.  1.
          2   -1    0    0  502    0  0.00000000000E+00 -0.00000000000E+00 -0.68216321811E+03  0.68216321811E+03  0.00000000000E+00 0. -1.
          6    2    1    2  502    0  0.10266687604E+02 -0.21247485271E+03 -0.37956589717E+03  0.46832092185E+03  0.17321445562E+03 0.  0.
         24    2    3    3    0    0  0.85695233781E+01 -0.18291372022E+03 -0.18862912024E+03  0.27504473680E+03  0.80856641447E+02 0.  0.
         -6    2    1    2    0  501 -0.10266687604E+02  0.21247485271E+03 -0.18567595939E+03  0.33076365780E+03  0.17227323506E+03 0.  0.
        -24    2    5    5    0    0 -0.11108310920E+02  0.80883213668E+02 -0.16120763678E+03  0.19683137414E+03  0.78033318948E+02 0.  0.
          5    1    3    3  502    0  0.16971642258E+01 -0.29561132495E+02 -0.19093677693E+03  0.19327618505E+03  0.47000000000E+01 0. -1.
        -11    1    4    4    0    0 -0.40016657276E+01 -0.18187852629E+03 -0.18912709885E+03  0.26242117135E+03  0.00000000000E+00 0.  1.
         12    1    4    4    0    0  0.12571189106E+02 -0.10351939218E+01  0.49797860703E+00  0.12623565450E+02  0.00000000000E+00 0. -1.
         -5    1    5    5    0  501  0.84162331651E+00  0.13159163904E+03 -0.24468322615E+02  0.13393228366E+03  0.47000000000E+01 0.  1.
         13    1    6    6    0    0  0.17504557635E+01  0.44909294059E+02 -0.17662382910E+02  0.48289424912E+02  0.00000000000E+00 0. -1.
        -14    1    6    6    0    0 -0.12858766684E+02  0.35973919608E+02 -0.14354525387E+03  0.14854194923E+03  0.00000000000E+00 0.  1.
</event>
<event>
12    1  0.2625820E-002  0.5728950E+03  0.7818608E-02  0.9963293E-01
          2   -1    0    0  502    0  0.00000000000E+00  0.00000000000E+00  0.14359432341E+04  0.14359432341E+04  0.00000000000E+00 0. -1.
         -2   -1    0    0    0  501 -0.00000000000E+00 -0.00000000000E+00 -0.30738227094E+03  0.30738227094E+03  0.00000000000E+00 0.  1.
          6    2    1    2  502    0  0.54060215846E+03 -0.78729820984E+02  0.12270195146E+03  0.58562618119E+03  0.17161927853E+03 0.  0.
         24    2    3    3    0    0  0.15408765638E+03 -0.32415789114E+02 -0.39701822453E+01  0.17622861241E+03  0.79037790033E+02 0.  0.
         -6    2    1    2    0  501 -0.54060215846E+03  0.78729820984E+02  0.10058590117E+04  0.11576993238E+04  0.17339635108E+03 0.  0.
        -24    2    5    5    0    0 -0.17385803221E+03 -0.68188249459E+01  0.27616477305E+03  0.33654428557E+03  0.81987575529E+02 0.  0.
          5    1    3    3  502    0  0.38651450208E+03 -0.46314031870E+02  0.12667213371E+03  0.40939756878E+03  0.47000000000E+01 0. -1.
        -11    1    4    4    0    0  0.21525418185E+02 -0.30789133501E+02 -0.20221417636E+02  0.42664037561E+02  0.00000000000E+00 0.  1.
         12    1    4    4    0    0  0.13256223819E+03 -0.16266556133E+01  0.16251235391E+02  0.13356457485E+03  0.00000000000E+00 0. -1.
         -5    1    5    5    0  501 -0.36674412625E+03  0.85548645930E+02  0.72969423861E+03  0.82115503823E+03  0.47000000000E+01 0.  1.
         11    1    6    6    0    0 -0.15599587446E+03  0.22486205392E+02  0.21794064011E+03  0.26895810992E+03  0.00000000000E+00 0. -1.
        -12    1    6    6    0    0 -0.17862157749E+02 -0.29305030337E+02  0.58224132937E+02  0.67586175648E+02  0.00000000000E+00 0.  1.
</event>
<event>
12    1  0.2625820E-002  0.2219851E+03  0.7818608E-02  0.1132412E+00
          1   -1    0    0  502    0  0.00000000000E+00  0.00000000000E+00  0.85128650716E+03  0.85128650716E+03  0.00000000000E+00 0.  1.
         -1   -1    0    0    0  501 -0.00000000000E+00 -0.00000000000E+00 -0.99932327566E+02  0.99932327566E+02  0.00000000000E+00 0. -1.
          6    2    1    2  502    0 -0.99691148367E+02  0.10010425702E+03  0.68466606688E+03  0.71990637163E+03  0.17186731347E+03 0.  0.
         24    2    3    3    0    0 -0.92288904794E+01  0.54506378693E+02  0.17454558144E+03  0.19980293357E+03  0.79993340519E+02 0.  0.
         -6    2    1    2    0  501  0.99691148367E+02 -0.10010425702E+03  0.66688112714E+02  0.23131246310E+03  0.17058418412E+03 0.  0.
        -24    2    5    5    0    0  0.18214084315E+02 -0.26381811250E+02  0.87232546089E+02  0.11943004840E+03  0.75008443063E+02 0.  0.
          5    1    3    3  502    0 -0.90462257888E+02  0.45597878324E+02  0.51012048544E+03  0.52010343805E+03  0.47000000000E+01 0. -1.
        -11    1    4    4    0    0  0.12321747147E+02  0.30967383234E+02  0.14056851083E+02  0.36171803100E+02  0.00000000000E+00 0.  1.
         12    1    4    4    0    0 -0.21550637627E+02  0.23538995459E+02  0.16048873035E+03  0.16363113047E+03  0.00000000000E+00 0. -1.
         -5    1    5    5    0  501  0.81477064052E+02 -0.73722445766E+02 -0.20544433375E+02  0.11188241470E+03  0.47000000000E+01 0.  1.
         13    1    6    6    0    0  0.27113937192E+02 -0.69187028307E+01 -0.16266233792E+01  0.28029982920E+02  0.00000000000E+00 0. -1.
        -14    1    6    6    0    0 -0.88998528766E+01 -0.19463108420E+02  0.88859169468E+02  0.91400065477E+02  0.00000000000E+00 0.  1.
</event>
<event>
12    1  0.2625820E-002  0.2124343E+03  0.7818608E-02  0.1139653E+00
         -4   -1    0    0    0  501 -0.00000000000E+00  0.00000000000E+00  0.37816529512E+03  0.37816529512E+03  0.00000000000E+00 0. -1.
          4   -1    0    0  502    0  0.00000000000E+00 -0.00000000000E+00 -0.12251664452E+03  0.12251664452E+03  0.00000000000E+00 0.  1.
          6    2    1    2  502    0 -0.51930388229E+02  0.11198752980E+03  0.87229710877E+02  0.22924428109E+03  0.17235412934E+03 0.  0.
         24    2    3    3    0    0 -0.83356122777E+02  0.71153185471E+02  0.16166472140E+02  0.14134038829E+03  0.87776600154E+02 0.  0.
         -6    2    1    2    0  501  0.51930388229E+02 -0.11198752980E+03  0.16841893973E+03  0.27143765856E+03  0.17342286808E+03 0.  0.
        -24    2    5    5    0    0  0.62316517578E+02 -0.11721680399E+03  0.66492517040E+02  0.16874246571E+03  0.80185019878E+02 0.  0.
          5    1    3    3  502    0  0.31425734548E+02  0.40834344325E+02  0.71063238737E+02  0.87903892793E+02  0.47000000000E+01 0. -1.
        -13    1    4    4    0    0  0.92335585636E+01  0.18943570361E+01 -0.18385710608E+02  0.20661111947E+02  0.00000000000E+00 0.  1.
         14    1    4    4    0    0 -0.92589681341E+02  0.69258828435E+02  0.34552182748E+02  0.12067927635E+03  0.00000000000E+00 0. -1.
         -5    1    5    5    0  501 -0.10386129349E+02  0.52292741887E+01  0.10192642269E+03  0.10269519284E+03  0.47000000000E+01 0.  1.
         13    1    6    6    0    0  0.57308195405E+01 -0.50775365670E+02  0.63383231038E+02  0.81415072489E+02  0.00000000000E+00 0. -1.
        -14    1    6    6    0    0  0.56585698038E+02 -0.66441438315E+02  0.31092860016E+01  0.87327393224E+02  0.00000000000E+00 0.  1.
</event>
<event>
12    1  0.2625820E-002  0.1732042E+03  0.7818608E-02  0.1174547E+00
         -2   -1    0    0    0  501 -0.00000000000E+00  0.00000000000E+00  0.11332732213E+02  0.11332732213E+02  0.00000000000E+00 0.  1.
          2   -1    0    0  502    0  0.00000000000E+00 -0.00000000000E+00 -0.26516555634E+04  0.26516555634E+04  0.00000000000E+00 0. -1.
          6    2    1    2  502    0 -0.14308690605E+02  0.24761361501E+02 -0.12583591279E+04  0.12700881393E+04  0.16981850041E+03 0.  0.
         24    2    3    3    0    0 -0.34272157571E+02  0.30182578628E+02 -0.36512144204E+03  0.37659858530E+03  0.80170182567E+02 0.  0.
         -6    2    1    2    0  501  0.14308690605E+02 -0.24761361501E+02 -0.13819637033E+04  0.13929001563E+04  0.17184092849E+03 0.  0.
        -24    2    5    5    0    0  0.74369027305E+02 -0.18558950335E+02 -0.10054975970E+04  0.10115938056E+04  0.80133782315E+02 0.  0.
          5    1    3    3  502    0  0.19963466966E+02 -0.54212171263E+01 -0.89323768589E+03  0.89348955399E+03  0.47000000000E+01 0. -1.
        -11    1    4    4    0    0  0.24851025386E+02  0.10656247914E+02 -0.15883936150E+03  0.16112439866E+03  0.00000000000E+00 0.  1.
         12    1    4    4    0    0 -0.59123182957E+02  0.19526330714E+02 -0.20628208054E+03  0.21547418664E+03  0.00000000000E+00 0. -1.
         -5    1    5    5    0  501 -0.60060336700E+02 -0.62024111669E+01 -0.37646610626E+03  0.38130635074E+03  0.47000000000E+01 0.  1.
         11    1    6    6    0    0  0.60513620540E+00  0.25096931705E+02 -0.24334395666E+03  0.24463545003E+03  0.00000000000E+00 0. -1.
        -12    1    6    6    0    0  0.73763891100E+02 -0.43655882039E+02 -0.76215364036E+03  0.76695835557E+03  0.00000000000E+00 0.  1.
</event>
<event>
12    1  0.2625820E-002  0.1819616E+03  0.7818608E-02  0.1165918E+00
         -2   -1    0    0    0  501 -0.00000000000E+00  0.00000000000E+00  0.30823490874E+03  0.30823490874E+03  0.00000000000E+00 0. -1.
          2   -1    0    0  502    0  0.00000000000E+00 -0.00000000000E+00 -0.11129169729E+03  0.11129169729E+03  0.00000000000E+00 0.  1.
          6    2    1    2  502    0 -0.31349117715E+02  0.51712600975E+02  0.13750667658E+03  0.22792452752E+03  0.17141920505E+03 0.  0.
         24    2    3    3    0    0 -0.42382582996E+02  0.19172751620E+02  0.16142836418E+03  0.18579477213E+03  0.79351766471E+02 0.  0.
         -6    2    1    2    0  501  0.31349117715E+02 -0.51712600975E+02  0.59436534870E+02  0.19160207852E+03  0.17181878399E+03 0.  0.
        -24    2    5    5    0    0 -0.26689152285E+02 -0.87601713913E+02  0.34424317354E+02  0.11877234395E+03  0.67345860540E+02 0.  0.
          5    1    3    3  502    0  0.11033465281E+02  0.32539849355E+02 -0.23921687598E+02  0.42129755395E+02  0.47000000000E+01 0. -1.
        -11    1    4    4    0    0  0.48957543485E+01  0.31035593106E+02  0.22726548144E+02  0.38777215483E+02  0.00000000000E+00 0.  1.
         12    1    4    4    0    0 -0.47278337344E+02 -0.11862841486E+02  0.13870181603E+03  0.14701755664E+03  0.00000000000E+00 0. -1.
         -5    1    5    5    0  501  0.58038269999E+02  0.35889112938E+02  0.25012217516E+02  0.72829734567E+02  0.47000000000E+01 0.  1.
         13    1    6    6    0    0 -0.93330597196E+01 -0.69153851236E+02  0.52778463739E+02  0.87492441840E+02  0.00000000000E+00 0. -1.
        -14    1    6    6    0    0 -0.17356092565E+02 -0.18447862677E+02 -0.18354146385E+02  0.31279902109E+02  0.00000000000E+00 0.  1.
</event>
<event>
12    1  0.2625820E-002  0.3181593E+03  0.7818608E-02  0.1076500E+00
         -1   -1    0    0    0  501 -0.00000000000E+00  0.00000000000E+00  0.11283683404E+04  0.11283683404E+04  0.00000000000E+00 0. -1.
          1   -1    0    0  502    0  0.00000000000E+00 -0.00000000000E+00 -0.93637344937E+02  0.93637344937E+02  0.00000000000E+00 0.  1.
          6    2    1    2  502    0  0.92616716429E+02 -0.25003430755E+03  0.39263487476E+03  0.50552403988E+03  0.17406148023E+03 0.  0.
         24    2    3    3    0    0  0.60582474837E+02 -0.14462520170E+03  0.12563690246E+03  0.21665161225E+03  0.81034588952E+02 0.  0.
         -6    2    1    2    0  501 -0.92616716429E+02  0.25003430755E+03  0.64209612070E+03  0.71648164546E+03  0.17309970812E+03 0.  0.
        -24    2    5    5    0    0 -0.45750318022E+02  0.13166729184E+03  0.50138741018E+03  0.52667057907E+03  0.81013557103E+02 0.  0.
          5    1    3    3  502    0  0.32034241593E+02 -0.10540910585E+03  0.26699797230E+03  0.28887242763E+03  0.47000000000E+01 0. -1.
        -11    1    4    4    0    0  0.38173015415E+02 -0.84067672984E+02  0.22600579190E+02  0.95054399827E+02  0.00000000000E+00 0.  1.
         12    1    4    4    0    0  0.22409459422E+02 -0.60557528713E+02  0.10303632327E+03  0.12159721242E+03  0.00000000000E+00 0. -1.
         -5    1    5    5    0  501 -0.46866398407E+02  0.11836701571E+03  0.14070871052E+03  0.18981106639E+03  0.47000000000E+01 0.  1.
         11    1    6    6    0    0 -0.38346850059E+02  0.11874757552E+03  0.30251095223E+03  0.32723744257E+03  0.00000000000E+00 0. -1.
        -12    1    6    6    0    0 -0.74034679631E+01  0.12919716313E+02  0.19887645794E+03  0.19943313649E+03  0.00000000000E+00 0.  1.
</event>
<event>
12    1  0.2625820E-002  0.2602750E+03  0.7818608E-02  0.1106978E+00
          2   -1    0    0  502    0  0.00000000000E+00  0.00000000000E+00  0.85589650198E+03  0.85589650198E+03  0.00000000000E+00 0. -1.
         -2   -1    0    0    0  501 -0.00000000000E+00 -0.00000000000E+00 -0.79159416186E+02  0.79159416186E+02  0.00000000000E+00 0.  1.
          6    2    1    2  502    0 -0.12978702128E+03 -0.14896398896E+03  0.38611539909E+03  0.46654364092E+03  0.17188055902E+03 0.  0.
         24    2    3    3    0    0  0.35163092183E+01 -0.48638443743E+02  0.14995939267E+03  0.17736075361E+03  0.81184695796E+02 0.  0.
         -6    2    1    2    0  501  0.12978702128E+03  0.14896398896E+03  0.39062168670E+03  0.46851227724E+03  0.16698356477E+03 0.  0.
        -24    2    5    5    0    0  0.13458797551E+03  0.66285229042E+02  0.30215323354E+03  0.34723745006E+03  0.82277672815E+02 0.  0.
          5    1    3    3  502    0 -0.13330333050E+03 -0.10032554522E+03  0.23615600642E+03  0.28918288731E+03  0.47000000000E+01 0. -1.
        -11    1    4    4    0    0  0.89438836213E+01 -0.96763598329E+01 -0.74317440465E+01  0.15127981142E+02  0.00000000000E+00 0.  1.
         12    1    4    4    0    0 -0.54275744029E+01 -0.38962083910E+02  0.15739113671E+03  0.16223277247E+03  0.00000000000E+00 0. -1.
         -5    1    5    5    0  501 -0.48009542292E+01  0.82678759921E+02  0.88468453164E+02  0.12127482719E+03  0.47000000000E+01 0.  1.
         13    1    6    6    0    0  0.42813584860E+02 -0.17107711755E+02  0.99362667677E+02  0.10953819689E+03  0.00000000000E+00 0. -1.
        -14    1    6    6    0    0  0.91774390646E+02  0.83392940797E+02  0.20279056586E+03  0.23769925317E+03  0.00000000000E+00 0.  1.
</event>
<event>
12    1  0.2625820E-002  0.2210454E+03  0.7818608E-02  0.1133106E+00
          2   -1    0    0  502    0  0.00000000000E+00  0.00000000000E+00  0.22014858104E+04  0.22014858104E+04  0.00000000000E+00 0.  1.
         -2   -1    0    0    0  501 -0.00000000000E+00 -0.00000000000E+00 -0.22434349131E+02  0.22434349131E+02  0.00000000000E+00 0. -1.
          6    2    1    2  502    0 -0.10326734262E+02  0.13881755383E+03  0.97518577159E+03  0.99995193608E+03  0.17187097094E+03 0.  0.
         24    2    3    3    0    0 -0.77838141843E+01  0.72522943482E+02  0.86421811829E+03  0.87057901818E+03  0.75595673343E+02 0.  0.
         -6    2    1    2    0  501  0.10326734262E+02 -0.13881755383E+03  0.12038656897E+04  0.12239682234E+04  0.17154783169E+03 0.  0.
        -24    2    5    5    0    0  0.56131758862E+02 -0.99603913024E+02  0.54974242549E+03  0.56705487707E+03  0.79137762084E+02 0.  0.
          5    1    3    3  502    0 -0.25429200777E+01  0.66294610350E+02  0.11096765330E+03  0.12937291789E+03  0.47000000000E+01 0. -1.
        -13    1    4    4    0    0 -0.26665402836E+02 -0.32340289337E+01  0.23918449390E+03  0.24068802374E+03  0.00000000000E+00 0.  1.
         14    1    4    4    0    0  0.18881588651E+02  0.75756972416E+02  0.62503362439E+03  0.62989099444E+03  0.00000000000E+00 0. -1.
         -5    1    5    5    0  501 -0.45805024600E+02 -0.39213640807E+02  0.65412326418E+03  0.65691334637E+03  0.47000000000E+01 0.  1.
         13    1    6    6    0    0  0.69107630807E+02 -0.81314914789E+02  0.51322263167E+03  0.52419981845E+03  0.00000000000E+00 0. -1.
        -14    1    6    6    0    0 -0.12975871945E+02 -0.18288998236E+02  0.36519793818E+02  0.42855058624E+02  0.00000000000E+00 0.  1.
</event>
<event>
12    1  0.2625820E-002  0.2347978E+03  0.7818608E-02  0.1123308E+00
          1   -1    0    0  502    0  0.00000000000E+00  0.00000000000E+00  0.14412766676E+04  0.14412766676E+04  0.00000000000E+00 0.  1.
         -1   -1    0    0    0  501 -0.00000000000E+00 -0.00000000000E+00 -0.41115155424E+02  0.41115155424E+02  0.00000000000E+00 0. -1.
          6    2    1    2  502    0  0.81726625384E+02 -0.13593712517E+03  0.89798856043E+03  0.92838714756E+03  0.17424436231E+03 0.  0.
         24    2    3    3    0    0  0.12377122987E+03 -0.83444289905E+02  0.65195034317E+03  0.67327905111E+03  0.77350913688E+02 0.  0.
         -6    2    1    2    0  501 -0.81726625384E+02  0.13593712517E+03  0.50217295170E+03  0.55400467542E+03  0.17200396411E+03 0.  0.
        -24    2    5    5    0    0 -0.74725982357E+02  0.13903246641E+02  0.26789901941E+03  0.28971763097E+03  0.79932148659E+02 0.  0.
          5    1    3    3  502    0 -0.42044604486E+02 -0.52492835262E+02  0.24603821726E+03  0.25510809645E+03  0.47000000000E+01 0. -1.
        -11    1    4    4    0    0  0.89797784153E+02 -0.53375324303E+02  0.57104458401E+03  0.58052087319E+03  0.00000000000E+00 0.  1.
         12    1    4    4    0    0  0.33973445717E+02 -0.30068965602E+02  0.80905759154E+02  0.92758177917E+02  0.00000000000E+00 0. -1.
         -5    1    5    5    0  501 -0.70006430268E+01  0.12203387853E+03  0.23427393229E+03  0.26428704445E+03  0.47000000000E+01 0.  1.
         11    1    6    6    0    0 -0.15515078935E+02 -0.30621880436E+02  0.11140110123E+03  0.11657024745E+03  0.00000000000E+00 0. -1.
        -12    1    6    6    0    0 -0.59210903422E+02  0.44525127077E+02  0.15649791817E+03  0.17314738352E+03  0.00000000000E+00 0.  1.
</event>
<event>
12    1  0.2625820E-002  0.3959073E+03  0.7818608E-02  0.1045206E+00
          2   -1    0    0  502    0  0.00000000000E+00  0.00000000000E+00  0.75181966597E+03  0.75181966597E+03  0.00000000000E+00 0.  1.
         -2   -1    0    0    0  501 -0.00000000000E+00 -0.00000000000E+00 -0.29541390414E+03  0.29541390414E+03  0.00000000000E+00 0. -1.
          6    2    1    2  502    0  0.34459770483E+03  0.91078788068E+02 -0.55847371792E+02  0.39980569244E+03  0.17228679276E+03 0.  0.
         24    2    3    3    0    0  0.14369545074E+03  0.21108937981E+02  0.33731173458E+02  0.16892931558E+03  0.79406245189E+02 0.  0.
         -6    2    1    2    0  501 -0.34459770483E+03 -0.91078788068E+02  0.51225313363E+03  0.64742787767E+03  0.17238520836E+03 0.  0.
        -24    2    5    5    0    0 -0.10995415053E+03  0.70709164075E+01  0.23290928264E+03  0.26961040964E+03  0.79392228644E+02 0.  0.
          5    1    3    3  502    0  0.20090225409E+03  0.69969850087E+02 -0.89578545250E+02  0.23087637686E+03  0.47000000000E+01 0. -1.
        -13    1    4    4    0    0  0.32611171318E+02  0.34245101319E+02 -0.10844914887E+02  0.48516261583E+02  0.00000000000E+00 0.  1.
         14    1    4    4    0    0  0.11108427942E+03 -0.13136163338E+02  0.44576088345E+02  0.12041305400E+03  0.00000000000E+00 0. -1.
         -5    1    5    5    0  501 -0.23464355430E+03 -0.98149704475E+02  0.27934385099E+03  0.37781746803E+03  0.47000000000E+01 0.  1.
         11    1    6    6    0    0 -0.27328001062E+02 -0.25534537694E+02  0.29442452090E+02  0.47599267246E+02  0.00000000000E+00 0. -1.
        -12    1    6    6    0    0 -0.82626149471E+02  0.32605454102E+02  0.20346683055E+03  0.22201114240E+03  0.00000000000E+00 0.  1.
</event>
<event>
12    1  0.2625820E-002  0.1770288E+03  0.7818608E-02  0.1170710E+00
          1   -1    0    0  502    0  0.00000000000E+00  0.00000000000E+00  0.16243222514E+04  0.16243222514E+04  0.00000000000E+00 0.  1.
         -1   -1    0    0    0  501 -0.00000000000E+00 -0.00000000000E+00 -0.22290680860E+02  0.22290680860E+02  0.00000000000E+00 0. -1.
          6    2    1    2  502    0  0.20733244570E+02  0.39103862763E+02  0.11006458918E+04  0.11147010675E+04  0.17081601568E+03 0.  0.
         24    2    3    3    0    0 -0.91348526919E+01  0.77929169235E+02  0.94111644675E+03  0.94775424513E+03  0.79884553436E+02 0.  0.
         -6    2    1    2    0  501 -0.20733244570E+02 -0.39103862763E+02  0.50138567874E+03  0.53191186477E+03  0.17199899280E+03 0.  0.
        -24    2    5    5    0    0 -0.12482059866E+02 -0.37204504176E+02  0.12702749257E+03  0.15742844569E+03  0.84307500822E+02 0.  0.
          5    1    3    3  502    0  0.29868097262E+02 -0.38825306472E+02  0.15952944510E+03  0.16694682240E+03  0.47000000000E+01 0. -1.
        -13    1    4    4    0    0 -0.32279882577E+02  0.35773131889E+02  0.71285659895E+03  0.71448319676E+03  0.00000000000E+00 0.  1.
         14    1    4    4    0    0  0.23145029885E+02  0.42156037345E+02  0.22825984780E+03  0.23327104838E+03  0.00000000000E+00 0. -1.
         -5    1    5    5    0  501 -0.82511847033E+01 -0.18993585865E+01  0.37435818618E+03  0.37448341909E+03  0.47000000000E+01 0.  1.
         11    1    6    6    0    0  0.15031336714E+01 -0.80871215956E+00 -0.12469054021E+02  0.12585338071E+02  0.00000000000E+00 0. -1.
        -12    1    6    6    0    0 -0.13985193538E+02 -0.36395792017E+02  0.13949654659E+03  0.14484310762E+03  0.00000000000E+00 0.  1.
</event>
<event>
12    1  0.2625820E-002  0.1767822E+03  0.7818608E-02  0.1170954E+00
         -1   -1    0    0    0  501 -0.00000000000E+00  0.00000000000E+00  0.90386045070E+02  0.90386045070E+02  0.00000000000E+00 0. -1.
          1   -1    0    0  502    0  0.00000000000E+00 -0.00000000000E+00 -0.34780608538E+03  0.34780608538E+03  0.00000000000E+00 0.  1.
          6    2    1    2  502    0 -0.42731399751E+02 -0.13789360083E+02 -0.11115276149E+03  0.20787565169E+03  0.16982706264E+03 0.  0.
         24    2    3    3    0    0  0.31342626940E+02 -0.79527700258E+01 -0.10045467501E+03  0.13265885657E+03  0.80384225332E+02 0.  0.
         -6    2    1    2    0  501  0.42731399751E+02  0.13789360083E+02 -0.14626727882E+03  0.23031647875E+03  0.17214948317E+03 0.  0.
        -24    2    5    5    0    0 -0.32035971678E+02  0.16696941404E+02 -0.46944988743E+02  0.10587524296E+03  0.87753312020E+02 0.  0.
          5    1    3    3  502    0 -0.74074026691E+02 -0.58365900574E+01 -0.10698086482E+02  0.75216795120E+02  0.47000000000E+01 0. -1.
        -13    1    4    4    0    0  0.23183478001E+02 -0.43658807250E+02 -0.65213954496E+02  0.81831686795E+02  0.00000000000E+00 0.  1.
         14    1    4    4    0    0  0.81591489385E+01  0.35706037224E+02 -0.35240720511E+02  0.50827169779E+02  0.00000000000E+00 0. -1.
         -5    1    5    5    0  501  0.74767371429E+02 -0.29075813210E+01 -0.99322290075E+02  0.12444123579E+03  0.47000000000E+01 0.  1.
         11    1    6    6    0    0  0.28010728030E+02 -0.44405654324E+01 -0.27019901993E+02  0.39171349349E+02  0.00000000000E+00 0. -1.
        -12    1    6    6    0    0 -0.60046699708E+02  0.21137506837E+02 -0.19925086751E+02  0.66703893612E+02  0.00000000000E+00 0.  1.
</event>
<event>
12    1  0.2625820E-002  0.1800715E+03  0.7818608E-02  0.1167734E+00
          1   -1    0    0  502    0  0.00000000000E+00  0.00000000000E+00  0.72609970046E+03  0.72609970046E+03  0.00000000000E+00 0.  1.
         -1   -1    0    0    0  501 -0.00000000000E+00 -0.00000000000E+00 -0.72534752906E+02  0.72534752906E+02  0.00000000000E+00 0. -1.
          6    2    1    2  502    0  0.32470571196E+02  0.45061153325E+02  0.57550673844E+03  0.60333746883E+03  0.17240432063E+03 0.  0.
         24    2    3    3    0    0 -0.47377592897E+02  0.77100484599E+01  0.24367980884E+03  0.25996881046E+03  0.76810494201E+02 0.  0.
         -6    2    1    2    0  501 -0.32470571196E+02 -0.45061153325E+02  0.78058209121E+02  0.19529698454E+03  0.17018514221E+03 0.  0.
        -24    2    5    5    0    0 -0.18097711200E+02  0.39789074568E+02  0.25900821929E+02  0.94556608741E+02  0.79745859293E+02 0.  0.
          5    1    3    3  502    0  0.79848164093E+02  0.37351104865E+02  0.33182692959E+03  0.34336865836E+03  0.47000000000E+01 0. -1.
        -13    1    4    4    0    0 -0.27348323204E+02 -0.34064843804E+02  0.13276536594E+03  0.13976761699E+03  0.00000000000E+00 0.  1.
         14    1    4    4    0    0 -0.20029269694E+02  0.41774892263E+02  0.11091444291E+03  0.12020119348E+03  0.00000000000E+00 0. -1.
         -5    1    5    5    0  501 -0.14372859996E+02 -0.84850227893E+02  0.52157387192E+02  0.10074037580E+03  0.47000000000E+01 0.  1.
         13    1    6    6    0    0 -0.49165291614E+02  0.24743350756E+02  0.23823232233E+02  0.59975042311E+02  0.00000000000E+00 0. -1.
        -14    1    6    6    0    0  0.31067580414E+02  0.15045723812E+02  0.20775896960E+01  0.34581566430E+02  0.00000000000E+00 0.  1.
</event>
<event>
12    1  0.2625820E-002  0.3660579E+03  0.7818608E-02  0.1056211E+00
          2   -1    0    0  502    0  0.00000000000E+00  0.00000000000E+00  0.25655096024E+04  0.25655096024E+04  0.00000000000E+00 0.  1.
         -2   -1    0    0    0  501 -0.00000000000E+00 -0.00000000000E+00 -0.76003484971E+02  0.76003484971E+02  0.00000000000E+00 0. -1.
          6    2    1    2  502    0  0.27617268274E+03 -0.16598554740E+03  0.19861178062E+04  0.20197809328E+04  0.17614915155E+03 0.  0.
         24    2    3    3    0    0  0.22901943516E+03 -0.19118586752E+03  0.17909211672E+04  0.18173400703E+04  0.79525886308E+02 0.  0.
         -6    2    1    2    0  501 -0.27617268274E+03  0.16598554740E+03  0.50338831125E+03  0.62173215464E+03  0.17125573734E+03 0.  0.
        -24    2    5    5    0    0 -0.12058663523E+03  0.13401682896E+03  0.34780876423E+03  0.39934487400E+03  0.77483836216E+02 0.  0.
          5    1    3    3  502    0  0.47153247577E+02  0.25200320124E+02  0.19519663905E+03  0.20244086245E+03  0.47000000000E+01 0. -1.
        -13    1    4    4    0    0  0.11277951962E+03 -0.71091608607E+02  0.10079969084E+04  0.10167748051E+04  0.00000000000E+00 0.  1.
         14    1    4    4    0    0  0.11623991554E+03 -0.12009425891E+03  0.78292425877E+03  0.80056526527E+03  0.00000000000E+00 0. -1.
         -5    1    5    5    0  501 -0.15558604751E+03  0.31968718437E+02  0.15557954702E+03  0.22238728064E+03  0.47000000000E+01 0.  1.
         13    1    6    6    0    0 -0.95117022044E+02  0.85460733799E+02  0.16655570758E+03  0.20997997197E+03  0.00000000000E+00 0. -1.
        -14    1    6    6    0    0 -0.25469613184E+02  0.48556095161E+02  0.18125305665E+03  0.18936490203E+03  0.00000000000E+00 0.  1.
</event>
<event>
12    1  0.2625820E-002  0.1769720E+03  0.7818608E-02  0.1170766E+00
          2   -1    0    0  502    0  0.00000000000E+00  0.00000000000E+00  0.10199530545E+04  0.10199530545E+04  0.00000000000E+00 0. -1.
         -2   -1    0    0    0  501 -0.00000000000E+00 -0.00000000000E+00 -0.33373785912E+02  0.33373785912E+02  0.00000000000E+00 0.  1.
          6    2    1    2  502    0  0.26641980951E+02 -0.33688526299E+02  0.64120416576E+03  0.66507726894E+03  0.17129004502E+03 0.  0.
         24    2    3    3    0    0 -0.42657302127E+02 -0.16019530317E+02  0.23467805445E+03  0.25228173453E+03  0.80597850846E+02 0.  0.
         -6    2    1    2    0  501 -0.26641980951E+02  0.33688526299E+02  0.34537510279E+03  0.38824957143E+03  0.17207282219E+03 0.  0.
        -24    2    5    5    0    0  0.18213673601E+02  0.43692384478E+02  0.32455623361E+03  0.33757786100E+03  0.79883046356E+02 0.  0.
          5    1    3    3  502    0  0.69299283077E+02 -0.17668995982E+02  0.40652611131E+03  0.41279553441E+03  0.47000000000E+01 0. -1.
        -11    1    4    4    0    0  0.17947855760E+02  0.15946605528E+02  0.64918331680E+02  0.69215674109E+02  0.00000000000E+00 0.  1.
         12    1    4    4    0    0 -0.60605157887E+02 -0.31966135845E+02  0.16975972277E+03  0.18306606042E+03  0.00000000000E+00 0. -1.
         -5    1    5    5    0  501 -0.44855654551E+02 -0.10003858178E+02  0.20818869174E+02  0.50671710425E+02  0.47000000000E+01 0.  1.
         13    1    6    6    0    0  0.54585634817E+00  0.44511389354E+02  0.31366223950E+03  0.31680524337E+03  0.00000000000E+00 0. -1.
        -14    1    6    6    0    0  0.17667817252E+02 -0.81900487651E+00  0.10893994115E+02  0.20772617631E+02  0.00000000000E+00 0.  1.
</event>
<event>
12    1  0.2625820E-002  0.2440227E+03  0.7818608E-02  0.1117142E+00
         -2   -1    0    0    0  501 -0.00000000000E+00  0.00000000000E+00  0.14147332657E+02  0.14147332657E+02  0.00000000000E+00 0.  1.
          2   -1    0    0  502    0  0.00000000000E+00 -0.00000000000E+00 -0.44027060411E+04  0.44027060411E+04  0.00000000000E+00 0. -1.
          6    2    1    2  502    0  0.23208822038E+02  0.16751482837E+03 -0.26971925693E+04  0.27086562451E+04  0.18267739641E+03 0.  0.
         24    2    3    3    0    0  0.64188375270E+02  0.75396097377E+02 -0.93828900567E+03  0.94685914540E+03  0.79694818277E+02 0.  0.
         -6    2    1    2    0  501 -0.23208822038E+02 -0.16751482837E+03 -0.16913661392E+04  0.17081971287E+04  0.16916898806E+03 0.  0.
        -24    2    5    5    0    0  0.55639685323E+02 -0.84304759843E+02 -0.86460949769E+03  0.87351776697E+03  0.72668002592E+02 0.  0.
          5    1    3    3  502    0 -0.40979553232E+02  0.92118730995E+02 -0.17589035636E+04  0.17617970997E+04  0.47000000000E+01 0. -1.
        -11    1    4    4    0    0  0.65126385310E+02  0.75275958804E+02 -0.93981086854E+03  0.94506739689E+03  0.00000000000E+00 0.  1.
         12    1    4    4    0    0 -0.93801004072E+00  0.12013857372E+00  0.15218628764E+01  0.17917485113E+01  0.00000000000E+00 0. -1.
         -5    1    5    5    0  501 -0.78848507361E+02 -0.83210068530E+02 -0.82675664148E+03  0.83467936170E+03  0.47000000000E+01 0.  1.
         11    1    6    6    0    0  0.14770936505E+02 -0.77740266795E+02 -0.66280425494E+03  0.66751120591E+03  0.00000000000E+00 0. -1.
        -12    1    6    6    0    0  0.40868748817E+02 -0.65644930475E+01 -0.20180524275E+03  0.20600656106E+03  0.00000000000E+00 0.  1.
</event>
<event>
12    1  0.2625820E-002  0.2101626E+03  0.7818608E-02  0.1141437E+00
         -1   -1    0    0    0  501 -0.00000000000E+00  0.00000000000E+00  0.34207251832E+03  0.34207251832E+03  0.00000000000E+00 0.  1.
          1   -1    0    0  502    0  0.00000000000E+00 -0.00000000000E+00 -0.25583142453E+03  0.25583142453E+03  0.00000000000E+00 0. -1.
          6    2    1    2  502    0 -0.11156730508E+03  0.43526590329E+02  0.25344218181E+03  0.32881028654E+03  0.17187622695E+03 0.  0.
         24    2    3    3    0    0 -0.13402917671E+03  0.50330396836E+02  0.25597459569E+03  0.30474099946E+03  0.82747290343E+02 0.  0.
         -6    2    1    2    0  501  0.11156730508E+03 -0.43526590329E+02 -0.16720108801E+03  0.26909365631E+03  0.17353202703E+03 0.  0.
        -24    2    5    5    0    0  0.13244903496E+03 -0.17248592815E+02 -0.17509227526E+03  0.23429508403E+03  0.79978876778E+02 0.  0.
          5    1    3    3  502    0  0.22461871637E+02 -0.68038065074E+01 -0.25324138831E+01  0.24069287079E+02  0.47000000000E+01 0. -1.
        -11    1    4    4    0    0 -0.57095601419E+02  0.65319877852E+02  0.14238448567E+03  0.16673312779E+03  0.00000000000E+00 0.  1.
         12    1    4    4    0    0 -0.76933575296E+02 -0.14989481016E+02  0.11359011002E+03  0.13800787167E+03  0.00000000000E+00 0. -1.
         -5    1    5    5    0  501 -0.20881729882E+02 -0.26277997514E+02  0.78911872508E+01  0.34798572276E+02  0.47000000000E+01 0.  1.
         13    1    6    6    0    0  0.64668995877E+02 -0.39983371288E+02 -0.12737714155E+03  0.14834313330E+03  0.00000000000E+00 0. -1.
        -14    1    6    6    0    0  0.67780039083E+02  0.22734778474E+02 -0.47715133712E+02  0.85951950737E+02  0.00000000000E+00 0.  1.
</event>
<event>
12    1  0.2625820E-002  0.1802990E+03  0.7818608E-02  0.1167514E+00
          1   -1    0    0  502    0  0.00000000000E+00  0.00000000000E+00  0.24493592691E+03  0.24493592691E+03  0.00000000000E+00 0. -1.
         -1   -1    0    0    0  501 -0.00000000000E+00 -0.00000000000E+00 -0.13733177805E+03  0.13733177805E+03  0.00000000000E+00 0.  1.
          6    2    1    2  502    0 -0.15528482540E+02  0.51893344416E+02  0.18765267465E+02  0.18124399835E+03  0.17193952050E+03 0.  0.
         24    2    3    3    0    0 -0.76030380604E+02  0.41117200532E+02  0.10293289807E+02  0.11903090205E+03  0.81185964750E+02 0.  0.
         -6    2    1    2    0  501  0.15528482540E+02 -0.51893344416E+02  0.88838881397E+02  0.20102370661E+03  0.17200038026E+03 0.  0.
        -24    2    5    5    0    0  0.64169658999E+02 -0.27374058719E+02  0.99334582787E+02  0.14535136908E+03  0.79953592354E+02 0.  0.
          5    1    3    3  502    0  0.60501898064E+02  0.10776143885E+02  0.84719776581E+01  0.62213096304E+02  0.47000000000E+01 0. -1.
        -13    1    4    4    0    0 -0.33733279527E+02 -0.21380997186E+01 -0.30934926349E+02  0.45820031496E+02  0.00000000000E+00 0.  1.
         14    1    4    4    0    0 -0.42297101077E+02  0.43255300250E+02  0.41228216156E+02  0.73210870550E+02  0.00000000000E+00 0. -1.
         -5    1    5    5    0  501 -0.48641176459E+02 -0.24519285697E+02 -0.10495701390E+02  0.55672337530E+02  0.47000000000E+01 0.  1.
         13    1    6    6    0    0  0.43408401912E+02  0.19378143360E+02  0.74775319338E+02  0.88606716329E+02  0.00000000000E+00 0. -1.
        -14    1    6    6    0    0  0.20761257087E+02 -0.46752202079E+02  0.24559263449E+02  0.56744652755E+02  0.00000000000E+00 0.  1.
</event>
<event>
12    1  0.2625820E-002  0.2427425E+03  0.7818608E-02  0.1117979E+00
         -1   -1    0    0    0  501 -0.00000000000E+00  0.00000000000E+00  0.15966268279E+03  0.15966268279E+03  0.00000000000E+00 0. -1.
          1   -1    0    0  502    0  0.00000000000E+00 -0.00000000000E+00 -0.67326476327E+03  0.67326476327E+03  0.00000000000E+00 0.  1.
          6    2    1    2  502    0  0.15128318522E+03 -0.81808707912E+02  0.23400085428E+02  0.24342688547E+03  0.17067459608E+03 0.  0.
         24    2    3    3    0    0  0.38088732767E+02 -0.39112117444E+02  0.63247753440E+02  0.11596744270E+03  0.80421764194E+02 0.  0.
         -6    2    1    2    0  501 -0.15128318522E+03  0.81808707912E+02 -0.53700216590E+03  0.58950056059E+03  0.17193114301E+03 0.  0.
        -24    2    5    5    0    0 -0.77864022201E+02  0.11661069300E+03 -0.36361535318E+03  0.39796302252E+03  0.80607583696E+02 0.  0.
          5    1    3    3  502    0  0.11319445246E+03 -0.42696590469E+02 -0.39847668013E+02  0.12745944277E+03  0.47000000000E+01 0. -1.
        -13    1    4    4    0    0  0.31202449861E+02  0.20385727348E+02  0.22751154629E+02  0.43666758453E+02  0.00000000000E+00 0.  1.
         14    1    4    4    0    0  0.68862829062E+01 -0.59497844792E+02  0.40496598811E+02  0.72300684246E+02  0.00000000000E+00 0. -1.
         -5    1    5    5    0  501 -0.73419163022E+02 -0.34801985092E+02 -0.17338681272E+03  0.19153753807E+03  0.47000000000E+01 0.  1.
         11    1    6    6    0    0 -0.12685065848E+02  0.85843987292E+02 -0.23529229192E+03  0.25078389838E+03  0.00000000000E+00 0. -1.
        -12    1    6    6    0    0 -0.65178956354E+02  0.30766705713E+02 -0.12832306126E+03  0.14717912414E+03  0.00000000000E+00 0.  1.
</event>
<event>
12    1  0.2625820E-002  0.2175451E+03  0.7818608E-02  0.1135727E+00
         -2   -1    0    0    0  501 -0.00000000000E+00  0.00000000000E+00  0.10464740245E+03  0.10464740245E+03  0.00000000000E+00 0.  1.
          2   -1    0    0  502    0  0.00000000000E+00 -0.00000000000E+00 -0.56012973225E+03  0.56012973225E+03  0.00000000000E+00 0. -1.
          6    2    1    2  502    0 -0.12976299182E+03  0.30275409954E+02 -0.37416393638E+03  0.43313676619E+03  0.17278244253E+03 0.  0.
         24    2    3    3    0    0 -0.14932991878E+03  0.52689026775E+02 -0.25577177362E+03  0.31097282285E+03  0.78799353970E+02 0.  0.
         -6    2    1    2    0  501  0.12976299182E+03 -0.30275409954E+02 -0.81318393424E+02  0.23164036852E+03  0.17114188477E+03 0.  0.
        -24    2    5    5    0    0  0.41422578613E+02  0.13798157313E+01 -0.10003426528E+03  0.13583611089E+03  0.82017442548E+02 0.  0.
          5    1    3    3  502    0  0.19566926957E+02 -0.22413616821E+02 -0.11839216276E+03  0.12216394334E+03  0.47000000000E+01 0. -1.
        -11    1    4    4    0    0 -0.74737455917E+02  0.45107960970E+02 -0.19777248286E+03  0.21618133693E+03  0.00000000000E+00 0.  1.
         12    1    4    4    0    0 -0.74592462861E+02  0.75810658052E+01 -0.57999290757E+02  0.94791485919E+02  0.00000000000E+00 0. -1.
         -5    1    5    5    0  501  0.88340413208E+02 -0.31655225685E+02  0.18715871857E+02  0.95804257621E+02  0.47000000000E+01 0.  1.
         11    1    6    6    0    0  0.61031773652E+02  0.71837021086E+01 -0.42345520824E+02  0.74629927676E+02  0.00000000000E+00 0. -1.
        -12    1    6    6    0    0 -0.19609195038E+02 -0.58038863774E+01 -0.57688744457E+02  0.61206183219E+02  0.00000000000E+00 0.  1.
</event>
<event>
12    1  0.2625820E-002  0.1940044E+03  0.7818608E-02  0.1154898E+00
          1   -1    0    0  502    0  0.00000000000E+00  0.00000000000E+00  0.34973601136E+03  0.34973601136E+03  0.00000000000E+00 0. -1.
         -1   -1    0    0    0  501 -0.00000000000E+00 -0.00000000000E+00 -0.11533571699E+03  0.11533571699E+03  0.00000000000E+00 0.  1.
          6    2    1    2  502    0 -0.62509439457E+02 -0.56151995184E+02  0.17816710023E+03  0.26450514817E+03  0.17651906759E+03 0.  0.
         24    2    3    3    0    0 -0.15451075912E+02 -0.75293026171E+01  0.17788357849E+03  0.19667575782E+03  0.82117964361E+02 0.  0.
         -6    2    1    2    0  501  0.62509439457E+02  0.56151995184E+02  0.56233194143E+02  0.20056658017E+03  0.17321750597E+03 0.  0.
        -24    2    5    5    0    0  0.80142508251E+02  0.45606915383E+02  0.96268570632E+02  0.15532229662E+03  0.79715530337E+02 0.  0.
          5    1    3    3  502    0 -0.47058363544E+02 -0.48622692566E+02  0.28352174000E+00  0.67829390359E+02  0.47000000000E+01 0. -1.
        -11    1    4    4    0    0  0.16142721757E+02  0.13064070045E+02  0.73610971432E+01  0.22032774292E+02  0.00000000000E+00 0.  1.
         12    1    4    4    0    0 -0.31593797669E+02 -0.20593372662E+02  0.17052248135E+03  0.17464298352E+03  0.00000000000E+00 0. -1.
         -5    1    5    5    0  501 -0.17633068795E+02  0.10545079801E+02 -0.40035376489E+02  0.45244283548E+02  0.47000000000E+01 0.  1.
         11    1    6    6    0    0  0.16583563335E+02  0.67440775667E+01  0.76049957195E+02  0.78128696037E+02  0.00000000000E+00 0. -1.
        -12    1    6    6    0    0  0.63558944916E+02  0.38862837816E+02  0.20218613438E+02  0.77193600585E+02  0.00000000000E+00 0.  1.
</event>
<event>
12    1  0.2625820E-002  0.1918401E+03  0.7818608E-02  0.1156812E+00
          2   -1    0    0  502    0  0.00000000000E+00  0.00000000000E+00  0.11842054225E+03  0.11842054225E+03  0.00000000000E+00 0.  1.
         -2   -1    0    0    0  501 -0.00000000000E+00 -0.00000000000E+00 -0.32641200043E+03  0.32641200043E+03  0.00000000000E+00 0. -1.
          6    2    1    2  502    0 -0.65192281281E+02 -0.57270049756E+02 -0.15237057493E+03  0.24454141346E+03  0.17045180743E+03 0.  0.
         24    2    3    3    0    0 -0.26447969621E+02  0.15201381574E+02 -0.19547401144E+02  0.88281004086E+02  0.80503774397E+02 0.  0.
         -6    2    1    2    0  501  0.65192281281E+02  0.57270049756E+02 -0.55620883250E+02  0.20029112922E+03  0.17173514973E+03 0.  0.
        -24    2    5    5    0    0 -0.32376811706E+01 -0.93418083647E+01 -0.67752030875E+02  0.10391138993E+03  0.78163209413E+02 0.  0.
          5    1    3    3  502    0 -0.38744311661E+02 -0.72471431330E+02 -0.13282317378E+03  0.15626040938E+03  0.47000000000E+01 0. -1.
        -11    1    4    4    0    0 -0.12771736236E+01 -0.12597518526E+02  0.26216674615E+02  0.29114303587E+02  0.00000000000E+00 0.  1.
         12    1    4    4    0    0 -0.25170795997E+02  0.27798900100E+02 -0.45764075759E+02  0.59166700499E+02  0.00000000000E+00 0. -1.
         -5    1    5    5    0  501  0.68429962452E+02  0.66611858120E+02  0.12131147625E+02  0.96379739293E+02  0.47000000000E+01 0.  1.
         13    1    6    6    0    0 -0.25990644028E+02  0.41451823393E+01  0.47419718822E+01  0.26742894588E+02  0.00000000000E+00 0. -1.
        -14    1    6    6    0    0  0.22752962857E+02 -0.13486990704E+02 -0.72494002757E+02  0.77168495338E+02  0.00000000000E+00 0.  1.
</event>
<event>
12    1  0.2625820E-002  0.3900957E+03  0.7818608E-02  0.1047264E+00
          1   -1    0    0  502    0  0.00000000000E+00  0.00000000000E+00  0.18477047995E+04  0.18477047995E+04  0.00000000000E+00 0. -1.
         -1   -1    0    0    0  501 -0.00000000000E+00 -0.00000000000E+00 -0.12297940921E+03  0.12297940921E+03  0.00000000000E+00 0.  1.
          6    2    1    2  502    0 -0.25469787290E+03 -0.23976360731E+03  0.14288357833E+04  0.14811614434E+04  0.17294488116E+03 0.  0.
         24    2    3    3    0    0 -0.11454843843E+03 -0.96243275224E+02  0.44367261118E+03  0.47577171030E+03  0.84434718235E+02 0.  0.
         -6    2    1    2    0  501  0.25469787290E+03  0.23976360731E+03  0.29588960694E+03  0.48952276526E+03  0.17240732109E+03 0.  0.
        -24    2    5    5    0    0  0.25349917269E+03  0.19194252600E+03  0.20614718945E+03  0.38771861899E+03  0.82007926182E+02 0.  0.
          5    1    3    3  502    0 -0.14014943446E+03 -0.14352033209E+03  0.98516317214E+03  0.10053897331E+04  0.47000000000E+01 0. -1.
        -13    1    4    4    0    0 -0.90646550262E+02 -0.10844808902E+03  0.33040099523E+03  0.35936416452E+03  0.00000000000E+00 0.  1.
         14    1    4    4    0    0 -0.23901888172E+02  0.12204813797E+02  0.11327161594E+03  0.11640754579E+03  0.00000000000E+00 0. -1.
         -5    1    5    5    0  501  0.11987002114E+01  0.47821081314E+02  0.89742417494E+02  0.10180414627E+03  0.47000000000E+01 0.  1.
         13    1    6    6    0    0  0.19868455622E+02  0.34243168489E+02  0.55327264150E+02  0.68032758839E+02  0.00000000000E+00 0. -1.
        -14    1    6    6    0    0  0.23363071706E+03  0.15769935751E+03  0.15081992530E+03  0.31968586015E+03  0.00000000000E+00 0.  1.
</event>
<event>
12    1  0.2625820E-002  0.2039020E+03  0.7818608E-02  0.1146488E+00
         -2   -1    0    0    0  501 -0.00000000000E+00  0.00000000000E+00  0.15274156605E+02  0.15274156605E+02  0.00000000000E+00 0.  1.
          2   -1    0    0  502    0  0.00000000000E+00 -0.00000000000E+00 -0.28099186023E+04  0.28099186023E+04  0.00000000000E+00 0. -1.
          6    2    1    2  502    0 -0.77924074238E+01  0.11249412721E+03 -0.16602071947E+04  0.16729298619E+04  0.17231002070E+03 0.  0.
         24    2    3    3    0    0 -0.66096843927E+02  0.71197091940E+02 -0.12715587269E+04  0.12777405732E+04  0.79508223344E+02 0.  0.
         -6    2    1    2    0  501  0.77924074238E+01 -0.11249412721E+03 -0.11344372511E+04  0.11522628971E+04  0.16747016780E+03 0.  0.
        -24    2    5    5    0    0  0.34013884307E+02 -0.34399919377E+02 -0.87615587745E+03  0.88112155182E+03  0.79911005022E+02 0.  0.
          5    1    3    3  502    0  0.58304436504E+02  0.41297035269E+02 -0.38864846774E+03  0.39518928872E+03  0.47000000000E+01 0. -1.
        -13    1    4    4    0    0 -0.34555936363E+02  0.25295147465E+02 -0.19076248980E+03  0.19551031875E+03  0.00000000000E+00 0.  1.
         14    1    4    4    0    0 -0.31540907565E+02  0.45901944475E+02 -0.10807962371E+04  0.10822302544E+04  0.00000000000E+00 0. -1.
         -5    1    5    5    0  501 -0.26221476883E+02 -0.78094207832E+02 -0.25828137361E+03  0.27114134525E+03  0.47000000000E+01 0.  1.
         13    1    6    6    0    0  0.49097548163E-01 -0.49824401227E+02 -0.65029315800E+03  0.65219909898E+03  0.00000000000E+00 0. -1.
        -14    1    6    6    0    0  0.33964786759E+02  0.15424481850E+02 -0.22586271945E+03  0.22892245285E+03  0.00000000000E+00 0.  1.
</event>
<event>
12    1  0.2625820E-002  0.1801014E+03  0.7818608E-02  0.1167705E+00
          2   -1    0    0  502    0  0.00000000000E+00  0.00000000000E+00  0.15652328286E+04  0.15652328286E+04  0.00000000000E+00 0.  1.
         -2   -1    0    0    0  501 -0.00000000000E+00 -0.00000000000E+00 -0.10183012312E+03  0.10183012312E+03  0.00000000000E+00 0. -1.
          6    2    1    2  502    0 -0.51280227080E+02  0.21592175302E+01 -0.11957022664E+02  0.18078603680E+03  0.17293437137E+03 0.  0.
         24    2    3    3    0    0 -0.32893331297E+01 -0.23715237535E+02  0.50518082473E+02  0.97732788283E+02  0.80164761866E+02 0.  0.
         -6    2    1    2    0  501  0.51280227080E+02 -0.21592175302E+01  0.14753597282E+04  0.14862769150E+04  0.17233228510E+03 0.  0.
        -24    2    5    5    0    0  0.59015643977E+02  0.50264845791E+02  0.12455988528E+04  0.12504374167E+04  0.77896277130E+02 0.  0.
          5    1    3    3  502    0 -0.47990893950E+02  0.25874455065E+02 -0.62475105137E+02  0.83053248515E+02  0.47000000000E+01 0. -1.
        -13    1    4    4    0    0 -0.33693987429E+02  0.11370914072E+02  0.12395530788E+02  0.37659416607E+02  0.00000000000E+00 0.  1.
         14    1    4    4    0    0  0.30404654299E+02 -0.35086151607E+02  0.38122551685E+02  0.60073371676E+02  0.00000000000E+00 0. -1.
         -5    1    5    5    0  501 -0.77354168972E+01 -0.52424063321E+02  0.22976087535E+03  0.23583949825E+03  0.47000000000E+01 0.  1.
         11    1    6    6    0    0 -0.19340306477E+02  0.10997580812E+02  0.25615731862E+03  0.25712169516E+03  0.00000000000E+00 0. -1.
        -12    1    6    6    0    0  0.78355950454E+02  0.39267264979E+02  0.98944153421E+03  0.99331572155E+03  0.00000000000E+00 0.  1.
</event>
<event>
12    1  0.2625820E-002  0.1912426E+03  0.7818608E-02  0.1157345E+00
          2   -1    0    0  502    0  0.00000000000E+00  0.00000000000E+00  0.10143932796E+04  0.10143932796E+04  0.00000000000E+00 0. -1.
         -2   -1    0    0    0  501 -0.00000000000E+00 -0.00000000000E+00 -0.48405648259E+02  0.48405648259E+02  0.00000000000E+00 0.  1.
          6    2    1    2  502    0 -0.26003349390E+02 -0.81657120149E+02  0.75167890258E+03  0.77565971692E+03  0.17112207463E+03 0.  0.
         24    2    3    3    0    0  0.34238677101E+02 -0.58189060393E+02  0.46926100416E+03  0.48589807189E+03  0.10645558925E+03 0.  0.
         -6    2    1    2    0  501  0.26003349390E+02  0.81657120149E+02  0.21430872878E+03  0.28713921096E+03  0.17081169686E+03 0.  0.
        -24    2    5    5    0    0 -0.26986990233E+02  0.53901346057E+02  0.46218903614E+02  0.10866053320E+03  0.77699882080E+02 0.  0.
          5    1    3    3  502    0 -0.60242026491E+02 -0.23468059756E+02  0.28241789842E+03  0.28976164503E+03  0.47000000000E+01 0. -1.
        -13    1    4    4    0    0 -0.18122808021E+02  0.23098057918E+02  0.10690022575E+03  0.11085853470E+03  0.00000000000E+00 0.  1.
         14    1    4    4    0    0  0.52361485122E+02 -0.81287118311E+02  0.36236077841E+03  0.37503953719E+03  0.00000000000E+00 0. -1.
         -5    1    5    5    0  501  0.52990339623E+02  0.27755774093E+02  0.16808982517E+03  0.17847867776E+03  0.47000000000E+01 0.  1.
         13    1    6    6    0    0  0.24393591794E+02  0.86192646534E+00  0.95314139976E+01  0.26203780083E+02  0.00000000000E+00 0. -1.
        -14    1    6    6    0    0 -0.51380582027E+02  0.53039419592E+02  0.36687489616E+02  0.82456753116E+02  0.00000000000E+00 0.  1.
</event>
<event>
12    1  0.2625820E-002  0.2087577E+03  0.7818608E-02  0.1142554E+00
          3   -1    0    0  502    0  0.00000000000E+00  0.00000000000E+00  0.92060341985E+03  0.92060341985E+03  0.00000000000E+00 0. -1.
         -3   -1    0    0    0  501 -0.00000000000E+00 -0.00000000000E+00 -0.52332761493E+02  0.52332761493E+02  0.00000000000E+00 0.  1.
          6    2    1    2  502    0  0.11665989104E+03 -0.16621976932E+02  0.28317130484E+03  0.35158860573E+03  0.17188001484E+03 0.  0.
         24    2    3    3    0    0  0.21508686597E+02  0.32762874975E+02  0.70533103988E+02  0.11340861126E+03  0.79690430881E+02 0.  0.
         -6    2    1    2    0  501 -0.11665989104E+03  0.16621976932E+02  0.58509935352E+03  0.62134757562E+03  0.17275918482E+03 0.  0.
        -24    2    5    5    0    0 -0.44637978416E+02  0.57896540112E+01  0.50369312326E+03  0.51201524077E+03  0.80167170050E+02 0.  0.
          5    1    3    3  502    0  0.95151204439E+02 -0.49384851906E+02  0.21263820085E+03  0.23817999447E+03  0.47000000000E+01 0. -1.
        -13    1    4    4    0    0  0.37803346647E+02  0.22557425604E+02  0.40576769076E+01  0.44208542268E+02  0.00000000000E+00 0.  1.
         14    1    4    4    0    0 -0.16294660050E+02  0.10205449370E+02  0.66475427080E+02  0.69200068992E+02  0.00000000000E+00 0. -1.
         -5    1    5    5    0  501 -0.72021912620E+02  0.10832322921E+02  0.81406230264E+02  0.10933233485E+03  0.47000000000E+01 0.  1.
         11    1    6    6    0    0  0.48956176656E+00  0.36228817591E+02  0.24429909509E+03  0.24697128326E+03  0.00000000000E+00 0. -1.
        -12    1    6    6    0    0 -0.45127540183E+02 -0.30439163579E+02  0.25939402817E+03  0.26504395751E+03  0.00000000000E+00 0.  1.
</event>
<event>
12    1  0.2625820E-002  0.1905343E+03  0.7818608E-02  0.1157980E+00
          2   -1    0    0  502    0  0.00000000000E+00  0.00000000000E+00  0.11817584372E+04  0.11817584372E+04  0.00000000000E+00 0. -1.
         -2   -1    0    0    0  501 -0.00000000000E+00 -0.00000000000E+00 -0.30998476748E+02  0.30998476748E+02  0.00000000000E+00 0.  1.
          6    2    1    2  502    0  0.24073572364E+02 -0.79622311938E+02  0.64116875507E+03  0.66976052646E+03  0.17482145430E+03 0.  0.
         24    2    3    3    0    0  0.69274157210E+02 -0.97307229375E+01  0.43313503741E+03  0.44564438522E+03  0.78098409824E+02 0.  0.
         -6    2    1    2    0  501 -0.24073572364E+02  0.79622311938E+02  0.50959120541E+03  0.54299638751E+03  0.16805543960E+03 0.  0.
        -24    2    5    5    0    0 -0.22243930199E+02 -0.19400342518E+02  0.27790676274E+03  0.29098725144E+03  0.81057054028E+02 0.  0.
          5    1    3    3  502    0 -0.45200584846E+02 -0.69891589001E+02  0.20803371766E+03  0.22411614125E+03  0.47000000000E+01 0. -1.
        -11    1    4    4    0    0  0.26072470887E+02 -0.78811643052E+01  0.31310110635E+02  0.41499512249E+02  0.00000000000E+00 0.  1.
         12    1    4    4    0    0  0.43201686323E+02 -0.18495586324E+01  0.40182492677E+03  0.40414487297E+03  0.00000000000E+00 0. -1.
         -5    1    5    5    0  501 -0.18296421658E+01  0.99022654456E+02  0.23168444267E+03  0.25200913607E+03  0.47000000000E+01 0.  1.
         11    1    6    6    0    0 -0.32309826365E+01  0.17274155632E+02  0.21507573767E+03  0.21579251293E+03  0.00000000000E+00 0. -1.
        -12    1    6    6    0    0 -0.19012947562E+02 -0.36674498150E+02  0.62831025066E+02  0.75194738516E+02  0.00000000000E+00 0.  1.
</event>
<event>
12    1  0.2625820E-002  0.3356457E+03  0.7818608E-02  0.1068666E+00
          2   -1    0    0  502    0  0.00000000000E+00  0.00000000000E+00  0.12043299994E+04  0.12043299994E+04  0.00000000000E+00 0. -1.
         -2   -1    0    0    0  501 -0.00000000000E+00 -0.00000000000E+00 -0.96123842078E+02  0.96123842078E+02  0.00000000000E+00 0.  1.
          6    2    1    2  502    0  0.27221567756E+03 -0.97649419850E+02  0.66166142928E+03  0.74222058680E+03  0.17163556787E+03 0.  0.
         24    2    3    3    0    0  0.62754476618E+02 -0.71213438273E+01  0.13419330711E+03  0.16749105288E+03  0.77823976048E+02 0.  0.
         -6    2    1    2    0  501 -0.27221567756E+03  0.97649419850E+02  0.44654472803E+03  0.55823325467E+03  0.16907213899E+03 0.  0.
        -24    2    5    5    0    0 -0.87192243312E+02  0.72503677186E+02  0.13163094702E+03  0.19209290035E+03  0.81937205534E+02 0.  0.
          5    1    3    3  502    0  0.20946120094E+03 -0.90528076023E+02  0.52746812218E+03  0.57472953392E+03  0.47000000000E+01 0. -1.
        -11    1    4    4    0    0  0.49502425014E+02 -0.23596675754E+01  0.21668630839E+02  0.54088701924E+02  0.00000000000E+00 0.  1.
         12    1    4    4    0    0  0.13252051603E+02 -0.47616762519E+01  0.11252467627E+03  0.11340235095E+03  0.00000000000E+00 0. -1.
         -5    1    5    5    0  501 -0.18502343425E+03  0.25145742664E+02  0.31491378100E+03  0.36614035432E+03  0.47000000000E+01 0.  1.
         13    1    6    6    0    0 -0.11195207092E+02  0.14524378436E+02  0.82699638250E+02  0.84708443484E+02  0.00000000000E+00 0. -1.
        -14    1    6    6    0    0 -0.75997036220E+02  0.57979298750E+02  0.48931308773E+02  0.10738445686E+03  0.00000000000E+00 0.  1.
</event>
<event>
12    1  0.2625820E-002  0.1737348E+03  0.7818608E-02  0.1174008E+00
          2   -1    0    0  502    0  0.00000000000E+00  0.00000000000E+00  0.28122004953E+03  0.28122004953E+03  0.00000000000E+00 0.  1.
         -2   -1    0    0    0  501 -0.00000000000E+00 -0.00000000000E+00 -0.10734929678E+03  0.10734929678E+03  0.00000000000E+00 0. -1.
          6    2    1    2  502    0  0.14113448650E+02  0.27165922319E+02  0.89058152435E+02  0.19471264266E+03  0.17042441706E+03 0.  0.
         24    2    3    3    0    0  0.10170295799E+02 -0.31737167490E+02  0.10279935483E+03  0.13391763393E+03  0.79091988268E+02 0.  0.
         -6    2    1    2    0  501 -0.14113448650E+02 -0.27165922319E+02  0.84812600318E+02  0.19385670364E+03  0.17161021999E+03 0.  0.
        -24    2    5    5    0    0 -0.70297628507E+02 -0.21852043831E+02  0.26248165601E+02  0.11239025420E+03  0.80767163179E+02 0.  0.
          5    1    3    3  502    0  0.39431528507E+01  0.58903089808E+02 -0.13741202394E+02  0.60795008731E+02  0.47000000000E+01 0. -1.
        -11    1    4    4    0    0  0.19384570204E+02  0.38970222929E+00  0.98300213284E+02  0.10019403855E+03  0.00000000000E+00 0.  1.
         12    1    4    4    0    0 -0.92142744044E+01 -0.32126869719E+02  0.44991415445E+01  0.33723595380E+02  0.00000000000E+00 0. -1.
         -5    1    5    5    0  501  0.56184179857E+02 -0.53138784874E+01  0.58564434717E+02  0.81466449441E+02  0.47000000000E+01 0.  1.
         11    1    6    6    0    0 -0.67650494760E+02 -0.41494982753E+02  0.39398569447E+02  0.88604008427E+02  0.00000000000E+00 0. -1.
        -12    1    6    6    0    0 -0.26471337472E+01  0.19642938921E+02 -0.13150403846E+02  0.23786245771E+02  0.00000000000E+00 0.  1.
</event>
<event>
12    1  0.2625820E-002  0.2412953E+03  0.7818608E-02  0.1118933E+00
         -2   -1    0    0    0  501 -0.00000000000E+00  0.00000000000E+00  0.12695763602E+03  0.12695763602E+03  0.00000000000E+00 0. -1.
          2   -1    0    0  502    0  0.00000000000E+00 -0.00000000000E+00 -0.50035692830E+03  0.50035692830E+03  0.00000000000E+00 0.  1.
          6    2    1    2  502    0  0.76558842622E+02 -0.15042409128E+03 -0.95994354268E+02  0.25955742226E+03  0.17223958830E+03 0.  0.
         24    2    3    3    0    0  0.39297348776E+02 -0.16860761566E+03 -0.48153749190E+02  0.19607614174E+03  0.78449092526E+02 0.  0.
         -6    2    1    2    0  501 -0.76558842622E+02  0.15042409128E+03 -0.27740493801E+03  0.36775714206E+03  0.17263589510E+03 0.  0.
        -24    2    5    5    0    0 -0.46038889667E+02  0.78868546965E+02 -0.56680281281E+02  0.13367782315E+03  0.79481312603E+02 0.  0.
          5    1    3    3  502    0  0.37261493846E+02  0.18183524377E+02 -0.47840605077E+02  0.63481280521E+02  0.47000000000E+01 0. -1.
        -11    1    4    4    0    0  0.47834518441E+02 -0.96777509996E+02 -0.58852082435E+02  0.12295363029E+03  0.00000000000E+00 0.  1.
         12    1    4    4    0    0 -0.85371696658E+01 -0.71830105663E+02  0.10698333245E+02  0.73122511443E+02  0.00000000000E+00 0. -1.
         -5    1    5    5    0  501 -0.30519952955E+02  0.71555544317E+02 -0.22072465673E+03  0.23407931891E+03  0.47000000000E+01 0.  1.
         13    1    6    6    0    0 -0.86199385927E+01  0.66997167009E+02 -0.64782774364E+02  0.93593437712E+02  0.00000000000E+00 0. -1.
        -14    1    6    6    0    0 -0.37418951074E+02  0.11871379956E+02  0.81024930827E+01  0.40084385435E+02  0.00000000000E+00 0.  1.
</event>
<event>
12    1  0.2625820E-002  0.2327311E+03  0.7818608E-02  0.1124732E+00
          2   -1    0    0  502    0  0.00000000000E+00  0.00000000000E+00  0.14664042851E+04  0.14664042851E+04  0.00000000000E+00 0. -1.
         -2   -1    0    0    0  501 -0.00000000000E+00 -0.00000000000E+00 -0.48031093748E+02  0.48031093748E+02  0.00000000000E+00 0.  1.
          6    2    1    2  502    0  0.75680703306E+02 -0.13991514904E+03  0.34449687363E+03  0.41556059955E+03  0.16943641337E+03 0.  0.
         24    2    3    3    0    0  0.10591535038E+03 -0.80988546967E+02  0.17839115636E+03  0.23667606242E+03  0.80093368435E+02 0.  0.
         -6    2    1    2    0  501 -0.75680703306E+02  0.13991514904E+03  0.10738763178E+04  0.10988747793E+04  0.17032796901E+03 0.  0.
        -24    2    5    5    0    0 -0.15214211431E+01  0.70665851296E+02  0.29158722259E+03  0.31001903664E+03  0.78055861001E+02 0.  0.
          5    1    3    3  502    0 -0.30234647079E+02 -0.58926602071E+02  0.16610571727E+03  0.17888453713E+03  0.47000000000E+01 0. -1.
        -11    1    4    4    0    0  0.61026927042E+02 -0.89677139769E+02  0.11066494031E+03  0.15496129915E+03  0.00000000000E+00 0.  1.
         12    1    4    4    0    0  0.44888423342E+02  0.86885928020E+01  0.67726216049E+02  0.81714763264E+02  0.00000000000E+00 0. -1.
         -5    1    5    5    0  501 -0.74159282162E+02  0.69249297741E+02  0.78228909516E+03  0.78885574269E+03  0.47000000000E+01 0.  1.
         11    1    6    6    0    0 -0.86517400772E+01 -0.56962138682E+01  0.13760408617E+03  0.13799342010E+03  0.00000000000E+00 0. -1.
        -12    1    6    6    0    0  0.71303189340E+01  0.76362065165E+02  0.15398313642E+03  0.17202561654E+03  0.00000000000E+00 0.  1.
</event>
<event>
12    1  0.2625820E-002  0.1851645E+03  0.7818608E-02  0.1162896E+00
          1   -1    0    0  502    0  0.00000000000E+00  0.00000000000E+00  0.14253201229E+04  0.14253201229E+04  0.00000000000E+00 0. -1.
         -1   -1    0    0    0  501 -0.00000000000E+00 -0.00000000000E+00 -0.30795310158E+02  0.30795310158E+02  0.00000000000E+00 0.  1.
          6    2    1    2  502    0  0.70357586595E+02 -0.18618596718E+01  0.10388188177E+04  0.10552483116E+04  0.17161237327E+03 0.  0.
         24    2    3    3    0    0  0.68872095508E+02  0.22821092909E+02  0.35844010420E+03  0.37440417482E+03  0.80218514096E+02 0.  0.
         -6    2    1    2    0  501 -0.70357586595E+02  0.18618596718E+01  0.35570599504E+03  0.40086712143E+03  0.17092114447E+03 0.  0.
        -24    2    5    5    0    0 -0.11066013171E+03  0.10257922797E+02  0.22362852875E+03  0.26244264340E+03  0.80718848300E+02 0.  0.
          5    1    3    3  502    0  0.14854910870E+01 -0.24682952580E+02  0.68037871349E+03  0.68084413679E+03  0.47000000000E+01 0. -1.
        -13    1    4    4    0    0 -0.15909382196E+02 -0.26043454836E+01  0.27942930498E+02  0.32259857751E+02  0.00000000000E+00 0.  1.
         14    1    4    4    0    0  0.84781477704E+02  0.25425438392E+02  0.33049717370E+03  0.34214431707E+03  0.00000000000E+00 0. -1.
         -5    1    5    5    0  501  0.40302545116E+02 -0.83960631249E+01  0.13207746628E+03  0.13842447803E+03  0.47000000000E+01 0.  1.
         13    1    6    6    0    0 -0.66261917723E+02 -0.33965878916E+02  0.11384484937E+03  0.13603298276E+03  0.00000000000E+00 0. -1.
        -14    1    6    6    0    0 -0.44398213989E+02  0.44223801713E+02  0.10978367938E+03  0.12640966063E+03  0.00000000000E+00 0.  1.
</event>
<event>
12    1  0.2625820E-002  0.2085328E+03  0.7818608E-02  0.1142733E+00
          2   -1    0    0  502    0  0.00000000000E+00  0.00000000000E+00  0.16260930612E+03  0.16260930612E+03  0.00000000000E+00 0.  1.
         -2   -1    0    0    0  501 -0.00000000000E+00 -0.00000000000E+00 -0.26842120325E+03  0.26842120325E+03  0.00000000000E+00 0. -1.
          6    2    1    2  502    0  0.69158945531E+02  0.96458646212E+02 -0.65859672118E+02  0.21810475661E+03  0.17071894525E+03 0.  0.
         24    2    3    3    0    0  0.48123742766E+02  0.11237016130E+03  0.14678175582E+01  0.14564278773E+03  0.79162613403E+02 0.  0.
         -6    2    1    2    0  501 -0.69158945531E+02 -0.96458646212E+02 -0.39952225019E+02  0.21292575276E+03  0.17220326864E+03 0.  0.
        -24    2    5    5    0    0 -0.27789352851E+02  0.16868988360E+02 -0.24081684510E+01  0.86489040770E+02  0.80110823225E+02 0.  0.
          5    1    3    3  502    0  0.21035202766E+02 -0.15911515087E+02 -0.67327489676E+02  0.72461968879E+02  0.47000000000E+01 0. -1.
        -13    1    4    4    0    0  0.41904602333E+02  0.11886430026E+02  0.97199650778E+01  0.44629145595E+02  0.00000000000E+00 0.  1.
         14    1    4    4    0    0  0.62191404323E+01  0.10048373127E+03 -0.82521475196E+01  0.10101364213E+03  0.00000000000E+00 0. -1.
         -5    1    5    5    0  501 -0.41369592681E+02 -0.11332763457E+03 -0.37544056568E+02  0.12643671199E+03  0.47000000000E+01 0.  1.
         11    1    6    6    0    0 -0.23453131568E+02  0.96761848737E+01 -0.40330989853E+02  0.47647315523E+02  0.00000000000E+00 0. -1.
        -12    1    6    6    0    0 -0.43362212823E+01  0.71928034867E+01  0.37922821402E+02  0.38841725246E+02  0.00000000000E+00 0.  1.
</event>
<event>
12    1  0.2625820E-002  0.3076937E+03  0.7818608E-02  0.1081457E+00
          2   -1    0    0  502    0  0.00000000000E+00  0.00000000000E+00  0.24756588977E+04  0.24756588977E+04  0.00000000000E+00 0.  1.
         -2   -1    0    0    0  501 -0.00000000000E+00 -0.00000000000E+00 -0.39389257467E+02  0.39389257467E+02  0.00000000000E+00 0. -1.
          6    2    1    2  502    0  0.45754254359E+02  0.24984458060E+03  0.10076993121E+04  0.10539402191E+04  0.17554576494E+03 0.  0.
         24    2    3    3    0    0  0.29121259674E+02  0.33766163010E+02  0.33230188941E+03  0.34460933183E+03  0.79641976063E+02 0.  0.
         -6    2    1    2    0  501 -0.45754254359E+02 -0.24984458060E+03  0.14285703281E+04  0.14611079360E+04  0.17177733309E+03 0.  0.
        -24    2    5    5    0    0 -0.67489966313E+02 -0.75274284417E+02  0.48748425122E+03  0.50370920845E+03  0.76556894140E+02 0.  0.
          5    1    3    3  502    0  0.16632994685E+02  0.21607841759E+03  0.67539742272E+03  0.70933088730E+03  0.47000000000E+01 0. -1.
        -13    1    4    4    0    0  0.88005796054E+01  0.39017912161E+02  0.31465806693E+03  0.31719007985E+03  0.00000000000E+00 0.  1.
         14    1    4    4    0    0  0.20320680069E+02 -0.52517491511E+01  0.17643822480E+02  0.27419251983E+02  0.00000000000E+00 0. -1.
         -5    1    5    5    0  501  0.21735711954E+02 -0.17457029618E+03  0.94108607689E+03  0.95739872759E+03  0.47000000000E+01 0.  1.
         13    1    6    6    0    0 -0.17315714195E+02  0.10934728770E+02  0.16184697221E+03  0.16313750233E+03  0.00000000000E+00 0. -1.
        -14    1    6    6    0    0 -0.50174252118E+02 -0.86209013187E+02  0.32563727901E+03  0.34057170612E+03  0.00000000000E+00 0.  1.
</event>
<event>
12    1  0.2625820E-002  0.1927018E+03  0.7818608E-02  0.1156047E+00
         -2   -1    0    0    0  501 -0.00000000000E+00  0.00000000000E+00  0.61356225330E+02  0.61356225330E+02  0.00000000000E+00 0.  1.
          2   -1    0    0  502    0  0.00000000000E+00 -0.00000000000E+00 -0.61703267547E+03  0.61703267547E+03  0.00000000000E+00 0. -1.
          6    2    1    2  502    0 -0.82295714640E+02 -0.15062832090E+02 -0.32581409944E+03  0.37891829515E+03  0.17442698601E+03 0.  0.
         24    2    3    3    0    0  0.12111309645E+02  0.30211866631E+02 -0.17667144139E+03  0.19663251120E+03  0.79950644481E+02 0.  0.
         -6    2    1    2    0  501  0.82295714640E+02  0.15062832090E+02 -0.22986235070E+03  0.29947060565E+03  0.17276130881E+03 0.  0.
        -24    2    5    5    0    0  0.84378473384E+02  0.56493604581E+02 -0.10215970215E+03  0.16511695576E+03  0.80720197015E+02 0.  0.
          5    1    3    3  502    0 -0.94407024285E+02 -0.45274698721E+02 -0.14914265805E+03  0.18228578395E+03  0.47000000000E+01 0. -1.
        -13    1    4    4    0    0  0.27926163424E+02  0.35859797270E+01 -0.14767161012E+02  0.31793063686E+02  0.00000000000E+00 0.  1.
         14    1    4    4    0    0 -0.15814853779E+02  0.26625886904E+02 -0.16190428038E+03  0.16483944752E+03  0.00000000000E+00 0. -1.
         -5    1    5    5    0  501 -0.20827587436E+01 -0.41430772491E+02 -0.12770264855E+03  0.13435364989E+03  0.47000000000E+01 0.  1.
         11    1    6    6    0    0  0.22706014426E+01 -0.16678017270E+02 -0.31278902995E+01  0.17120034717E+02  0.00000000000E+00 0. -1.
        -12    1    6    6    0    0  0.82107871941E+02  0.73171621852E+02 -0.99031811853E+02  0.14799692104E+03  0.00000000000E+00 0.  1.
</event>
<event>
12    1  0.2625820E-002  0.2637892E+03  0.7818608E-02  0.1104888E+00
          2   -1    0    0  502    0  0.00000000000E+00  0.00000000000E+00  0.14533285611E+04  0.14533285611E+04  0.00000000000E+00 0. -1.
         -2   -1    0    0    0  501 -0.00000000000E+00 -0.00000000000E+00 -0.11254668772E+03  0.11254668772E+03  0.00000000000E+00 0.  1.
          6    2    1    2  502    0  0.86658921111E+01  0.20281132109E+03  0.79649663434E+02  0.27795723820E+03  0.17236190917E+03 0.  0.
         24    2    3    3    0    0 -0.16628521655E+02  0.16888271312E+03  0.11696043704E+03  0.22134326789E+03  0.80716912018E+02 0.  0.
         -6    2    1    2    0  501 -0.86658921111E+01 -0.20281132109E+03  0.12611322099E+04  0.12879180106E+04  0.16453212906E+03 0.  0.
        -24    2    5    5    0    0  0.33555183216E+02 -0.66931012496E+02  0.72684941116E+03  0.73499281085E+03  0.79364064615E+02 0.  0.
          5    1    3    3  502    0  0.25294413766E+02  0.33928607969E+02 -0.37310773606E+02  0.56613970304E+02  0.47000000000E+01 0. -1.
        -13    1    4    4    0    0  0.13268180689E+02  0.12611905448E+03  0.49675186395E+02  0.13619722708E+03  0.00000000000E+00 0.  1.
         14    1    4    4    0    0 -0.29896702343E+02  0.42763658641E+02  0.67285250645E+02  0.85146040811E+02  0.00000000000E+00 0. -1.
         -5    1    5    5    0  501 -0.42221075327E+02 -0.13588030859E+03  0.53428279875E+03  0.55292519974E+03  0.47000000000E+01 0.  1.
         11    1    6    6    0    0 -0.14013402281E+02 -0.25128390370E+02  0.45316910281E+03  0.45408154244E+03  0.00000000000E+00 0. -1.
        -12    1    6    6    0    0  0.47568585497E+02 -0.41802622126E+02  0.27368030835E+03  0.28091126841E+03  0.00000000000E+00 0.  1.
</event>
<event>
12    1  0.2625820E-002  0.2501899E+03  0.7818608E-02  0.1113185E+00
         -1   -1    0    0    0  501 -0.00000000000E+00  0.00000000000E+00  0.72390252050E+02  0.72390252050E+02  0.00000000000E+00 0.  1.
          1   -1    0    0  502    0  0.00000000000E+00 -0.00000000000E+00 -0.93030352033E+03  0.93030352033E+03  0.00000000000E+00 0. -1.
          6    2    1    2  502    0 -0.10121576678E+03  0.15124951521E+03 -0.29530907946E+03  0.38683943571E+03  0.17121988587E+03 0.  0.
         24    2    3    3    0    0 -0.78131770348E+02  0.11640187523E+03 -0.10608967508E+03  0.19300109612E+03  0.79626841276E+02 0.  0.
         -6    2    1    2    0  501  0.10121576678E+03 -0.15124951521E+03 -0.56260418883E+03  0.61585433667E+03  0.17213960442E+03 0.  0.
        -24    2    5    5    0    0  0.11799758274E+03 -0.17015519312E+03 -0.52480779016E+03  0.57014097149E+03  0.82227072664E+02 0.  0.
          5    1    3    3  502    0 -0.23083996434E+02  0.34847639988E+02 -0.18921940437E+03  0.19383833959E+03  0.47000000000E+01 0. -1.
        -13    1    4    4    0    0  0.14127068796E+02  0.31168394167E+02 -0.33706148455E+02  0.48032773305E+02  0.00000000000E+00 0.  1.
         14    1    4    4    0    0 -0.92258839143E+02  0.85233481058E+02 -0.72383526628E+02  0.14496832282E+03  0.00000000000E+00 0. -1.
         -5    1    5    5    0  501 -0.16781815958E+02  0.18905677907E+02 -0.37796398670E+02  0.45713365183E+02  0.47000000000E+01 0.  1.
         13    1    6    6    0    0 -0.31206393704E+01 -0.35888141597E+02 -0.46688575762E+02  0.58970502830E+02  0.00000000000E+00 0. -1.
        -14    1    6    6    0    0  0.12111822211E+03 -0.13426705152E+03 -0.47811921440E+03  0.51117046866E+03  0.00000000000E+00 0.  1.
</event>
<event>
12    1  0.2625820E-002  0.2937118E+03  0.7818608E-02  0.1088427E+00
          3   -1    0    0  502    0  0.00000000000E+00  0.00000000000E+00  0.43193994314E+02  0.43193994314E+02  0.00000000000E+00 0.  1.
         -3   -1    0    0    0  501 -0.00000000000E+00 -0.00000000000E+00 -0.19977212122E+04  0.19977212122E+04  0.00000000000E+00 0. -1.
          6    2    1    2  502    0 -0.21000914812E+03 -0.11501642235E+03 -0.96453707350E+03  0.10085729760E+04  0.17191585752E+03 0.  0.
         24    2    3    3    0    0 -0.18699297751E+03 -0.57764612340E+02 -0.87256052610E+03  0.89771590978E+03  0.78923120152E+02 0.  0.
         -6    2    1    2    0  501  0.21000914812E+03  0.11501642235E+03 -0.98999014435E+03  0.10323422305E+04  0.16827767292E+03 0.  0.
        -24    2    5    5    0    0  0.11876107962E+03  0.48125246726E+02 -0.33087428874E+03  0.36356989216E+03  0.79278232367E+02 0.  0.
          5    1    3    3  502    0 -0.23016170611E+02 -0.57251810013E+02 -0.91976547396E+02  0.11085706622E+03  0.47000000000E+01 0. -1.
        -11    1    4    4    0    0 -0.16409879733E+03 -0.49467531087E+02 -0.59797432000E+03  0.62205203905E+03  0.00000000000E+00 0.  1.
         12    1    4    4    0    0 -0.22894180183E+02 -0.82970812540E+01 -0.27458620610E+03  0.27566387073E+03  0.00000000000E+00 0. -1.
         -5    1    5    5    0  501  0.91248068495E+02  0.66891175628E+02 -0.65911585561E+03  0.66877233832E+03  0.47000000000E+01 0.  1.
         11    1    6    6    0    0  0.87650371664E+02  0.15280529047E+02 -0.28728618777E+03  0.30074812701E+03  0.00000000000E+00 0. -1.
        -12    1    6    6    0    0  0.31110707960E+02  0.32844717678E+02 -0.43588100974E+02  0.62821765143E+02  0.00000000000E+00 0.  1.
</event>
<event>
12    1  0.2625820E-002  0.3001846E+03  0.7818608E-02  0.1085148E+00
          4   -1    0    0  502    0  0.00000000000E+00  0.00000000000E+00  0.68689743031E+02  0.68689743031E+02  0.00000000000E+00 0.  1.
         -4   -1    0    0    0  501 -0.00000000000E+00 -0.00000000000E+00 -0.13617564843E+04  0.13617564843E+04  0.00000000000E+00 0. -1.
          6    2    1    2  502    0 -0.18244641883E+03 -0.16639659350E+03 -0.51060625021E+03  0.59254982254E+03  0.17152850308E+03 0.  0.
         24    2    3    3    0    0 -0.43223974634E+02 -0.12445626490E+03 -0.27740748463E+03  0.31769416151E+03  0.81344906879E+02 0.  0.
         -6    2    1    2    0  501  0.18244641883E+03  0.16639659350E+03 -0.78246049107E+03  0.83789640480E+03  0.16985712530E+03 0.  0.
        -24    2    5    5    0    0  0.13063009229E+03  0.74009263426E+02 -0.31886894655E+03  0.36233404233E+03  0.84065219128E+02 0.  0.
          5    1    3    3  502    0 -0.13922244420E+03 -0.41940328599E+02 -0.23319876558E+03  0.27485566103E+03  0.47000000000E+01 0. -1.
        -13    1    4    4    0    0 -0.44034123837E+02 -0.13481206011E+03 -0.26985115668E+03  0.30484904851E+03  0.00000000000E+00 0.  1.
         14    1    4    4    0    0  0.81014920312E+00  0.10355795207E+02 -0.75563279434E+01  0.12845113004E+02  0.00000000000E+00 0. -1.
         -5    1    5    5    0  501  0.51816326543E+02  0.92387330073E+02 -0.46359154451E+03  0.47556236247E+03  0.47000000000E+01 0.  1.
         13    1    6    6    0    0  0.47790272253E+01 -0.31700517839E+01 -0.88716266808E+02  0.88901430393E+02  0.00000000000E+00 0. -1.
        -14    1    6    6    0    0  0.12585106507E+03  0.77179315210E+02 -0.23015267975E+03  0.27343261193E+03  0.00000000000E+00 0.  1.
</event>
<event>
12    1  0.2625820E-002  0.2113290E+03  0.7818608E-02  0.1140518E+00
          1   -1    0    0  502    0  0.00000000000E+00  0.00000000000E+00  0.92212634032E+03  0.92212634032E+03  0.00000000000E+00 0. -1.
         -1   -1    0    0    0  501 -0.00000000000E+00 -0.00000000000E+00 -0.50805131476E+02  0.50805131476E+02  0.00000000000E+00 0.  1.
          6    2    1    2  502    0 -0.10274137882E+03 -0.49270105181E+02  0.53351225985E+03  0.57255507585E+03  0.17378334009E+03 0.  0.
         24    2    3    3    0    0 -0.10376135157E+03 -0.69972455359E+02  0.27702609145E+03  0.31518982523E+03  0.83298307292E+02 0.  0.
         -6    2    1    2    0  501  0.10274137882E+03  0.49270105181E+02  0.33780894899E+03  0.40037639594E+03  0.18221700859E+03 0.  0.
        -24    2    5    5    0    0  0.55890520189E+01  0.71128388730E+02  0.25618771830E+03  0.27153356741E+03  0.54843833204E+02 0.  0.
          5    1    3    3  502    0  0.10199727524E+01  0.20702350178E+02  0.25648616840E+03  0.25736525063E+03  0.47000000000E+01 0. -1.
        -11    1    4    4    0    0 -0.41716598365E+02 -0.72888593658E+02  0.12131913802E+03  0.14755119422E+03  0.00000000000E+00 0.  1.
         12    1    4    4    0    0 -0.62044753206E+02  0.29161382993E+01  0.15570695343E+03  0.16763863101E+03  0.00000000000E+00 0. -1.
         -5    1    5    5    0  501  0.97152326800E+02 -0.21858283549E+02  0.81621230699E+02  0.12884282853E+03  0.47000000000E+01 0.  1.
         11    1    6    6    0    0  0.24841131856E+02  0.11593040561E+02  0.79592874928E+02  0.84181388445E+02  0.00000000000E+00 0. -1.
        -12    1    6    6    0    0 -0.19252079837E+02  0.59535348169E+02  0.17659484337E+03  0.18735217897E+03  0.00000000000E+00 0.  1.
</event>
<event>
12    1  0.2625820E-002  0.1912045E+03  0.7818608E-02  0.1157379E+00
          1   -1    0    0  502    0  0.00000000000E+00  0.00000000000E+00  0.90592527734E+03  0.90592527734E+03  0.00000000000E+00 0.  1.
         -1   -1    0    0    0  501 -0.00000000000E+00 -0.00000000000E+00 -0.40357848586E+02  0.40357848586E+02  0.00000000000E+00 0. -1.
          6    2    1    2  502    0  0.54261384394E+02  0.62624293785E+02  0.42927328507E+03  0.46993319181E+03  0.17232397243E+03 0.  0.
         24    2    3    3    0    0  0.24019964141E+02  0.16159752400E+02  0.39640732927E+03  0.40531308537E+03  0.79384067665E+02 0.  0.
         -6    2    1    2    0  501 -0.54261384394E+02 -0.62624293785E+02  0.43629414368E+03  0.47634993412E+03  0.17230954680E+03 0.  0.
        -24    2    5    5    0    0 -0.51641291630E+02  0.13252519817E+02  0.34105900547E+03  0.35446483545E+03  0.80508521744E+02 0.  0.
          5    1    3    3  502    0  0.30241420253E+02  0.46464541384E+02  0.32865955804E+02  0.64620106436E+02  0.47000000000E+01 0. -1.
        -13    1    4    4    0    0  0.26820366914E+02  0.45504801599E+02  0.20738563265E+03  0.21400658794E+03  0.00000000000E+00 0.  1.
         14    1    4    4    0    0 -0.28004027725E+01 -0.29345049199E+02  0.18902169661E+03  0.19130649743E+03  0.00000000000E+00 0. -1.
         -5    1    5    5    0  501 -0.26200927638E+01 -0.75876813601E+02  0.95235138207E+02  0.12188509867E+03  0.47000000000E+01 0.  1.
         11    1    6    6    0    0 -0.28189757708E+01  0.40510378358E+02  0.13867436487E+03  0.14449780915E+03  0.00000000000E+00 0. -1.
        -12    1    6    6    0    0 -0.48822315859E+02 -0.27257858542E+02  0.20238464061E+03  0.20996702630E+03  0.00000000000E+00 0.  1.
</event>
<event>
12    1  0.2625820E-002  0.2113863E+03  0.7818608E-02  0.1140473E+00
          2   -1    0    0  502    0  0.00000000000E+00  0.00000000000E+00  0.15438951384E+03  0.15438951384E+03  0.00000000000E+00 0. -1.
         -2   -1    0    0    0  501 -0.00000000000E+00 -0.00000000000E+00 -0.29629052161E+03  0.29629052161E+03  0.00000000000E+00 0.  1.
          6    2    1    2  502    0 -0.12325479469E+03  0.17466252553E+02 -0.10530195149E+03  0.23629861085E+03  0.17103133664E+03 0.  0.
         24    2    3    3    0    0 -0.10905254560E+03  0.16734967692E+01 -0.13905355139E+03  0.19614421496E+03  0.85096443020E+02 0.  0.
         -6    2    1    2    0  501  0.12325479469E+03 -0.17466252553E+02 -0.36599056278E+02  0.21438142460E+03  0.17065488537E+03 0.  0.
        -24    2    5    5    0    0  0.67703656798E+02 -0.69745980693E+02  0.86885508849E+01  0.12554361588E+03  0.78977348690E+02 0.  0.
          5    1    3    3  502    0 -0.14202249090E+02  0.15792755784E+02  0.33751599896E+02  0.40154395899E+02  0.47000000000E+01 0. -1.
        -13    1    4    4    0    0  0.10605990157E+02  0.19558663907E+01  0.22140284515E+01  0.11009739439E+02  0.00000000000E+00 0.  1.
         14    1    4    4    0    0 -0.11965853575E+03 -0.28236962149E+00 -0.14126757984E+03  0.18513447552E+03  0.00000000000E+00 0. -1.
         -5    1    5    5    0  501  0.55551137888E+02  0.52279728139E+02 -0.45287607163E+02  0.88837808716E+02  0.47000000000E+01 0.  1.
         11    1    6    6    0    0  0.54677471658E+02 -0.62088106704E+02  0.39159689837E+02  0.91531635018E+02  0.00000000000E+00 0. -1.
        -12    1    6    6    0    0  0.13026185140E+02 -0.76578739889E+01 -0.30471138952E+02  0.34011980865E+02  0.00000000000E+00 0.  1.
</event>
<event>
12    1  0.2625820E-002  0.2028808E+03  0.7818608E-02  0.1147331E+00
         -2   -1    0    0    0  501 -0.00000000000E+00  0.00000000000E+00  0.10713030625E+03  0.10713030625E+03  0.00000000000E+00 0. -1.
          2   -1    0    0  502    0  0.00000000000E+00 -0.00000000000E+00 -0.43323025819E+03  0.43323025819E+03  0.00000000000E+00 0.  1.
          6    2    1    2  502    0 -0.10061297278E+03 -0.38504197704E+02 -0.71869923052E+02  0.21483864823E+03  0.17141999708E+03 0.  0.
         24    2    3    3    0    0 -0.80957704078E+02 -0.45030033875E+02 -0.11470179780E+03  0.16703095408E+03  0.78491932082E+02 0.  0.
         -6    2    1    2    0  501  0.10061297278E+03  0.38504197704E+02 -0.25423002889E+03  0.32552191621E+03  0.17241249030E+03 0.  0.
        -24    2    5    5    0    0  0.28199849947E+02 -0.77625901877E+01 -0.30904986316E+02  0.86188590783E+02  0.74952422633E+02 0.  0.
          5    1    3    3  502    0 -0.19655268702E+02  0.65258361714E+01  0.42831874747E+02  0.47807694148E+02  0.47000000000E+01 0. -1.
        -11    1    4    4    0    0 -0.79114367672E+02 -0.32570710032E+01 -0.81582559569E+02  0.11368995430E+03  0.00000000000E+00 0.  1.
         12    1    4    4    0    0 -0.18433364066E+01 -0.41772962872E+02 -0.33119238229E+02  0.53340999776E+02  0.00000000000E+00 0. -1.
         -5    1    5    5    0  501  0.72413122833E+02  0.46266787892E+02 -0.22332504257E+03  0.23933332543E+03  0.47000000000E+01 0.  1.
         11    1    6    6    0    0 -0.12911519588E+02 -0.25445181462E+02  0.48040644101E+01  0.28935162563E+02  0.00000000000E+00 0. -1.
        -12    1    6    6    0    0  0.41111369535E+02  0.17682591274E+02 -0.35709050726E+02  0.57253428220E+02  0.00000000000E+00 0.  1.
</event>
<event>
12    1  0.2625820E-002  0.1951733E+03  0.7818608E-02  0.1153876E+00
         -1   -1    0    0    0  501 -0.00000000000E+00  0.00000000000E+00  0.15520603796E+03  0.15520603796E+03  0.00000000000E+00 0.  1.
          1   -1    0    0  502    0  0.00000000000E+00 -0.00000000000E+00 -0.26052815275E+03  0.26052815275E+03  0.00000000000E+00 0. -1.
          6    2    1    2  502    0  0.94033537154E+02  0.14208964173E+02 -0.10285405788E+03  0.22117951357E+03  0.17116430477E+03 0.  0.
         24    2    3    3    0    0  0.13838088826E+02 -0.28042983305E+02 -0.99310125712E+02  0.13034347197E+03  0.78415674456E+02 0.  0.
         -6    2    1    2    0  501 -0.94033537154E+02 -0.14208964173E+02 -0.24680569154E+01  0.19455467715E+03  0.16970925232E+03 0.  0.
        -24    2    5    5    0    0 -0.82888396052E+02 -0.68242335085E+02 -0.23011452593E+02  0.13549588908E+03  0.79385807979E+02 0.  0.
          5    1    3    3  502    0  0.80195448329E+02  0.42251947478E+02 -0.35439321639E+01  0.90836041599E+02  0.47000000000E+01 0. -1.
        -11    1    4    4    0    0  0.20043637320E+02  0.10605698235E+02  0.96693541920E+00  0.22697206792E+02  0.00000000000E+00 0.  1.
         12    1    4    4    0    0 -0.62055484938E+01 -0.38648681540E+02 -0.10027706113E+03  0.10764626517E+03  0.00000000000E+00 0. -1.
         -5    1    5    5    0  501 -0.11145141102E+02  0.54033370912E+02  0.20543395677E+02  0.59058788069E+02  0.47000000000E+01 0.  1.
         11    1    6    6    0    0 -0.20280935380E+02 -0.67640100874E+02 -0.16740008101E+02  0.72572222354E+02  0.00000000000E+00 0. -1.
        -12    1    6    6    0    0 -0.62607460673E+02 -0.60223421041E+00 -0.62714444916E+01  0.62923666724E+02  0.00000000000E+00 0.  1.
</event>
<event>
12    1  0.2625820E-002  0.2171213E+03  0.7818608E-02  0.1136048E+00
          2   -1    0    0  502    0  0.00000000000E+00  0.00000000000E+00  0.33635326380E+04  0.33635326380E+04  0.00000000000E+00 0.  1.
         -2   -1    0    0    0  501 -0.00000000000E+00 -0.00000000000E+00 -0.22050170977E+02  0.22050170977E+02  0.00000000000E+00 0. -1.
          6    2    1    2  502    0  0.73195457863E+02  0.11546184394E+03  0.27123766172E+04  0.27213893356E+04  0.17402295727E+03 0.  0.
         24    2    3    3    0    0  0.44140875401E+02  0.13008465979E+01  0.77968915350E+03  0.78510944245E+03  0.80818014442E+02 0.  0.
         -6    2    1    2    0  501 -0.73195457863E+02 -0.11546184394E+03  0.62910584981E+03  0.66419347341E+03  0.16337009335E+03 0.  0.
        -24    2    5    5    0    0 -0.87039692705E+02 -0.35878445155E+02  0.29306299973E+03  0.31854615708E+03  0.81991227856E+02 0.  0.
          5    1    3    3  502    0  0.29054582462E+02  0.11416099734E+03  0.19326874637E+04  0.19362798931E+04  0.47000000000E+01 0. -1.
        -13    1    4    4    0    0  0.66805476459E+02 -0.68452521247E+00  0.65153916526E+03  0.65495551309E+03  0.00000000000E+00 0.  1.
         14    1    4    4    0    0 -0.22664601058E+02  0.19853718104E+01  0.12814998824E+03  0.13015392936E+03  0.00000000000E+00 0. -1.
         -5    1    5    5    0  501  0.13844234841E+02 -0.79583398785E+02  0.33604285007E+03  0.34564731633E+03  0.47000000000E+01 0.  1.
         11    1    6    6    0    0 -0.14656897824E+02 -0.48697752061E+02  0.13373713204E+03  0.14308010413E+03  0.00000000000E+00 0. -1.
        -12    1    6    6    0    0 -0.72382794881E+02  0.12819306905E+02  0.15932586769E+03  0.17546605296E+03  0.00000000000E+00 0.  1.
</event>
<event>
12    1  0.2625820E-002  0.1716578E+03  0.7818608E-02  0.1176130E+00
         -2   -1    0    0    0  501 -0.00000000000E+00  0.00000000000E+00  0.15116029454E+02  0.15116029454E+02  0.00000000000E+00 0. -1.
          2   -1    0    0  502    0  0.00000000000E+00 -0.00000000000E+00 -0.20380113467E+04  0.20380113467E+04  0.00000000000E+00 0.  1.
          6    2    1    2  502    0 -0.79214353118E+01 -0.11997743091E+02 -0.79031790488E+03  0.80847805549E+03  0.16978716220E+03 0.  0.
         24    2    3    3    0    0 -0.50760970690E+02 -0.25592436800E+02 -0.28685284966E+03  0.30298899199E+03  0.79285073877E+02 0.  0.
         -6    2    1    2    0  501  0.79214353118E+01  0.11997743091E+02 -0.12325774124E+04  0.12446493207E+04  0.17233153802E+03 0.  0.
        -24    2    5    5    0    0 -0.46678644757E+02  0.94168991033E+00 -0.41618915539E+03  0.42634908165E+03  0.79877053666E+02 0.  0.
          5    1    3    3  502    0  0.42839535378E+02  0.13594693709E+02 -0.50346505522E+03  0.50548906350E+03  0.47000000000E+01 0. -1.
        -11    1    4    4    0    0  0.10176566906E+02 -0.32102567991E+02 -0.70612376653E+02  0.78231995514E+02  0.00000000000E+00 0.  1.
         12    1    4    4    0    0 -0.60937537596E+02  0.65101311905E+01 -0.21624047301E+03  0.22475699647E+03  0.00000000000E+00 0. -1.
         -5    1    5    5    0  501  0.54600080069E+02  0.11056053181E+02 -0.81638825696E+03  0.81830023901E+03  0.47000000000E+01 0.  1.
         11    1    6    6    0    0  0.19067880335E+02 -0.14283117793E+02 -0.14147855489E+03  0.14347046040E+03  0.00000000000E+00 0. -1.
        -12    1    6    6    0    0 -0.65746525092E+02  0.15224807703E+02 -0.27471060051E+03  0.28287862125E+03  0.00000000000E+00 0.  1.
</event>
<event>
12    1  0.2625820E-002  0.1846414E+03  0.7818608E-02  0.1163385E+00
         -2   -1    0    0    0  501 -0.00000000000E+00  0.00000000000E+00  0.53805827636E+03  0.53805827636E+03  0.00000000000E+00 0. -1.
          2   -1    0    0  502    0  0.00000000000E+00 -0.00000000000E+00 -0.63801108157E+02  0.63801108157E+02  0.00000000000E+00 0.  1.
          6    2    1    2  502    0  0.20534798685E+02  0.65917987942E+02  0.26242906202E+03  0.32102896801E+03  0.17153345626E+03 0.  0.
         24    2    3    3    0    0 -0.44251490386E+02  0.71778852721E+02  0.19372904285E+03  0.22630095937E+03  0.81060372969E+02 0.  0.
         -6    2    1    2    0  501 -0.20534798685E+02 -0.65917987942E+02  0.21182810619E+03  0.28083041651E+03  0.17096115692E+03 0.  0.
        -24    2    5    5    0    0 -0.74463626570E+02 -0.69746055344E+02  0.14300291715E+03  0.19318357274E+03  0.80378570188E+02 0.  0.
          5    1    3    3  502    0  0.64786289072E+02 -0.58608647793E+01  0.68700019164E+02  0.94728008639E+02  0.47000000000E+01 0. -1.
        -13    1    4    4    0    0 -0.40735267043E+02 -0.18552189989E+01  0.92360762607E+02  0.10096194475E+03  0.00000000000E+00 0.  1.
         14    1    4    4    0    0 -0.35162233437E+01  0.73634071720E+02  0.10136828025E+03  0.12533901462E+03  0.00000000000E+00 0. -1.
         -5    1    5    5    0  501  0.53928827885E+02  0.38280674023E+01  0.68825189037E+02  0.87646843771E+02  0.47000000000E+01 0.  1.
         13    1    6    6    0    0 -0.17364285569E+02 -0.62343745298E+02  0.10769021897E+03  0.12564013790E+03  0.00000000000E+00 0. -1.
        -14    1    6    6    0    0 -0.57099341001E+02 -0.74023100459E+01  0.35312698183E+02  0.67543434838E+02  0.00000000000E+00 0.  1.
</event>
<event>
12    1  0.2625820E-002  0.1918016E+03  0.7818608E-02  0.1156846E+00
          1   -1    0    0  502    0  0.00000000000E+00  0.00000000000E+00  0.12664789252E+03  0.12664789252E+03  0.00000000000E+00 0. -1.
         -1   -1    0    0    0  501 -0.00000000000E+00 -0.00000000000E+00 -0.29611735383E+03  0.29611735383E+03  0.00000000000E+00 0.  1.
          6    2    1    2  502    0  0.79669435915E+02  0.11612314522E+02 -0.11434684445E+03  0.22419882340E+03  0.17523654502E+03 0.  0.
         24    2    3    3    0    0  0.28359619915E+02 -0.55386670215E+02 -0.92224780889E+02  0.13683157055E+03  0.79658754764E+02 0.  0.
         -6    2    1    2    0  501 -0.79669435915E+02 -0.11612314522E+02 -0.55122616857E+02  0.19856642296E+03  0.17293945926E+03 0.  0.
        -24    2    5    5    0    0  0.59163895784E+01  0.43000556008E+02 -0.30803286785E+02  0.94062743747E+02  0.77555823778E+02 0.  0.
          5    1    3    3  502    0  0.51309816000E+02  0.66998984736E+02 -0.22122063561E+02  0.87367252846E+02  0.47000000000E+01 0. -1.
        -13    1    4    4    0    0  0.50003792325E+02 -0.16465942673E+02 -0.30904351693E+02  0.61045765361E+02  0.00000000000E+00 0.  1.
         14    1    4    4    0    0 -0.21644172410E+02 -0.38920727542E+02 -0.61320429196E+02  0.75785805191E+02  0.00000000000E+00 0. -1.
         -5    1    5    5    0  501 -0.85585825494E+02 -0.54612870530E+02 -0.24319330072E+02  0.10450367921E+03  0.47000000000E+01 0.  1.
         13    1    6    6    0    0  0.15343762495E+02  0.23005635259E+02  0.22953497067E+02  0.35938187611E+02  0.00000000000E+00 0. -1.
        -14    1    6    6    0    0 -0.94273729169E+01  0.19994920749E+02 -0.53756783852E+02  0.58124556136E+02  0.00000000000E+00 0.  1.
</event>
<event>
12    1  0.2625820E-002  0.2470738E+03  0.7818608E-02  0.1115168E+00
          1   -1    0    0  502    0  0.00000000000E+00  0.00000000000E+00  0.13158253770E+04  0.13158253770E+04  0.00000000000E+00 0. -1.
         -1   -1    0    0    0  501 -0.00000000000E+00 -0.00000000000E+00 -0.60894220446E+02  0.60894220446E+02  0.00000000000E+00 0.  1.
          6    2    1    2  502    0  0.22761839267E+02 -0.17518290636E+03  0.96339464079E+03  0.99457482449E+03  0.17275038521E+03 0.  0.
         24    2    3    3    0    0 -0.48329420629E+02 -0.13528052000E+03  0.61539919240E+03  0.63712680062E+03  0.81103896711E+02 0.  0.
         -6    2    1    2    0  501 -0.22761839267E+02  0.17518290636E+03  0.29153651574E+03  0.38214477294E+03  0.17272502849E+03 0.  0.
        -24    2    5    5    0    0  0.37993156661E+02  0.71426673563E+02  0.77890130953E+02  0.13694405290E+03  0.78368051368E+02 0.  0.
          5    1    3    3  502    0  0.71091259896E+02 -0.39902386357E+02  0.34799544839E+03  0.35744802387E+03  0.47000000000E+01 0. -1.
        -13    1    4    4    0    0 -0.57209637141E+01 -0.19977109587E+02  0.18887429023E+02  0.28081120141E+02  0.00000000000E+00 0.  1.
         14    1    4    4    0    0 -0.42608456915E+02 -0.11530341042E+03  0.59651176338E+03  0.60904568047E+03  0.00000000000E+00 0. -1.
         -5    1    5    5    0  501 -0.60754995928E+02  0.10375623280E+03  0.21364638479E+03  0.24520072004E+03  0.47000000000E+01 0.  1.
         13    1    6    6    0    0  0.44859407066E+01  0.77273705940E+02  0.63054103086E+02  0.99835711094E+02  0.00000000000E+00 0. -1.
        -14    1    6    6    0    0  0.33507215955E+02 -0.58470323770E+01  0.14836027867E+02  0.37108341805E+02  0.00000000000E+00 0.  1.
</event>
<event>
12    1  0.2625820E-002  0.3014763E+03  0.7818608E-02  0.1084505E+00
          1   -1    0    0  502    0  0.00000000000E+00  0.00000000000E+00  0.69310965464E+03  0.69310965464E+03  0.00000000000E+00 0. -1.
         -1   -1    0    0    0  501 -0.00000000000E+00 -0.00000000000E+00 -0.13200499068E+03  0.13200499068E+03  0.00000000000E+00 0.  1.
          6    2    1    2  502    0 -0.11509377339E+02  0.24498735259E+03  0.31191539093E+03  0.43224745261E+03  0.17145081070E+03 0.  0.
         24    2    3    3    0    0 -0.23198683063E+02  0.26382796997E+03  0.28955604060E+03  0.40040975045E+03  0.79635990395E+02 0.  0.
         -6    2    1    2    0  501  0.11509377339E+02 -0.24498735259E+03  0.24918927303E+03  0.39286719271E+03  0.17915933863E+03 0.  0.
        -24    2    5    5    0    0  0.59567619373E+02 -0.19423681953E+03  0.23595500227E+03  0.32157590884E+03  0.80374490426E+02 0.  0.
          5    1    3    3  502    0  0.11689305724E+02 -0.18840617386E+02  0.22359350327E+02  0.31837702160E+02  0.47000000000E+01 0. -1.
        -11    1    4    4    0    0 -0.20327679604E+02  0.41327269619E+02  0.18293170267E+02  0.49556007211E+02  0.00000000000E+00 0.  1.
         12    1    4    4    0    0 -0.28710034591E+01  0.22250070036E+03  0.27126287033E+03  0.35085374324E+03  0.00000000000E+00 0. -1.
         -5    1    5    5    0  501 -0.48058242034E+02 -0.50750533056E+02  0.13234270763E+02  0.71291283868E+02  0.47000000000E+01 0.  1.
         13    1    6    6    0    0  0.45387512007E+02 -0.39386196148E+02  0.43679313754E+02  0.74291191559E+02  0.00000000000E+00 0. -1.
        -14    1    6    6    0    0  0.14180107367E+02 -0.15485062339E+03  0.19227568852E+03  0.24728471728E+03  0.00000000000E+00 0.  1.
</event>
<event>
12    1  0.2625820E-002  0.1761864E+03  0.7818608E-02  0.1171546E+00
          1   -1    0    0  502    0  0.00000000000E+00  0.00000000000E+00  0.33022806753E+04  0.33022806753E+04  0.00000000000E+00 0. -1.
         -1   -1    0    0    0  501 -0.00000000000E+00 -0.00000000000E+00 -0.99638387733E+01  0.99638387733E+01  0.00000000000E+00 0.  1.
          6    2    1    2  502    0 -0.13101940151E+02  0.36388403976E+02  0.12524060677E+04  0.12647411639E+04  0.17191124530E+03 0.  0.
         24    2    3    3    0    0 -0.93830070094E+00 -0.14826896789E+02  0.29920269618E+03  0.31007382980E+03  0.80017555886E+02 0.  0.
         -6    2    1    2    0  501  0.13101940151E+02 -0.36388403976E+02  0.20399107688E+04  0.20475033502E+04  0.17186694784E+03 0.  0.
        -24    2    5    5    0    0 -0.45290220421E+02 -0.42576780228E+02  0.83702626459E+03  0.84317733088E+03  0.80442882938E+02 0.  0.
          5    1    3    3  502    0 -0.12163639450E+02  0.51215300764E+02  0.95320337156E+03  0.95466733405E+03  0.47000000000E+01 0. -1.
        -13    1    4    4    0    0 -0.15172836067E+01  0.26430193190E+02  0.21149404714E+03  0.21314452664E+03  0.00000000000E+00 0.  1.
         14    1    4    4    0    0  0.57898290575E+00 -0.41257089978E+02  0.87708649038E+02  0.96929303159E+02  0.00000000000E+00 0. -1.
         -5    1    5    5    0  501  0.58392160572E+02  0.61883762526E+01  0.12028845042E+04  0.12043260193E+04  0.47000000000E+01 0.  1.
         13    1    6    6    0    0 -0.35216061225E+02 -0.73298315521E+01  0.71147608080E+03  0.71238480539E+03  0.00000000000E+00 0. -1.
        -14    1    6    6    0    0 -0.10074159196E+02 -0.35246948676E+02  0.12555018379E+03  0.13079252549E+03  0.00000000000E+00 0.  1.
</event>
<event>
12    1  0.2625820E-002  0.1818289E+03  0.7818608E-02  0.1166045E+00
          2   -1    0    0  502    0  0.00000000000E+00  0.00000000000E+00  0.24682790693E+03  0.24682790693E+03  0.00000000000E+00 0. -1.
         -2   -1    0    0    0  501 -0.00000000000E+00 -0.00000000000E+00 -0.13525760842E+03  0.13525760842E+03  0.00000000000E+00 0.  1.
          6    2    1    2  502    0  0.63768995820E+01  0.59805527344E+02  0.37161731490E+02  0.18615421512E+03  0.17220636332E+03 0.  0.
         24    2    3    3    0    0 -0.47759534703E+02  0.22025170162E+02  0.63602577135E+02  0.11488488634E+03  0.79919759855E+02 0.  0.
         -6    2    1    2    0  501 -0.63768995820E+01 -0.59805527344E+02  0.74408567021E+02  0.19593130023E+03  0.17098267051E+03 0.  0.
        -24    2    5    5    0    0  0.22529942352E+02 -0.68213925389E+02  0.10709176686E+03  0.15124810183E+03  0.79035459496E+02 0.  0.
          5    1    3    3  502    0  0.54136434285E+02  0.37780357182E+02 -0.26440845646E+02  0.71269328778E+02  0.47000000000E+01 0. -1.
        -13    1    4    4    0    0 -0.27778245094E+02  0.46234302424E+02  0.13236477452E+02  0.55537788545E+02  0.00000000000E+00 0.  1.
         14    1    4    4    0    0 -0.19981289609E+02 -0.24209132262E+02  0.50366099683E+02  0.59347097794E+02  0.00000000000E+00 0. -1.
         -5    1    5    5    0  501 -0.28906841934E+02  0.84083980451E+01 -0.32683199835E+02  0.44683198406E+02  0.47000000000E+01 0.  1.
         13    1    6    6    0    0  0.87508031098E+01  0.39935464078E+00  0.72781612026E+02  0.73306882953E+02  0.00000000000E+00 0. -1.
        -14    1    6    6    0    0  0.13779139243E+02 -0.68613280030E+02  0.34310154831E+02  0.77941218872E+02  0.00000000000E+00 0.  1.
</event>
<event>
12    1  0.2625820E-002  0.1847887E+03  0.7818608E-02  0.1163247E+00
          1   -1    0    0  502    0  0.00000000000E+00  0.00000000000E+00  0.48235346644E+03  0.48235346644E+03  0.00000000000E+00 0. -1.
         -1   -1    0    0    0  501 -0.00000000000E+00 -0.00000000000E+00 -0.75255109668E+02  0.75255109668E+02  0.00000000000E+00 0.  1.
          6    2    1    2  502    0  0.51471011385E+02 -0.44846208865E+02  0.27239732771E+03  0.32968769318E+03  0.17272296728E+03 0.  0.
         24    2    3    3    0    0  0.57139305390E+02 -0.89234793137E+02  0.15535152507E+03  0.20429117852E+03  0.79831326904E+02 0.  0.
         -6    2    1    2    0  501 -0.51471011385E+02  0.44846208865E+02  0.13470102906E+03  0.22792088293E+03  0.17071354423E+03 0.  0.
        -24    2    5    5    0    0 -0.73655384250E+02 -0.22009877664E+02  0.10419421589E+03  0.15101419691E+03  0.77712950655E+02 0.  0.
          5    1    3    3  502    0 -0.56682940050E+01  0.44388584272E+02  0.11704580265E+03  0.12539651466E+03  0.47000000000E+01 0. -1.
        -13    1    4    4    0    0  0.50283827904E+02 -0.51281250620E+02  0.39026450932E+02  0.81739182074E+02  0.00000000000E+00 0.  1.
         14    1    4    4    0    0  0.68554774862E+01 -0.37953542517E+02  0.11632507413E+03  0.12255199645E+03  0.00000000000E+00 0. -1.
         -5    1    5    5    0  501  0.22184372865E+02  0.66856086529E+02  0.30506813177E+02  0.76906686027E+02  0.47000000000E+01 0.  1.
         13    1    6    6    0    0  0.20180386189E+01 -0.30844894764E+02  0.44712680494E+02  0.54357187288E+02  0.00000000000E+00 0. -1.
        -14    1    6    6    0    0 -0.75673422869E+02  0.88350171008E+01  0.59481535391E+02  0.96657009618E+02  0.00000000000E+00 0.  1.
</event>
<event>
12    1  0.2625820E-002  0.2634763E+03  0.7818608E-02  0.1105072E+00
         -2   -1    0    0    0  501 -0.00000000000E+00  0.00000000000E+00  0.96246909373E+02  0.96246909373E+02  0.00000000000E+00 0.  1.
          2   -1    0    0  502    0  0.00000000000E+00 -0.00000000000E+00 -0.10893287529E+04  0.10893287529E+04  0.00000000000E+00 0. -1.
          6    2    1    2  502    0 -0.19344803671E+03  0.78895981985E+01 -0.15140821151E+03  0.30349170727E+03  0.17804039205E+03 0.  0.
         24    2    3    3    0    0 -0.19963251753E+03  0.95576305287E+01 -0.96680672153E+02  0.24819049843E+03  0.11093638170E+03 0.  0.
         -6    2    1    2    0  501  0.19344803671E+03 -0.78895981985E+01 -0.84167363197E+03  0.88208395496E+03  0.17936892757E+03 0.  0.
        -24    2    5    5    0    0  0.15288568269E+03 -0.40789622228E+01 -0.36384285153E+03  0.40249645487E+03  0.78937352801E+02 0.  0.
          5    1    3    3  502    0  0.61844808214E+01 -0.16680323303E+01 -0.54727539360E+02  0.55301208842E+02  0.47000000000E+01 0. -1.
        -13    1    4    4    0    0 -0.16336041623E+03  0.23943219701E+02 -0.11873700624E+03  0.20336759823E+03  0.00000000000E+00 0.  1.
         14    1    4    4    0    0 -0.36272101303E+02 -0.14385589173E+02  0.22056334084E+02  0.44822900196E+02  0.00000000000E+00 0. -1.
         -5    1    5    5    0  501  0.40562354022E+02 -0.38106359756E+01 -0.47783078043E+03  0.47958750009E+03  0.47000000000E+01 0.  1.
         11    1    6    6    0    0  0.22457207955E+02 -0.30026201988E+02 -0.58955298470E+02  0.69868635400E+02  0.00000000000E+00 0. -1.
        -12    1    6    6    0    0  0.13042847473E+03  0.25947239765E+02 -0.30488755306E+03  0.33262781947E+03  0.00000000000E+00 0.  1.
</event>
<event>
12    1  0.2625820E-002  0.1903831E+03  0.7818608E-02  0.1158116E+00
          2   -1    0    0  502    0  0.00000000000E+00  0.00000000000E+00  0.10450169243E+03  0.10450169243E+03  0.00000000000E+00 0.  1.
         -2   -1    0    0    0  501 -0.00000000000E+00 -0.00000000000E+00 -0.47421241846E+03  0.47421241846E+03  0.00000000000E+00 0. -1.
          6    2    1    2  502    0 -0.69943546752E+02  0.45026848196E+02 -0.33550610696E+03  0.38624509723E+03  0.17234097172E+03 0.  0.
         24    2    3    3    0    0  0.18410486891E+02  0.72961073080E+01 -0.90010118369E+02  0.12257785527E+03  0.80816644224E+02 0.  0.
         -6    2    1    2    0  501  0.69943546752E+02 -0.45026848196E+02 -0.34204619070E+02  0.19246901367E+03  0.17016124255E+03 0.  0.
        -24    2    5    5    0    0  0.94314283582E+01 -0.83955095345E+02 -0.32177562245E+02  0.12033494503E+03  0.79420989725E+02 0.  0.
          5    1    3    3  502    0 -0.88354033643E+02  0.37730740888E+02 -0.24549598859E+03  0.26366724196E+03  0.47000000000E+01 0. -1.
        -11    1    4    4    0    0 -0.29700758829E+02  0.80285883451E+01 -0.55180267243E+02  0.63177964504E+02  0.00000000000E+00 0.  1.
         12    1    4    4    0    0  0.48111245720E+02 -0.73248103710E+00 -0.34829851126E+02  0.59399890763E+02  0.00000000000E+00 0. -1.
         -5    1    5    5    0  501  0.60512118394E+02  0.38928247148E+02 -0.20270568246E+01  0.72134068636E+02  0.47000000000E+01 0.  1.
         13    1    6    6    0    0  0.88980898789E+01  0.13192326839E+02  0.44298112169E+01  0.16517769775E+02  0.00000000000E+00 0. -1.
        -14    1    6    6    0    0  0.53333847927E+00 -0.97147422183E+02 -0.36607373462E+02  0.10381717526E+03  0.00000000000E+00 0.  1.
</event>
<event>
12    1  0.2625820E-002  0.4060781E+03  0.7818608E-02  0.1041695E+00
          2   -1    0    0  502    0  0.00000000000E+00  0.00000000000E+00  0.26955374175E+04  0.26955374175E+04  0.00000000000E+00 0.  1.
         -2   -1    0    0    0  501 -0.00000000000E+00 -0.00000000000E+00 -0.69636802220E+02  0.69636802220E+02  0.00000000000E+00 0. -1.
          6    2    1    2  502    0 -0.30313925955E+03  0.20837756006E+03  0.17951083696E+04  0.18404814732E+04  0.17217251924E+03 0.  0.
         24    2    3    3    0    0 -0.12030612442E+03  0.16260528421E+03  0.98576856335E+03  0.10094724068E+04  0.79880144510E+02 0.  0.
         -6    2    1    2    0  501  0.30313925955E+03 -0.20837756006E+03  0.83079224567E+03  0.92469274650E+03  0.17183219069E+03 0.  0.
        -24    2    5    5    0    0  0.25061891856E+03 -0.94185944492E+02  0.59947219526E+03  0.66138842257E+03  0.79918071397E+02 0.  0.
          5    1    3    3  502    0 -0.18283313513E+03  0.45772275851E+02  0.80933980628E+03  0.83100906647E+03  0.47000000000E+01 0. -1.
        -11    1    4    4    0    0 -0.76586717737E+02  0.90192938328E+02  0.74362803730E+03  0.75298270187E+03  0.00000000000E+00 0.  1.
         12    1    4    4    0    0 -0.43719406682E+02  0.72412345878E+02  0.24214052606E+03  0.25648970489E+03  0.00000000000E+00 0. -1.
         -5    1    5    5    0  501  0.52520340994E+02 -0.11419161557E+03  0.23132005040E+03  0.26330432393E+03  0.47000000000E+01 0.  1.
         13    1    6    6    0    0  0.41134374573E+02 -0.11569233023E+02  0.18312947585E+03  0.18804863426E+03  0.00000000000E+00 0. -1.
        -14    1    6    6    0    0  0.20948454399E+03 -0.82616711469E+02  0.41634271941E+03  0.47333978830E+03  0.00000000000E+00 0.  1.
</event>
<event>
12    1  0.2625820E-002  0.1973792E+03  0.7818608E-02  0.1151969E+00
         -1   -1    0    0    0  501 -0.00000000000E+00  0.00000000000E+00  0.30011525000E+03  0.30011525000E+03  0.00000000000E+00 0.  1.
          1   -1    0    0  502    0  0.00000000000E+00 -0.00000000000E+00 -0.13442241015E+03  0.13442241015E+03  0.00000000000E+00 0. -1.
          6    2    1    2  502    0 -0.20968593301E+02 -0.93797656047E+02  0.12313056116E+03  0.23273363902E+03  0.17252863373E+03 0.  0.
         24    2    3    3    0    0 -0.46417593965E+02 -0.49231567818E+02  0.14284417500E+03  0.17755661097E+03  0.80892221292E+02 0.  0.
         -6    2    1    2    0  501  0.20968593301E+02  0.93797656047E+02  0.42562278685E+02  0.20180402112E+03  0.17226616960E+03 0.  0.
        -24    2    5    5    0    0  0.56844126795E+02  0.82663349352E+02  0.75949837512E+02  0.15132783096E+03  0.84066940755E+02 0.  0.
          5    1    3    3  502    0  0.25449000663E+02 -0.44566088228E+02 -0.19713613842E+02  0.55177028059E+02  0.47000000000E+01 0. -1.
        -11    1    4    4    0    0  0.17001376215E+02 -0.36764679568E+02  0.48381092576E+02  0.63098483149E+02  0.00000000000E+00 0.  1.
         12    1    4    4    0    0 -0.63418970180E+02 -0.12466888251E+02  0.94463082428E+02  0.11445812782E+03  0.00000000000E+00 0. -1.
         -5    1    5    5    0  501 -0.35875533494E+02  0.11134306694E+02 -0.33387558826E+02  0.50476190163E+02  0.47000000000E+01 0.  1.
         13    1    6    6    0    0  0.49124186284E+02  0.48956449258E+02  0.16476390775E+01  0.69373152707E+02  0.00000000000E+00 0. -1.
        -14    1    6    6    0    0  0.77199405111E+01  0.33706900094E+02  0.74302198434E+02  0.81954678253E+02  0.00000000000E+00 0.  1.
</event>
<event>
12    1  0.2625820E-002  0.1824136E+03  0.7818608E-02  0.1165487E+00
          2   -1    0    0  502    0  0.00000000000E+00  0.00000000000E+00  0.24311780497E+03  0.24311780497E+03  0.00000000000E+00 0.  1.
         -2   -1    0    0    0  501 -0.00000000000E+00 -0.00000000000E+00 -0.14222487305E+03  0.14222487305E+03  0.00000000000E+00 0. -1.
          6    2    1    2  502    0  0.12633365986E+02  0.53673296913E+02  0.87235996273E+02  0.20036437411E+03  0.17174207006E+03 0.  0.
         24    2    3    3    0    0 -0.34380993977E+02  0.48289210159E+01  0.98924599308E+02  0.13140905132E+03  0.79226833810E+02 0.  0.
         -6    2    1    2    0  501 -0.12633365986E+02 -0.53673296913E+02  0.13656935655E+02  0.18497830391E+03  0.17603987131E+03 0.  0.
        -24    2    5    5    0    0  0.58103297169E+02 -0.10133867237E+02 -0.71366036616E+01  0.99223894532E+02  0.79471766856E+02 0.  0.
          5    1    3    3  502    0  0.47014359963E+02  0.48844375897E+02 -0.11688603035E+02  0.68955322785E+02  0.47000000000E+01 0. -1.
        -11    1    4    4    0    0 -0.72392966863E+01 -0.67353720455E+01 -0.12617961965E+02  0.16030770950E+02  0.00000000000E+00 0.  1.
         12    1    4    4    0    0 -0.27141697290E+02  0.11564293061E+02  0.11154256127E+03  0.11537828037E+03  0.00000000000E+00 0. -1.
         -5    1    5    5    0  501 -0.70736663155E+02 -0.43539429677E+02  0.20793539317E+02  0.85754409381E+02  0.47000000000E+01 0.  1.
         11    1    6    6    0    0 -0.13583756456E+02  0.53055905300E+01 -0.20021675254E+02  0.24769642918E+02  0.00000000000E+00 0. -1.
        -12    1    6    6    0    0  0.71687053625E+02 -0.15439457767E+02  0.12885071592E+02  0.74454251615E+02  0.00000000000E+00 0.  1.
</event>
<event>
12    1  0.2625820E-002  0.1739989E+03  0.7818608E-02  0.1173741E+00
          1   -1    0    0  502    0  0.00000000000E+00  0.00000000000E+00  0.42893408325E+03  0.42893408325E+03  0.00000000000E+00 0. -1.
         -1   -1    0    0    0  501 -0.00000000000E+00 -0.00000000000E+00 -0.91287576758E+02  0.91287576758E+02  0.00000000000E+00 0.  1.
          6    2    1    2  502    0  0.85145032822E+01 -0.87606207730E+01  0.29364053676E+03  0.34197578109E+03  0.17485258013E+03 0.  0.
         24    2    3    3    0    0 -0.28765893795E+02 -0.24120183666E+02  0.28736217611E+03  0.30089960805E+03  0.80958594132E+02 0.  0.
         -6    2    1    2    0  501 -0.85145032822E+01  0.87606207730E+01  0.44005969731E+02  0.17824587892E+03  0.17229574208E+03 0.  0.
        -24    2    5    5    0    0 -0.11690058014E+02 -0.52458052925E+02  0.62381766074E+02  0.11407758419E+03  0.78953820071E+02 0.  0.
          5    1    3    3  502    0  0.37280397077E+02  0.15359562893E+02  0.62783606533E+01  0.41076173032E+02  0.47000000000E+01 0. -1.
        -11    1    4    4    0    0  0.20157524067E+02 -0.28193044537E+02  0.70606525635E+02  0.78654020870E+02  0.00000000000E+00 0.  1.
         12    1    4    4    0    0 -0.48923417862E+02  0.40728608710E+01  0.21675565047E+03  0.22224558718E+03  0.00000000000E+00 0. -1.
         -5    1    5    5    0  501  0.31755547316E+01  0.61218673698E+02 -0.18375796343E+02  0.64168294729E+02  0.47000000000E+01 0.  1.
         11    1    6    6    0    0  0.14890653934E+02 -0.60081813247E+02  0.23165209617E+02  0.66092229454E+02  0.00000000000E+00 0. -1.
        -12    1    6    6    0    0 -0.26580711947E+02  0.76237603218E+01  0.39216556457E+02  0.47985354739E+02  0.00000000000E+00 0.  1.
</event>
<event>
12    1  0.2625820E-002  0.1724836E+03  0.7818608E-02  0.1175282E+00
          2   -1    0    0  502    0  0.00000000000E+00  0.00000000000E+00  0.65201196475E+02  0.65201196475E+02  0.00000000000E+00 0. -1.
         -2   -1    0    0    0  501 -0.00000000000E+00 -0.00000000000E+00 -0.51746404080E+03  0.51746404080E+03  0.00000000000E+00 0.  1.
          6    2    1    2  502    0  0.12596947259E+02 -0.17660608286E+02 -0.32556104976E+03  0.36813354275E+03  0.17047500700E+03 0.  0.
         24    2    3    3    0    0 -0.31433996449E+02 -0.62388483574E+02 -0.23703726231E+03  0.25951559867E+03  0.79254420789E+02 0.  0.
         -6    2    1    2    0  501 -0.12596947259E+02  0.17660608286E+02 -0.12670179456E+03  0.21453169452E+03  0.17175541634E+03 0.  0.
        -24    2    5    5    0    0  0.50762130857E+02 -0.28298309336E+01 -0.11438341816E+03  0.14664897745E+03  0.76403889725E+02 0.  0.
          5    1    3    3  502    0  0.44030943708E+02  0.44727875288E+02 -0.88523787459E+02  0.10861794409E+03  0.47000000000E+01 0. -1.
        -13    1    4    4    0    0 -0.55363837781E+02 -0.25621419066E+02 -0.15308423016E+03  0.16479196938E+03  0.00000000000E+00 0.  1.
         14    1    4    4    0    0  0.23929841332E+02 -0.36767064507E+02 -0.83953032150E+02  0.94723629290E+02  0.00000000000E+00 0. -1.
         -5    1    5    5    0  501 -0.63359078116E+02  0.20490439220E+02 -0.12318376395E+02  0.67882717065E+02  0.47000000000E+01 0.  1.
         11    1    6    6    0    0  0.19549555639E+02 -0.27869944677E+02 -0.10975022605E+02  0.35768282922E+02  0.00000000000E+00 0. -1.
        -12    1    6    6    0    0  0.31212575218E+02  0.25040113743E+02 -0.10340839556E+03  0.11088069453E+03  0.00000000000E+00 0.  1.
</event>
<event>
12    1  0.2625820E-002  0.2857862E+03  0.7818608E-02  0.1092570E+00
         -4   -1    0    0    0  501 -0.00000000000E+00  0.00000000000E+00  0.30287328384E+03  0.30287328384E+03  0.00000000000E+00 0. -1.
          4   -1    0    0  502    0  0.00000000000E+00 -0.00000000000E+00 -0.27129728333E+03  0.27129728333E+03  0.00000000000E+00 0.  1.
          6    2    1    2  502    0 -0.14358539153E+03  0.17607286447E+03 -0.64481458982E+01  0.28650403034E+03  0.17442638147E+03 0.  0.
         24    2    3    3    0    0  0.18406612531E+01  0.51886528705E+02 -0.17983089008E+02  0.94863409043E+02  0.77330944584E+02 0.  0.
         -6    2    1    2    0  501  0.14358539153E+03 -0.17607286447E+03  0.38024146409E+02  0.28766653683E+03  0.17230142901E+03 0.  0.
        -24    2    5    5    0    0  0.10398184292E+03 -0.60637666969E+02 -0.28008107060E+02  0.14882823382E+03  0.82923089724E+02 0.  0.
          5    1    3    3  502    0 -0.14542605278E+03  0.12418633577E+03  0.11534943109E+02  0.19164062130E+03  0.47000000000E+01 0. -1.
        -13    1    4    4    0    0 -0.18533764018E+02 -0.37647988327E+01 -0.28963251957E+02  0.34591098318E+02  0.00000000000E+00 0.  1.
         14    1    4    4    0    0  0.20374425271E+02  0.55651327537E+02  0.10980162949E+02  0.60272310725E+02  0.00000000000E+00 0. -1.
         -5    1    5    5    0  501  0.39603548613E+02 -0.11543519750E+03  0.66032253469E+02  0.13883830301E+03  0.47000000000E+01 0.  1.
         13    1    6    6    0    0 -0.10597894806E+02 -0.19517569826E+02  0.48588830629E+01  0.22734547518E+02  0.00000000000E+00 0. -1.
        -14    1    6    6    0    0  0.11457973772E+03 -0.41120097143E+02 -0.32866990123E+02  0.12609368630E+03  0.00000000000E+00 0.  1.
</event>
<event>
12    1  0.2625820E-002  0.1960604E+03  0.7818608E-02  0.1153106E+00
          2   -1    0    0  502    0  0.00000000000E+00  0.00000000000E+00  0.68723082412E+03  0.68723082412E+03  0.00000000000E+00 0.  1.
         -2   -1    0    0    0  501 -0.00000000000E+00 -0.00000000000E+00 -0.10385437197E+03  0.10385437197E+03  0.00000000000E+00 0. -1.
          6    2    1    2  502    0  0.78919511256E+02  0.50741433037E+02  0.56027304173E+03  0.59354664949E+03  0.17201384115E+03 0.  0.
         24    2    3    3    0    0 -0.16793981172E+02  0.33346333218E+02  0.35603880044E+03  0.36727827467E+03  0.82071236614E+02 0.  0.
         -6    2    1    2    0  501 -0.78919511256E+02 -0.50741433037E+02  0.23103410419E+02  0.19753854660E+03  0.17229256379E+03 0.  0.
        -24    2    5    5    0    0 -0.15676492372E+02 -0.63465090032E+02 -0.36577588428E+02  0.10953012367E+03  0.79908434781E+02 0.  0.
          5    1    3    3  502    0  0.95713492428E+02  0.17395099819E+02  0.20423424129E+03  0.22626837482E+03  0.47000000000E+01 0. -1.
        -13    1    4    4    0    0 -0.23293835005E+02  0.35202709833E+02  0.35780921143E+03  0.36029052904E+03  0.00000000000E+00 0.  1.
         14    1    4    4    0    0  0.64998538326E+01 -0.18563766147E+01 -0.17704109854E+01  0.69877456334E+01  0.00000000000E+00 0. -1.
         -5    1    5    5    0  501 -0.63243018884E+02  0.12723656995E+02  0.59680998847E+02  0.88008422939E+02  0.47000000000E+01 0.  1.
         11    1    6    6    0    0 -0.12824287285E+02 -0.17439862486E+02 -0.55586047200E+02  0.59652491912E+02  0.00000000000E+00 0. -1.
        -12    1    6    6    0    0 -0.28522050864E+01 -0.46025227546E+02  0.19008458772E+02  0.49877631754E+02  0.00000000000E+00 0.  1.
</event>
<event>
12    1  0.2625820E-002  0.2113588E+03  0.7818608E-02  0.1140494E+00
         -2   -1    0    0    0  501 -0.00000000000E+00  0.00000000000E+00  0.23937626422E+02  0.23937626422E+02  0.00000000000E+00 0.  1.
          2   -1    0    0  502    0  0.00000000000E+00 -0.00000000000E+00 -0.19822945628E+04  0.19822945628E+04  0.00000000000E+00 0. -1.
          6    2    1    2  502    0  0.50260343118E+02  0.10542275562E+03 -0.72137550179E+03  0.75070926128E+03  0.17187705171E+03 0.  0.
         24    2    3    3    0    0  0.54055363616E+02  0.13937478384E+03 -0.54222815278E+03  0.56827295718E+03  0.81089280940E+02 0.  0.
         -6    2    1    2    0  501 -0.50260343118E+02 -0.10542275562E+03 -0.12369814345E+04  0.12555229279E+04  0.18048460754E+03 0.  0.
        -24    2    5    5    0    0 -0.56038969663E+02  0.11258995547E+02 -0.54044298617E+03  0.54923975264E+03  0.79489329329E+02 0.  0.
          5    1    3    3  502    0 -0.37950204976E+01 -0.33952028214E+02 -0.17914734900E+03  0.18243630410E+03  0.47000000000E+01 0. -1.
        -11    1    4    4    0    0  0.34346634955E+02  0.13826516602E+02 -0.69343104207E+02  0.78608714498E+02  0.00000000000E+00 0.  1.
         12    1    4    4    0    0  0.19708728661E+02  0.12554826724E+03 -0.47288504858E+03  0.48966424268E+03  0.00000000000E+00 0. -1.
         -5    1    5    5    0  501  0.57786265441E+01 -0.11668175117E+03 -0.69653844838E+03  0.70628317526E+03  0.47000000000E+01 0.  1.
         11    1    6    6    0    0  0.96106272557E+01  0.28072664529E+02 -0.14092786969E+03  0.14401771802E+03  0.00000000000E+00 0. -1.
        -12    1    6    6    0    0 -0.65649596918E+02 -0.16813668982E+02 -0.39951511648E+03  0.40522203461E+03  0.00000000000E+00 0.  1.
</event>
<event>
12    1  0.2625820E-002  0.1768629E+03  0.7818608E-02  0.1170874E+00
          3   -1    0    0  502    0  0.00000000000E+00  0.00000000000E+00  0.13110913404E+03  0.13110913404E+03  0.00000000000E+00 0. -1.
         -3   -1    0    0    0  501 -0.00000000000E+00 -0.00000000000E+00 -0.27266441166E+03  0.27266441166E+03  0.00000000000E+00 0.  1.
          6    2    1    2  502    0  0.28180174011E+02 -0.28354425861E+02  0.98635564081E+00  0.17572624990E+03  0.17111588569E+03 0.  0.
         24    2    3    3    0    0  0.84545908812E+01  0.21908574059E+02 -0.51409786045E+02  0.10034114889E+03  0.82909072697E+02 0.  0.
         -6    2    1    2    0  501 -0.28180174011E+02  0.28354425861E+02 -0.14254163326E+03  0.22804729580E+03  0.17346283820E+03 0.  0.
        -24    2    5    5    0    0 -0.65757688072E+02  0.47979581501E+02 -0.46433898768E+02  0.12289976646E+03  0.79511834712E+02 0.  0.
          5    1    3    3  502    0  0.19725583130E+02 -0.50262999921E+02  0.52396141686E+02  0.75385101011E+02  0.47000000000E+01 0. -1.
        -13    1    4    4    0    0  0.40128167392E+02 -0.89026026370E+01 -0.17650429069E+02  0.44733251595E+02  0.00000000000E+00 0.  1.
         14    1    4    4    0    0 -0.31673576511E+02  0.30811176696E+02 -0.33759356976E+02  0.55607897297E+02  0.00000000000E+00 0. -1.
         -5    1    5    5    0  501  0.37577514061E+02 -0.19625155640E+02 -0.96107734495E+02  0.10514752934E+03  0.47000000000E+01 0.  1.
         11    1    6    6    0    0 -0.20650345549E+02  0.34559752550E+02  0.17178687494E+02  0.43771229954E+02  0.00000000000E+00 0. -1.
        -12    1    6    6    0    0 -0.45107342523E+02  0.13419828951E+02 -0.63612586262E+02  0.79128536505E+02  0.00000000000E+00 0.  1.
</event>
<event>
12    1  0.2625820E-002  0.2247057E+03  0.7818608E-02  0.1130423E+00
          1   -1    0    0  502    0  0.00000000000E+00  0.00000000000E+00  0.84873653115E+03  0.84873653115E+03  0.00000000000E+00 0.  1.
         -1   -1    0    0    0  501 -0.00000000000E+00 -0.00000000000E+00 -0.60144601578E+02  0.60144601578E+02  0.00000000000E+00 0. -1.
          6    2    1    2  502    0 -0.12745122278E+03 -0.70233326178E+02  0.44315739335E+03  0.49727441207E+03  0.17238570511E+03 0.  0.
         24    2    3    3    0    0 -0.10640041239E+03 -0.58663369731E+01  0.18421859571E+03  0.22958497104E+03  0.86123784490E+02 0.  0.
         -6    2    1    2    0  501  0.12745122278E+03  0.70233326178E+02  0.34543453622E+03  0.41160672066E+03  0.17005451885E+03 0.  0.
        -24    2    5    5    0    0  0.14685648024E+03  0.30285305351E+02  0.31514752075E+03  0.35764560788E+03  0.78156224942E+02 0.  0.
          5    1    3    3  502    0 -0.21050810384E+02 -0.64366989205E+02  0.25893879764E+03  0.26768944104E+03  0.47000000000E+01 0. -1.
        -13    1    4    4    0    0 -0.88901709441E+02 -0.37582258372E+02  0.15691863706E+03  0.18422648763E+03  0.00000000000E+00 0.  1.
         14    1    4    4    0    0 -0.17498702950E+02  0.31715921399E+02  0.27299958643E+02  0.45358483408E+02  0.00000000000E+00 0. -1.
         -5    1    5    5    0  501 -0.19405257465E+02  0.39948020827E+02  0.30287015476E+02  0.53961112773E+02  0.47000000000E+01 0.  1.
         11    1    6    6    0    0  0.11027845087E+03 -0.13336983180E+02  0.22685221636E+03  0.25258887527E+03  0.00000000000E+00 0. -1.
        -12    1    6    6    0    0  0.36578029374E+02  0.43622288531E+02  0.88295304390E+02  0.10505673261E+03  0.00000000000E+00 0.  1.
</event>
<event>
12    1  0.2625820E-002  0.4067858E+03  0.7818608E-02  0.1041455E+00
          2   -1    0    0  502    0  0.00000000000E+00  0.00000000000E+00  0.98727835437E+03  0.98727835437E+03  0.00000000000E+00 0. -1.
         -2   -1    0    0    0  501 -0.00000000000E+00 -0.00000000000E+00 -0.36711187278E+03  0.36711187278E+03  0.00000000000E+00 0.  1.
          6    2    1    2  502    0 -0.75341273889E+02  0.36084688105E+03  0.80923439143E+03  0.90563550247E+03  0.17154761421E+03 0.  0.
         24    2    3    3    0    0 -0.41236298655E+02  0.25145207379E+03  0.40240951202E+03  0.48295483612E+03  0.79896061430E+02 0.  0.
         -6    2    1    2    0  501  0.75341273889E+02 -0.36084688105E+03 -0.18906790985E+03  0.44875472468E+03  0.17247419888E+03 0.  0.
        -24    2    5    5    0    0 -0.13476820922E+02 -0.14145910854E+03 -0.62432942546E+02  0.18028097618E+03  0.91711798404E+02 0.  0.
          5    1    3    3  502    0 -0.34104975234E+02  0.10939480725E+03  0.40682487942E+03  0.42268066634E+03  0.47000000000E+01 0. -1.
        -11    1    4    4    0    0 -0.64219786618E+02  0.17485403582E+03  0.29815971223E+03  0.35156411767E+03  0.00000000000E+00 0.  1.
         12    1    4    4    0    0  0.22983487963E+02  0.76598037974E+02  0.10424979979E+03  0.13139071846E+03  0.00000000000E+00 0. -1.
         -5    1    5    5    0  501  0.88818094811E+02 -0.21938777251E+03 -0.12663496730E+03  0.26847374850E+03  0.47000000000E+01 0.  1.
         11    1    6    6    0    0 -0.25660394040E+01  0.28105831687E+00  0.17162378374E+02  0.17355425188E+02  0.00000000000E+00 0. -1.
        -12    1    6    6    0    0 -0.10910781518E+02 -0.14174016685E+03 -0.79595320920E+02  0.16292555099E+03  0.00000000000E+00 0.  1.
</event>
<event>
12    1  0.2625820E-002  0.1812880E+03  0.7818608E-02  0.1166562E+00
          1   -1    0    0  502    0  0.00000000000E+00  0.00000000000E+00  0.82899372593E+03  0.82899372593E+03  0.00000000000E+00 0.  1.
         -1   -1    0    0    0  501 -0.00000000000E+00 -0.00000000000E+00 -0.39934715824E+02  0.39934715824E+02  0.00000000000E+00 0. -1.
          6    2    1    2  502    0 -0.46162043287E+02  0.21143047368E+02  0.42876490669E+03  0.46503864114E+03  0.17275308928E+03 0.  0.
         24    2    3    3    0    0 -0.78913587957E+02  0.60704975249E+02  0.28100037993E+03  0.30853223493E+03  0.79488855122E+02 0.  0.
         -6    2    1    2    0  501  0.46162043287E+02 -0.21143047368E+02  0.36029410342E+03  0.40388980061E+03  0.17532018534E+03 0.  0.
        -24    2    5    5    0    0  0.41814740199E+02  0.22252763664E+02  0.97848579637E+02  0.13780365213E+03  0.84686740497E+02 0.  0.
          5    1    3    3  502    0  0.32751544670E+02 -0.39561927881E+02  0.14776452676E+03  0.15650640621E+03  0.47000000000E+01 0. -1.
        -13    1    4    4    0    0 -0.24677882231E+02  0.66839777458E+02  0.18258592209E+03  0.19599533838E+03  0.00000000000E+00 0.  1.
         14    1    4    4    0    0 -0.54235705725E+02 -0.61348022088E+01  0.98414457838E+02  0.11253689655E+03  0.00000000000E+00 0. -1.
         -5    1    5    5    0  501  0.43473030883E+01 -0.43395811032E+02  0.26244552378E+03  0.26608614848E+03  0.47000000000E+01 0.  1.
         11    1    6    6    0    0  0.14074249584E+02 -0.29070934469E+02  0.12963722354E+02  0.34803187060E+02  0.00000000000E+00 0. -1.
        -12    1    6    6    0    0  0.27740490614E+02  0.51323698133E+02  0.84884857282E+02  0.10300046507E+03  0.00000000000E+00 0.  1.
</event>
<event>
12    1  0.2625820E-002  0.5253505E+03  0.7818608E-02  0.1007366E+00
          3   -1    0    0  502    0  0.00000000000E+00  0.00000000000E+00  0.20289038362E+03  0.20289038362E+03  0.00000000000E+00 0. -1.
         -3   -1    0    0    0  501 -0.00000000000E+00 -0.00000000000E+00 -0.13868096566E+04  0.13868096566E+04  0.00000000000E+00 0.  1.
          6    2    1    2  502    0 -0.23996302573E+03 -0.43428542334E+03 -0.70204935948E+03  0.87696331333E+03  0.17322028500E+03 0.  0.
         24    2    3    3    0    0 -0.22264925741E+03 -0.26585617530E+03 -0.47261693329E+03  0.59178002778E+03  0.81145781638E+02 0.  0.
         -6    2    1    2    0  501  0.23996302573E+03  0.43428542334E+03 -0.48186991349E+03  0.71273672687E+03  0.17207250117E+03 0.  0.
        -24    2    5    5    0    0  0.83888935804E+02  0.12380880942E+03 -0.22044642693E+03  0.27785837761E+03  0.79010606990E+02 0.  0.
          5    1    3    3  502    0 -0.17313768323E+02 -0.16842924804E+03 -0.22943242618E+03  0.28518328555E+03  0.47000000000E+01 0. -1.
        -13    1    4    4    0    0  0.42197923931E+01 -0.24462640336E+02 -0.30556994200E+02  0.39369497261E+02  0.00000000000E+00 0.  1.
         14    1    4    4    0    0 -0.22686904980E+03 -0.24139353496E+03 -0.44205993909E+03  0.55241053052E+03  0.00000000000E+00 0. -1.
         -5    1    5    5    0  501  0.15607408993E+03  0.31047661392E+03 -0.26142348656E+03  0.43487834927E+03  0.47000000000E+01 0.  1.
         11    1    6    6    0    0  0.59176435370E+02  0.26886105444E+02 -0.58139348087E+02  0.87206060369E+02  0.00000000000E+00 0. -1.
        -12    1    6    6    0    0  0.24712500434E+02  0.96922703979E+02 -0.16230707885E+03  0.19065231724E+03  0.00000000000E+00 0.  1.
</event>
<event>
12    1  0.2625820E-002  0.2340716E+03  0.7818608E-02  0.1123806E+00
         -2   -1    0    0    0  501 -0.00000000000E+00  0.00000000000E+00  0.50963475832E+02  0.50963475832E+02  0.00000000000E+00 0.  1.
          2   -1    0    0  502    0  0.00000000000E+00 -0.00000000000E+00 -0.12483715433E+04  0.12483715433E+04  0.00000000000E+00 0. -1.
          6    2    1    2  502    0 -0.70406373730E+02 -0.14264488312E+03 -0.84050592516E+03  0.87245971090E+03  0.17155499636E+03 0.  0.
         24    2    3    3    0    0 -0.27722872578E+02 -0.68014284022E+02 -0.20649633912E+03  0.23263016111E+03  0.77984314413E+02 0.  0.
         -6    2    1    2    0  501  0.70406373730E+02  0.14264488312E+03 -0.35690214228E+03  0.42687530821E+03  0.17186846554E+03 0.  0.
        -24    2    5    5    0    0  0.88984162181E+02  0.16477857395E+03 -0.29907427762E+03  0.36205874840E+03  0.81061422428E+02 0.  0.
          5    1    3    3  502    0 -0.42683501152E+02 -0.74630599099E+02 -0.63400958604E+03  0.63982954979E+03  0.47000000000E+01 0. -1.
        -13    1    4    4    0    0 -0.33293441915E+02  0.49356910332E+01 -0.57107126516E+02  0.66287541963E+02  0.00000000000E+00 0.  1.
         14    1    4    4    0    0  0.55705693375E+01 -0.72949975055E+02 -0.14938921260E+03  0.16634261915E+03  0.00000000000E+00 0. -1.
         -5    1    5    5    0  501 -0.18577788450E+02 -0.22133690832E+02 -0.57827864663E+02  0.64816559806E+02  0.47000000000E+01 0.  1.
         13    1    6    6    0    0 -0.84671616209E+01  0.60726496893E+02 -0.97156428689E+02  0.11488590813E+03  0.00000000000E+00 0. -1.
        -14    1    6    6    0    0  0.97451323802E+02  0.10405207706E+03 -0.20191784893E+03  0.24717284027E+03  0.00000000000E+00 0.  1.
</event>
<event>
12    1  0.2625820E-002  0.1841421E+03  0.7818608E-02  0.1163853E+00
         -2   -1    0    0    0  501 -0.00000000000E+00  0.00000000000E+00  0.19646793767E+03  0.19646793767E+03  0.00000000000E+00 0. -1.
          2   -1    0    0  502    0  0.00000000000E+00 -0.00000000000E+00 -0.17301161614E+03  0.17301161614E+03  0.00000000000E+00 0.  1.
          6    2    1    2  502    0 -0.58869758735E+02 -0.62006135698E+02  0.61010773338E+01  0.19117048870E+03  0.17087575384E+03 0.  0.
         24    2    3    3    0    0 -0.39350464392E+01 -0.94517315938E+02  0.20462697296E+02  0.12557212300E+03  0.80003927969E+02 0.  0.
         -6    2    1    2    0  501  0.58869758735E+02  0.62006135698E+02  0.17355244194E+02  0.17830906511E+03  0.15550726299E+03 0.  0.
        -24    2    5    5    0    0  0.83659534587E+00  0.22452001813E+02  0.12390794553E+02  0.10774623268E+03  0.10464667501E+03 0.  0.
          5    1    3    3  502    0 -0.54934712295E+02  0.32511180240E+02 -0.14361619962E+02  0.65598365708E+02  0.47000000000E+01 0. -1.
        -13    1    4    4    0    0  0.10057991711E+02  0.10473034971E+02 -0.70454800279E+01  0.16139592547E+02  0.00000000000E+00 0.  1.
         14    1    4    4    0    0 -0.13993038151E+02 -0.10499035091E+03  0.27508177324E+02  0.10943253045E+03  0.00000000000E+00 0. -1.
         -5    1    5    5    0  501  0.58033163389E+02  0.39554133885E+02  0.49644496403E+01  0.70562832430E+02  0.47000000000E+01 0.  1.
         11    1    6    6    0    0  0.49549532189E+02 -0.48043745454E+01 -0.29111848412E+01  0.49866954510E+02  0.00000000000E+00 0. -1.
        -12    1    6    6    0    0 -0.48712936843E+02  0.27256376359E+02  0.15301979395E+02  0.57879278170E+02  0.00000000000E+00 0.  1.
</event>
<event>
12    1  0.2625820E-002  0.1781811E+03  0.7818608E-02  0.1169575E+00
         -1   -1    0    0    0  501 -0.00000000000E+00  0.00000000000E+00  0.78046479828E+03  0.78046479828E+03  0.00000000000E+00 0. -1.
          1   -1    0    0  502    0  0.00000000000E+00 -0.00000000000E+00 -0.72859821723E+02  0.72859821723E+02  0.00000000000E+00 0.  1.
          6    2    1    2  502    0 -0.26239808295E+02 -0.13015754146E+02  0.63082631477E+03  0.65401697873E+03  0.17011299673E+03 0.  0.
         24    2    3    3    0    0 -0.67693385491E+02 -0.74689171732E+00  0.25559462184E+03  0.27627389483E+03  0.80098077172E+02 0.  0.
         -6    2    1    2    0  501  0.26239808295E+02  0.13015754146E+02  0.76778661787E+02  0.19930764128E+03  0.18157818033E+03 0.  0.
        -24    2    5    5    0    0  0.62256507953E+02  0.37469451001E+02 -0.28685475516E+01  0.10841785143E+03  0.80413738888E+02 0.  0.
          5    1    3    3  502    0  0.41453577196E+02 -0.12268862428E+02  0.37523169294E+03  0.37774308390E+03  0.47000000000E+01 0. -1.
        -11    1    4    4    0    0 -0.76334352749E+02 -0.66968598002E+01  0.25442934044E+03  0.26571802840E+03  0.00000000000E+00 0.  1.
         12    1    4    4    0    0  0.86409672576E+01  0.59499680829E+01  0.11652813962E+01  0.10555866429E+02  0.00000000000E+00 0. -1.
         -5    1    5    5    0  501 -0.36016699657E+02 -0.24453696856E+02  0.79647209339E+02  0.90889789853E+02  0.47000000000E+01 0.  1.
         11    1    6    6    0    0  0.51079183015E+01 -0.12077422884E+02  0.24658278652E+02  0.27928223698E+02  0.00000000000E+00 0. -1.
        -12    1    6    6    0    0  0.57148589651E+02  0.49546873885E+02 -0.27526826203E+02  0.80489627727E+02  0.00000000000E+00 0.  1.
</event>
<event>
12    1  0.2625820E-002  0.2183003E+03  0.7818608E-02  0.1135157E+00
         -1   -1    0    0    0  501 -0.00000000000E+00  0.00000000000E+00  0.49584618534E+02  0.49584618534E+02  0.00000000000E+00 0.  1.
          1   -1    0    0  502    0  0.00000000000E+00 -0.00000000000E+00 -0.98308433354E+03  0.98308433354E+03  0.00000000000E+00 0. -1.
          6    2    1    2  502    0 -0.12594250254E+03 -0.47403653606E+02 -0.39069659459E+03  0.44782245347E+03  0.17260504189E+03 0.  0.
         24    2    3    3    0    0 -0.11583845688E+03  0.27576474999E+02 -0.26966514901E+03  0.30501204683E+03  0.78320151024E+02 0.  0.
         -6    2    1    2    0  501  0.12594250254E+03  0.47403653606E+02 -0.54280312042E+03  0.58484649861E+03  0.17117704015E+03 0.  0.
        -24    2    5    5    0    0  0.67764738744E+02 -0.34300167729E+02 -0.35351184385E+03  0.37057227242E+03  0.81145696281E+02 0.  0.
          5    1    3    3  502    0 -0.10104045660E+02 -0.74980128605E+02 -0.12103144558E+03  0.14281040664E+03  0.47000000000E+01 0. -1.
        -13    1    4    4    0    0 -0.79282630474E+01  0.16726605480E+02 -0.52831867869E+01  0.19249642814E+02  0.00000000000E+00 0.  1.
         14    1    4    4    0    0 -0.10791019384E+03  0.10849869519E+02 -0.26438196222E+03  0.28576240402E+03  0.00000000000E+00 0. -1.
         -5    1    5    5    0  501  0.58177763800E+02  0.81703821335E+02 -0.18929127657E+03  0.21427422619E+03  0.47000000000E+01 0.  1.
         11    1    6    6    0    0 -0.18901214240E+02 -0.77442840022E+01 -0.59874195531E+02  0.63262541246E+02  0.00000000000E+00 0. -1.
        -12    1    6    6    0    0  0.86665952984E+02 -0.26555883727E+02 -0.29363764832E+03  0.30730973118E+03  0.00000000000E+00 0.  1.
</event>
<event>
12    1  0.2625820E-002  0.4281515E+03  0.7818608E-02  0.1034445E+00
          3   -1    0    0  502    0  0.00000000000E+00  0.00000000000E+00  0.27456354211E+03  0.27456354211E+03  0.00000000000E+00 0. -1.
         -3   -1    0    0    0  501 -0.00000000000E+00 -0.00000000000E+00 -0.67903661942E+03  0.67903661942E+03  0.00000000000E+00 0.  1.
          6    2    1    2  502    0 -0.31013897549E+03 -0.24045739420E+03 -0.14044004778E+03  0.45045881771E+03  0.17083265757E+03 0.  0.
         24    2    3    3    0    0 -0.16682694746E+03 -0.11631003957E+03 -0.11163450411E+02  0.22092574457E+03  0.85582161025E+02 0.  0.
         -6    2    1    2    0  501  0.31013897549E+03  0.24045739420E+03 -0.26403302953E+03  0.50314134382E+03  0.17155707105E+03 0.  0.
        -24    2    5    5    0    0  0.21121951882E+03  0.10974500110E+03 -0.21961364723E+03  0.33324149055E+03  0.78498959058E+02 0.  0.
          5    1    3    3  502    0 -0.14331202804E+03 -0.12414735463E+03 -0.12927659736E+03  0.22953307315E+03  0.47000000000E+01 0. -1.
        -11    1    4    4    0    0 -0.24123843092E+02 -0.63397618502E+02 -0.11064812272E+02  0.68728799698E+02  0.00000000000E+00 0.  1.
         12    1    4    4    0    0 -0.14270310436E+03 -0.52912421064E+02 -0.98638138985E-01  0.15219694487E+03  0.00000000000E+00 0. -1.
         -5    1    5    5    0  501  0.98919456674E+02  0.13071239309E+03 -0.44419382304E+02  0.16989985327E+03  0.47000000000E+01 0.  1.
         11    1    6    6    0    0  0.18309440548E+03  0.66746987852E+02 -0.14615693173E+03  0.24359920032E+03  0.00000000000E+00 0. -1.
        -12    1    6    6    0    0  0.28125113341E+02  0.42998013251E+02 -0.73456715506E+02  0.89642290226E+02  0.00000000000E+00 0.  1.
</event>
<event>
12    1  0.2625820E-002  0.1971487E+03  0.7818608E-02  0.1152167E+00
          1   -1    0    0  502    0  0.00000000000E+00  0.00000000000E+00  0.64650166439E+03  0.64650166439E+03  0.00000000000E+00 0. -1.
         -1   -1    0    0    0  501 -0.00000000000E+00 -0.00000000000E+00 -0.64409416914E+02  0.64409416914E+02  0.00000000000E+00 0.  1.
          6    2    1    2  502    0  0.76972883689E+02 -0.58367191471E+02  0.38357882386E+03  0.43154636402E+03  0.17253404397E+03 0.  0.
         24    2    3    3    0    0  0.18609916981E+02 -0.21279022224E+02  0.68729510867E+02  0.10915847953E+03  0.79954375688E+02 0.  0.
         -6    2    1    2    0  501 -0.76972883689E+02  0.58367191471E+02  0.19851342362E+03  0.27936471728E+03  0.17118852777E+03 0.  0.
        -24    2    5    5    0    0  0.28812941882E+02  0.48511696987E+01  0.66763400851E+02  0.10206620071E+03  0.71459346257E+02 0.  0.
          5    1    3    3  502    0  0.58362966707E+02 -0.37088169247E+02  0.31484931299E+03  0.32238788450E+03  0.47000000000E+01 0. -1.
        -13    1    4    4    0    0  0.14692155591E+01 -0.49680194192E+02  0.52266072254E+02  0.72125048341E+02  0.00000000000E+00 0.  1.
         14    1    4    4    0    0  0.17140701422E+02  0.28401171968E+02  0.16463438614E+02  0.37033431186E+02  0.00000000000E+00 0. -1.
         -5    1    5    5    0  501 -0.10578582557E+03  0.53516021772E+02  0.13175002277E+03  0.17729851657E+03  0.47000000000E+01 0.  1.
         11    1    6    6    0    0 -0.14812349769E+01  0.10946489957E+02  0.70118532228E+02  0.70983295650E+02  0.00000000000E+00 0. -1.
        -12    1    6    6    0    0  0.30294176859E+02 -0.60953202584E+01 -0.33551313775E+01  0.31082905063E+02  0.00000000000E+00 0.  1.
</event>
<event>
12    1  0.2625820E-002  0.2093794E+03  0.7818608E-02  0.1142058E+00
          2   -1    0    0  502    0  0.00000000000E+00  0.00000000000E+00  0.28455434568E+04  0.28455434568E+04  0.00000000000E+00 0. -1.
         -2   -1    0    0    0  501 -0.00000000000E+00 -0.00000000000E+00 -0.29788373125E+02  0.29788373125E+02  0.00000000000E+00 0.  1.
          6    2    1    2  502    0 -0.97032027974E+02  0.68908117304E+02  0.24064063185E+04  0.24154876638E+04  0.17212129752E+03 0.  0.
         24    2    3    3    0    0 -0.10158530139E+03  0.99293235243E+02  0.15433496581E+04  0.15518715009E+04  0.78729080907E+02 0.  0.
         -6    2    1    2    0  501  0.97032027974E+02 -0.68908117304E+02  0.40934876519E+03  0.45984416616E+03  0.17241433383E+03 0.  0.
        -24    2    5    5    0    0  0.89954624886E+02 -0.10878933006E+03  0.27290155185E+03  0.31743443057E+03  0.79764702928E+02 0.  0.
          5    1    3    3  502    0  0.45532734114E+01 -0.30385117939E+02  0.86305666044E+03  0.86361616290E+03  0.47000000000E+01 0. -1.
        -11    1    4    4    0    0 -0.36608526456E+02 -0.42056533155E+01  0.50799928976E+03  0.50933402609E+03  0.00000000000E+00 0.  1.
         12    1    4    4    0    0 -0.64976774930E+02  0.10349888856E+03  0.10353503683E+04  0.10425374748E+04  0.00000000000E+00 0. -1.
         -5    1    5    5    0  501  0.70774030888E+01  0.39881212753E+02  0.13644721334E+03  0.14240973560E+03  0.47000000000E+01 0.  1.
         13    1    6    6    0    0 -0.12321515516E+02 -0.27357109472E+02  0.68727370226E+02  0.74991216828E+02  0.00000000000E+00 0. -1.
        -14    1    6    6    0    0  0.10227614040E+03 -0.81432220584E+02  0.20417418163E+03  0.24244321374E+03  0.00000000000E+00 0.  1.
</event>
<event>
12    1  0.2625820E-002  0.1731996E+03  0.7818608E-02  0.1174552E+00
          2   -1    0    0  502    0  0.00000000000E+00  0.00000000000E+00  0.46232749301E+03  0.46232749301E+03  0.00000000000E+00 0.  1.
         -2   -1    0    0    0  501 -0.00000000000E+00 -0.00000000000E+00 -0.11006419942E+03  0.11006419942E+03  0.00000000000E+00 0. -1.
          6    2    1    2  502    0 -0.91893504904E+01 -0.15236798082E+02 -0.71585982811E+01  0.17346726512E+03  0.17240371911E+03 0.  0.
         24    2    3    3    0    0 -0.26428122320E+02  0.61331804994E+01 -0.66692867323E+02  0.10773850103E+03  0.80147267580E+02 0.  0.
         -6    2    1    2    0  501  0.91893504904E+01  0.15236798082E+02  0.35942189188E+03  0.39892442731E+03  0.17216270840E+03 0.  0.
        -24    2    5    5    0    0 -0.38316328707E+02 -0.34236632130E+02  0.17451689944E+03  0.20165213812E+03  0.86989359079E+02 0.  0.
          5    1    3    3  502    0  0.17238771829E+02 -0.21369978582E+02  0.59534269042E+02  0.65728764093E+02  0.47000000000E+01 0. -1.
        -11    1    4    4    0    0 -0.33689362901E+02  0.38416479816E+02 -0.35113826425E+02  0.61998224977E+02  0.00000000000E+00 0.  1.
         12    1    4    4    0    0  0.72612405811E+01 -0.32283299316E+02 -0.31579040898E+02  0.45740276055E+02  0.00000000000E+00 0. -1.
         -5    1    5    5    0  501  0.47505679197E+02  0.49473430212E+02  0.18490499244E+03  0.19727228919E+03  0.47000000000E+01 0.  1.
         13    1    6    6    0    0  0.37974328692E+01 -0.11172157935E+02 -0.71161310640E+01  0.13779583834E+02  0.00000000000E+00 0. -1.
        -14    1    6    6    0    0 -0.42113761576E+02 -0.23064474195E+02  0.18163303050E+03  0.18787255428E+03  0.00000000000E+00 0.  1.
</event>
<event>
12    1  0.2625820E-002  0.1791699E+03  0.7818608E-02  0.1168609E+00
          2   -1    0    0  502    0  0.00000000000E+00  0.00000000000E+00  0.11617454969E+04  0.11617454969E+04  0.00000000000E+00 0.  1.
         -2   -1    0    0    0  501 -0.00000000000E+00 -0.00000000000E+00 -0.41014906850E+02  0.41014906850E+02  0.00000000000E+00 0. -1.
          6    2    1    2  502    0  0.47519521817E+02 -0.22933874168E+02  0.21773015723E+03  0.28223738596E+03  0.17166086663E+03 0.  0.
         24    2    3    3    0    0  0.73694236885E+02  0.35989317139E+02  0.12787363973E+03  0.17154257164E+03  0.79681331858E+02 0.  0.
         -6    2    1    2    0  501 -0.47519521817E+02  0.22933874168E+02  0.90300043278E+03  0.92052301775E+03  0.17078869125E+03 0.  0.
        -24    2    5    5    0    0 -0.67023591111E+02  0.66059509403E+02  0.75818675335E+03  0.76809821371E+03  0.79194017510E+02 0.  0.
          5    1    3    3  502    0 -0.26174715068E+02 -0.58923191306E+02  0.89856517491E+02  0.11069481432E+03  0.47000000000E+01 0. -1.
        -11    1    4    4    0    0  0.70018314921E+02 -0.76620979814E+01  0.75247165077E+02  0.10306991812E+03  0.00000000000E+00 0.  1.
         12    1    4    4    0    0  0.36759219634E+01  0.43651415120E+02  0.52626474658E+02  0.68472653513E+02  0.00000000000E+00 0. -1.
         -5    1    5    5    0  501  0.19504069294E+02 -0.43125635235E+02  0.14481367943E+03  0.15242480403E+03  0.47000000000E+01 0.  1.
         13    1    6    6    0    0  0.65071386930E+00 -0.14707593626E+02  0.50238890369E+02  0.52351531441E+02  0.00000000000E+00 0. -1.
        -14    1    6    6    0    0 -0.67674304981E+02  0.80767103029E+02  0.70794786298E+03  0.71574668227E+03  0.00000000000E+00 0.  1.
</event>
<event>
12    1  0.2625820E-002  0.1995243E+03  0.7818608E-02  0.1150141E+00
         -1   -1    0    0    0  501 -0.00000000000E+00  0.00000000000E+00  0.63073780925E+02  0.63073780925E+02  0.00000000000E+00 0.  1.
          1   -1    0    0  502    0  0.00000000000E+00 -0.00000000000E+00 -0.74119463844E+03  0.74119463844E+03  0.00000000000E+00 0. -1.
          6    2    1    2  502    0  0.86291228722E+02  0.47769775183E+02 -0.49183813073E+03  0.53021759592E+03  0.17174930746E+03 0.  0.
         24    2    3    3    0    0  0.10245539034E+03  0.54940296502E+02 -0.49251320394E+03  0.51190797494E+03  0.77233254215E+02 0.  0.
         -6    2    1    2    0  501 -0.86291228722E+02 -0.47769775183E+02 -0.18628272678E+03  0.27405082344E+03  0.17514129140E+03 0.  0.
        -24    2    5    5    0    0 -0.99828938500E+02 -0.79727393058E+02 -0.18568822744E+03  0.23902223004E+03  0.79556486077E+02 0.  0.
          5    1    3    3  502    0 -0.16164161615E+02 -0.71705213195E+01  0.67507321618E+00  0.18309620984E+02  0.47000000000E+01 0. -1.
        -11    1    4    4    0    0 -0.26685733311E+01 -0.13569775402E+02 -0.40179998038E+02  0.42493438675E+02  0.00000000000E+00 0.  1.
         12    1    4    4    0    0  0.10512396367E+03  0.68510071904E+02 -0.45233320591E+03  0.46941453626E+03  0.00000000000E+00 0. -1.
         -5    1    5    5    0  501  0.13537709778E+02  0.31957617876E+02 -0.59449934560E+00  0.35028593403E+02  0.47000000000E+01 0.  1.
         11    1    6    6    0    0 -0.53711651473E+02 -0.18868731974E+01 -0.37993232960E+02  0.65817836071E+02  0.00000000000E+00 0. -1.
        -12    1    6    6    0    0 -0.46117287027E+02 -0.77840519861E+02 -0.14769499448E+03  0.17320439397E+03  0.00000000000E+00 0.  1.
</event>
<event>
12    1  0.2625820E-002  0.2957447E+03  0.7818608E-02  0.1087387E+00
          2   -1    0    0  502    0  0.00000000000E+00  0.00000000000E+00  0.14641967994E+04  0.14641967994E+04  0.00000000000E+00 0.  1.
         -2   -1    0    0    0  501 -0.00000000000E+00 -0.00000000000E+00 -0.73902264584E+02  0.73902264584E+02  0.00000000000E+00 0. -1.
          6    2    1    2  502    0  0.23205456499E+03  0.64444096648E+02  0.10320661065E+04  0.10736342031E+04  0.17183594307E+03 0.  0.
         24    2    3    3    0    0  0.65609300981E+02  0.71992309553E+02  0.52413326944E+03  0.53905132056E+03  0.79832130453E+02 0.  0.
         -6    2    1    2    0  501 -0.23205456499E+03 -0.64444096648E+02  0.35822842835E+03  0.46446486083E+03  0.17145739222E+03 0.  0.
        -24    2    5    5    0    0 -0.14467194517E+03 -0.22787655483E+01  0.12283807172E+03  0.20575467427E+03  0.79439471473E+02 0.  0.
          5    1    3    3  502    0  0.16644526401E+03 -0.75482129047E+01  0.50793283702E+03  0.53458288259E+03  0.47000000000E+01 0. -1.
        -11    1    4    4    0    0  0.78184905274E+02  0.35648370337E+02  0.39870822082E+03  0.40786263750E+03  0.00000000000E+00 0.  1.
         12    1    4    4    0    0 -0.12575604293E+02  0.36343939216E+02  0.12542504862E+03  0.13118868306E+03  0.00000000000E+00 0. -1.
         -5    1    5    5    0  501 -0.87382619821E+02 -0.62165331100E+02  0.23539035663E+03  0.25871018657E+03  0.47000000000E+01 0.  1.
         13    1    6    6    0    0 -0.74566474558E+02  0.12883001167E+02  0.10902193128E+03  0.13270988036E+03  0.00000000000E+00 0. -1.
        -14    1    6    6    0    0 -0.70105470612E+02 -0.15161766715E+02  0.13816140441E+02  0.73044793903E+02  0.00000000000E+00 0.  1.
</event>
<event>
12    1  0.2625820E-002  0.1925312E+03  0.7818608E-02  0.1156198E+00
         -2   -1    0    0    0  501 -0.00000000000E+00  0.00000000000E+00  0.79766587565E+02  0.79766587565E+02  0.00000000000E+00 0.  1.
          2   -1    0    0  502    0  0.00000000000E+00 -0.00000000000E+00 -0.47341743277E+03  0.47341743277E+03  0.00000000000E+00 0. -1.
          6    2    1    2  502    0 -0.50463080296E+02  0.65486708348E+02 -0.23540584259E+03  0.30480905670E+03  0.17509317200E+03 0.  0.
         24    2    3    3    0    0  0.13884080787E+02  0.38457748551E+02 -0.55387593628E+02  0.11167754253E+03  0.87933621869E+02 0.  0.
         -6    2    1    2    0  501  0.50463080296E+02 -0.65486708348E+02 -0.15824500261E+03  0.24837496363E+03  0.17266618158E+03 0.  0.
        -24    2    5    5    0    0  0.18104432598E+02 -0.29355044485E+01 -0.75400633540E+01  0.81960409256E+02  0.79525269342E+02 0.  0.
          5    1    3    3  502    0 -0.64347161084E+02  0.27028959797E+02 -0.18001824896E+03  0.19313151417E+03  0.47000000000E+01 0. -1.
        -13    1    4    4    0    0  0.15501950888E+02 -0.55336559834E+01 -0.64633003630E+02  0.66696004289E+02  0.00000000000E+00 0.  1.
         14    1    4    4    0    0 -0.16178701003E+01  0.43991404534E+02  0.92454100018E+01  0.44981538242E+02  0.00000000000E+00 0. -1.
         -5    1    5    5    0  501  0.32358647698E+02 -0.62551203900E+02 -0.15070493926E+03  0.16641455437E+03  0.47000000000E+01 0.  1.
         11    1    6    6    0    0 -0.28743427658E+02  0.13376365166E+02 -0.63876019036E+01  0.32340581885E+02  0.00000000000E+00 0. -1.
        -12    1    6    6    0    0  0.46847860256E+02 -0.16311869614E+02 -0.11524614504E+01  0.49619827371E+02  0.00000000000E+00 0.  1.
</event>
<event>
12    1  0.2625820E-002  0.1944194E+03  0.7818608E-02  0.1154535E+00
         -2   -1    0    0    0  501 -0.00000000000E+00  0.00000000000E+00  0.58914680354E+02  0.58914680354E+02  0.00000000000E+00 0.  1.
          2   -1    0    0  502    0  0.00000000000E+00 -0.00000000000E+00 -0.64985011439E+03  0.64985011439E+03  0.00000000000E+00 0. -1.
          6    2    1    2  502    0 -0.63973028570E+02  0.62137826819E+02 -0.33670904539E+03  0.38924752998E+03  0.17374406592E+03 0.  0.
         24    2    3    3    0    0 -0.17559592290E+02 -0.44366541156E+02 -0.10172543126E+03  0.12707053562E+03  0.59347522280E+02 0.  0.
         -6    2    1    2    0  501  0.63973028570E+02 -0.62137826819E+02 -0.25422638864E+03  0.31951726476E+03  0.17177475918E+03 0.  0.
        -24    2    5    5    0    0  0.33774930108E+02  0.28902880366E+01 -0.10281893189E+03  0.15192583052E+03  0.10658623529E+03 0.  0.
          5    1    3    3  502    0 -0.46413436280E+02  0.10650436798E+03 -0.23498361413E+03  0.26217699437E+03  0.47000000000E+01 0. -1.
        -11    1    4    4    0    0 -0.29833045057E+02 -0.10396857115E+02 -0.19155716142E+02  0.36946538081E+02  0.00000000000E+00 0.  1.
         12    1    4    4    0    0  0.12273452767E+02 -0.33969684041E+02 -0.82569715120E+02  0.90123997535E+02  0.00000000000E+00 0. -1.
         -5    1    5    5    0  501  0.30198098462E+02 -0.65028114856E+02 -0.15140745675E+03  0.16759143424E+03  0.47000000000E+01 0.  1.
         13    1    6    6    0    0 -0.23268408362E+02  0.34043977372E+02 -0.64259764901E+02  0.76352659470E+02  0.00000000000E+00 0. -1.
        -14    1    6    6    0    0  0.57043338470E+02 -0.31153689335E+02 -0.38559166991E+02  0.75573171046E+02  0.00000000000E+00 0.  1.
</event>
<event>
12    1  0.2625820E-002  0.2179846E+03  0.7818608E-02  0.1135395E+00
          2   -1    0    0  502    0  0.00000000000E+00  0.00000000000E+00  0.45778359549E+03  0.45778359549E+03  0.00000000000E+00 0. -1.
         -2   -1    0    0    0  501 -0.00000000000E+00 -0.00000000000E+00 -0.14792678909E+03  0.14792678909E+03  0.00000000000E+00 0.  1.
          6    2    1    2  502    0 -0.55876618934E+02 -0.11371104645E+03  0.31744293911E+03  0.38203886003E+03  0.17067885738E+03 0.  0.
         24    2    3    3    0    0  0.10313356074E+01 -0.13122016876E+03  0.21770882931E+03  0.26578883934E+03  0.77632315520E+02 0.  0.
         -6    2    1    2    0  501  0.55876618934E+02  0.11371104645E+03 -0.75861327107E+01  0.22367152455E+03  0.18417112384E+03 0.  0.
        -24    2    5    5    0    0  0.68528423744E+02  0.10663739584E+03  0.54607384795E+02  0.15963849934E+03  0.80217235957E+02 0.  0.
          5    1    3    3  502    0 -0.56907954542E+02  0.17509122313E+02  0.99734109791E+02  0.11625002069E+03  0.47000000000E+01 0. -1.
        -11    1    4    4    0    0  0.12619082637E+02  0.63923552864E+01  0.16304133048E+02  0.21585370211E+02  0.00000000000E+00 0.  1.
         12    1    4    4    0    0 -0.11587747030E+02 -0.13761252405E+03  0.20140469627E+03  0.24420346913E+03  0.00000000000E+00 0. -1.
         -5    1    5    5    0  501 -0.12651804809E+02  0.70736506049E+01 -0.62193517506E+02  0.64033025210E+02  0.47000000000E+01 0.  1.
         11    1    6    6    0    0  0.13813794809E+02  0.90011904979E+02  0.21529533384E+02  0.93576090818E+02  0.00000000000E+00 0. -1.
        -12    1    6    6    0    0  0.54714628935E+02  0.16625490864E+02  0.33077851411E+02  0.66062408523E+02  0.00000000000E+00 0.  1.
</event>
<event>
12    1  0.2625820E-002  0.1819834E+03  0.7818608E-02  0.1165897E+00
          2   -1    0    0  502    0  0.00000000000E+00  0.00000000000E+00  0.13145785019E+04  0.13145785019E+04  0.00000000000E+00 0.  1.
         -2   -1    0    0    0  501 -0.00000000000E+00 -0.00000000000E+00 -0.39252015669E+02  0.39252015669E+02  0.00000000000E+00 0. -1.
          6    2    1    2  502    0  0.51775375042E+02 -0.27428477956E+02  0.10425970877E+04  0.10583461738E+04  0.17220605518E+03 0.  0.
         24    2    3    3    0    0  0.34688079410E+02 -0.56534570042E+02  0.99231810299E+03  0.99760733472E+03  0.78267210896E+02 0.  0.
         -6    2    1    2    0  501 -0.51775375042E+02  0.27428477956E+02  0.23272939857E+03  0.29548434381E+03  0.17238043281E+03 0.  0.
        -24    2    5    5    0    0 -0.53377851479E+02 -0.19850253058E+02  0.22882984300E+03  0.24778588608E+03  0.76102041467E+02 0.  0.
          5    1    3    3  502    0  0.17087295633E+02  0.29106092086E+02  0.50278984699E+02  0.60738839065E+02  0.47000000000E+01 0. -1.
        -13    1    4    4    0    0  0.41132956515E+02 -0.66234232621E+02  0.59104954932E+03  0.59616982768E+03  0.00000000000E+00 0.  1.
         14    1    4    4    0    0 -0.64448771052E+01  0.96996625792E+01  0.40126855367E+03  0.40143750704E+03  0.00000000000E+00 0. -1.
         -5    1    5    5    0  501  0.16024764365E+01  0.47278731014E+02  0.38995555706E+01  0.47698457739E+02  0.47000000000E+01 0.  1.
         11    1    6    6    0    0 -0.22919370225E+02 -0.46362566626E+02  0.97220017136E+02  0.11012046516E+03  0.00000000000E+00 0. -1.
        -12    1    6    6    0    0 -0.30458481254E+02  0.26512313568E+02  0.13160982587E+03  0.13766542091E+03  0.00000000000E+00 0.  1.
</event>
<event>
12    1  0.2625820E-002  0.2404272E+03  0.7818608E-02  0.1119509E+00
         -1   -1    0    0    0  501 -0.00000000000E+00  0.00000000000E+00  0.24191931862E+02  0.24191931862E+02  0.00000000000E+00 0. -1.
          1   -1    0    0  502    0  0.00000000000E+00 -0.00000000000E+00 -0.24649007220E+04  0.24649007220E+04  0.00000000000E+00 0.  1.
          6    2    1    2  502    0 -0.16237841751E+03 -0.46244392268E+02 -0.10014734986E+04  0.10298756701E+04  0.17084915296E+03 0.  0.
         24    2    3    3    0    0 -0.52493795795E+01 -0.13454348912E+02 -0.35187746191E+03  0.36072559541E+03  0.78080929117E+02 0.  0.
         -6    2    1    2    0  501  0.16237841751E+03  0.46244392268E+02 -0.14392352915E+04  0.14592169838E+04  0.17149544355E+03 0.  0.
        -24    2    5    5    0    0  0.61422732732E+02  0.79070588033E+02 -0.94902162818E+03  0.95761840411E+03  0.79787512512E+02 0.  0.
          5    1    3    3  502    0 -0.15712903793E+03 -0.32790043357E+02 -0.64959603674E+03  0.66915007469E+03  0.47000000000E+01 0. -1.
        -13    1    4    4    0    0 -0.17329782923E+02 -0.41272576401E+01 -0.34217962919E+03  0.34264304205E+03  0.00000000000E+00 0.  1.
         14    1    4    4    0    0  0.12080403344E+02 -0.93270912715E+01 -0.96978327203E+01  0.18082553360E+02  0.00000000000E+00 0. -1.
         -5    1    5    5    0  501  0.10095568478E+03 -0.32826195765E+02 -0.49021366333E+03  0.50159857967E+03  0.47000000000E+01 0.  1.
         11    1    6    6    0    0  0.80599558516E+02  0.57161624987E+02 -0.71680628419E+03  0.72358481829E+03  0.00000000000E+00 0. -1.
        -12    1    6    6    0    0 -0.19176825783E+02  0.21908963046E+02 -0.23221534399E+03  0.23403358582E+03  0.00000000000E+00 0.  1.
</event>
<event>
12    1  0.2625820E-002  0.2718066E+03  0.7818608E-02  0.1100250E+00
         -1   -1    0    0    0  501 -0.00000000000E+00  0.00000000000E+00  0.10339162387E+03  0.10339162387E+03  0.00000000000E+00 0. -1.
          1   -1    0    0  502    0  0.00000000000E+00 -0.00000000000E+00 -0.71516635517E+03  0.71516635517E+03  0.00000000000E+00 0.  1.
          6    2    1    2  502    0  0.21010787537E+03  0.94911537360E+01 -0.29385986094E+03  0.40026439939E+03  0.17211208632E+03 0.  0.
         24    2    3    3    0    0  0.15050489671E+03  0.48604161661E+02 -0.12354046727E+03  0.21556700279E+03  0.78694327449E+02 0.  0.
         -6    2    1    2    0  501 -0.21010787537E+03 -0.94911537360E+01 -0.31791487036E+03  0.41829357965E+03  0.17223313471E+03 0.  0.
        -24    2    5    5    0    0 -0.13249344985E+02 -0.82209557666E+01 -0.10356344461E+03  0.12722053365E+03  0.72225673182E+02 0.  0.
          5    1    3    3  502    0  0.59602978658E+02 -0.39113007925E+02 -0.17031939366E+03  0.18469739660E+03  0.47000000000E+01 0. -1.
        -11    1    4    4    0    0  0.21978942720E+02  0.27240522365E+02  0.14312694526E+01  0.35030965075E+02  0.00000000000E+00 0.  1.
         12    1    4    4    0    0  0.12852595399E+03  0.21363639295E+02 -0.12497173673E+03  0.18053603771E+03  0.00000000000E+00 0. -1.
         -5    1    5    5    0  501 -0.19685853038E+03 -0.12701979694E+01 -0.21435142575E+03  0.29107304600E+03  0.47000000000E+01 0.  1.
         11    1    6    6    0    0 -0.89912342407E+01 -0.39081065976E+02 -0.41117649605E+02  0.57435469181E+02  0.00000000000E+00 0. -1.
        -12    1    6    6    0    0 -0.42581107439E+01  0.30860110209E+02 -0.62445795002E+02  0.69785064467E+02  0.00000000000E+00 0.  1.
</event>
<event>
12    1  0.2625820E-002  0.1731078E+03  0.7818608E-02  0.1174645E+00
          2   -1    0    0  502    0  0.00000000000E+00  0.00000000000E+00  0.57324834639E+03  0.57324834639E+03  0.00000000000E+00 0.  1.
         -2   -1    0    0    0  501 -0.00000000000E+00 -0.00000000000E+00 -0.54903295084E+02  0.54903295084E+02  0.00000000000E+00 0. -1.
          6    2    1    2  502    0 -0.16231761570E+02 -0.13098725149E+02  0.32747699264E+03  0.37027854357E+03  0.17155166113E+03 0.  0.
         24    2    3    3    0    0  0.41436183870E+02 -0.44623555210E+02  0.24052471810E+03  0.26118136263E+03  0.81580298820E+02 0.  0.
         -6    2    1    2    0  501  0.16231761570E+02  0.13098725149E+02  0.19086805867E+03  0.25787309790E+03  0.17214201148E+03 0.  0.
        -24    2    5    5    0    0 -0.35582252426E+02 -0.36222092880E+02  0.85628411482E+02  0.13053611004E+03  0.84435267939E+02 0.  0.
          5    1    3    3  502    0 -0.57667945440E+02  0.31524830061E+02  0.86952274539E+02  0.10909718094E+03  0.47000000000E+01 0. -1.
        -13    1    4    4    0    0 -0.68107635393E+01  0.96565520060E-01  0.14520500124E+03  0.14536467318E+03  0.00000000000E+00 0.  1.
         14    1    4    4    0    0  0.48246947409E+02 -0.44720120730E+02  0.95319716867E+02  0.11581668945E+03  0.00000000000E+00 0. -1.
         -5    1    5    5    0  501  0.51814013996E+02  0.49320818029E+02  0.10523964718E+03  0.12733698786E+03  0.47000000000E+01 0.  1.
         13    1    6    6    0    0  0.20907625319E+01  0.44327419691E+01 -0.14930198857E+02  0.15714048722E+02  0.00000000000E+00 0. -1.
        -14    1    6    6    0    0 -0.37673014957E+02 -0.40654834849E+02  0.10055861034E+03  0.11482206132E+03  0.00000000000E+00 0.  1.
</event>
<event>
12    1  0.2625820E-002  0.2262825E+03  0.7818608E-02  0.1129284E+00
          2   -1    0    0  502    0  0.00000000000E+00  0.00000000000E+00  0.15843115303E+04  0.15843115303E+04  0.00000000000E+00 0. -1.
         -2   -1    0    0    0  501 -0.00000000000E+00 -0.00000000000E+00 -0.32453573746E+02  0.32453573746E+02  0.00000000000E+00 0.  1.
          6    2    1    2  502    0  0.11454812691E+03 -0.91554177984E+02  0.83160222502E+03  0.86213396736E+03  0.17380815896E+03 0.  0.
         24    2    3    3    0    0  0.42591742544E+02  0.25981492490E+01  0.19575048371E+03  0.21531721672E+03  0.78882476068E+02 0.  0.
         -6    2    1    2    0  501 -0.11454812691E+03  0.91554177984E+02  0.72025573150E+03  0.75463113665E+03  0.17086951972E+03 0.  0.
        -24    2    5    5    0    0 -0.10333119911E+03  0.45973108179E+02  0.29257030342E+03  0.32435172884E+03  0.82557847463E+02 0.  0.
          5    1    3    3  502    0  0.71956384363E+02 -0.94152327233E+02  0.63585174131E+03  0.64681675063E+03  0.47000000000E+01 0. -1.
        -11    1    4    4    0    0 -0.31924785775E+01 -0.27527233297E+02  0.30470102385E+02  0.41186983767E+02  0.00000000000E+00 0.  1.
         12    1    4    4    0    0  0.45784221121E+02  0.30125382546E+02  0.16528038133E+03  0.17413023296E+03  0.00000000000E+00 0. -1.
         -5    1    5    5    0  501 -0.11216927795E+02  0.45581069806E+02  0.42768542808E+03  0.43027940781E+03  0.47000000000E+01 0.  1.
         11    1    6    6    0    0 -0.61656690578E+02 -0.15591287081E+02  0.16301232681E+03  0.17497901136E+03  0.00000000000E+00 0. -1.
        -12    1    6    6    0    0 -0.41674508533E+02  0.61564395259E+02  0.12955797661E+03  0.14937271748E+03  0.00000000000E+00 0.  1.
</event>
<event>
12    1  0.2625820E-002  0.2237257E+03  0.7818608E-02  0.1131136E+00
         -3   -1    0    0    0  501 -0.00000000000E+00  0.00000000000E+00  0.10797372590E+03  0.10797372590E+03  0.00000000000E+00 0.  1.
          3   -1    0    0  502    0  0.00000000000E+00 -0.00000000000E+00 -0.56564837752E+03  0.56564837752E+03  0.00000000000E+00 0. -1.
          6    2    1    2  502    0 -0.89480952809E+02 -0.11260340691E+03 -0.85957018331E+02  0.23989400827E+03  0.17168039504E+03 0.  0.
         24    2    3    3    0    0 -0.10516651799E+03 -0.13962221535E+03 -0.80458310672E+02  0.20782566328E+03  0.78508643078E+02 0.  0.
         -6    2    1    2    0  501  0.89480952809E+02  0.11260340691E+03 -0.37171763329E+03  0.43372809515E+03  0.17105465050E+03 0.  0.
        -24    2    5    5    0    0 -0.64589786925E+01  0.20470529517E+02 -0.20091414463E+03  0.21718973990E+03  0.79650038429E+02 0.  0.
          5    1    3    3  502    0  0.15685565185E+02  0.27018808435E+02 -0.54987076592E+01  0.32068344989E+02  0.47000000000E+01 0. -1.
        -13    1    4    4    0    0  0.21459876315E+00  0.74423780755E+01  0.36682824917E+01  0.83000807518E+01  0.00000000000E+00 0.  1.
         14    1    4    4    0    0 -0.10538111676E+03 -0.14706459342E+03 -0.84126593164E+02  0.19952558253E+03  0.00000000000E+00 0. -1.
         -5    1    5    5    0  501  0.95939931501E+02  0.92132877397E+02 -0.17080348866E+03  0.21653835525E+03  0.47000000000E+01 0.  1.
         11    1    6    6    0    0  0.10778362355E+02  0.42187790936E+02 -0.63427888615E+02  0.76935556496E+02  0.00000000000E+00 0. -1.
        -12    1    6    6    0    0 -0.17237341047E+02 -0.21717261420E+02 -0.13748625601E+03  0.14025418340E+03  0.00000000000E+00 0.  1.
</event>
<event>
12    1  0.2625820E-002  0.1765218E+03  0.7818608E-02  0.1171212E+00
          2   -1    0    0  502    0  0.00000000000E+00  0.00000000000E+00  0.63360709439E+02  0.63360709439E+02  0.00000000000E+00 0. -1.
         -2   -1    0    0    0  501 -0.00000000000E+00 -0.00000000000E+00 -0.49367615480E+03  0.49367615480E+03  0.00000000000E+00 0.  1.
          6    2    1    2  502    0 -0.36885509448E+02  0.21471447012E+02 -0.23376560502E+03  0.29366901322E+03  0.17255018803E+03 0.  0.
         24    2    3    3    0    0  0.38839718664E+02  0.28676523036E+02 -0.86332056322E+02  0.12770225578E+03  0.80769892053E+02 0.  0.
         -6    2    1    2    0  501  0.36885509448E+02 -0.21471447012E+02 -0.19654984034E+03  0.26336785102E+03  0.17002711951E+03 0.  0.
        -24    2    5    5    0    0  0.45661013498E+02 -0.13333922862E+02 -0.21834504037E+03  0.23806272279E+03  0.82076681672E+02 0.  0.
          5    1    3    3  502    0 -0.75725228112E+02 -0.72050760239E+01 -0.14743354870E+03  0.16596675744E+03  0.47000000000E+01 0. -1.
        -11    1    4    4    0    0  0.12885173287E+02 -0.21668552517E+02 -0.60314233139E+02  0.65370945977E+02  0.00000000000E+00 0.  1.
         12    1    4    4    0    0  0.25954545377E+02  0.50345075553E+02 -0.26017823183E+02  0.62331309800E+02  0.00000000000E+00 0. -1.
         -5    1    5    5    0  501 -0.87755040498E+01 -0.81375241498E+01  0.21795200030E+02  0.25305128235E+02  0.47000000000E+01 0.  1.
         11    1    6    6    0    0  0.58249496511E+02  0.13227774004E+02 -0.10334566489E+03  0.11936626115E+03  0.00000000000E+00 0. -1.
        -12    1    6    6    0    0 -0.12588483013E+02 -0.26561696866E+02 -0.11499937548E+03  0.11869646164E+03  0.00000000000E+00 0.  1.
</event>
<event>
12    1  0.2625820E-002  0.1982005E+03  0.7818608E-02  0.1151266E+00
          2   -1    0    0  502    0  0.00000000000E+00  0.00000000000E+00  0.52665103374E+03  0.52665103374E+03  0.00000000000E+00 0. -1.
         -2   -1    0    0    0  501 -0.00000000000E+00 -0.00000000000E+00 -0.74607207891E+02  0.74607207891E+02  0.00000000000E+00 0.  1.
          6    2    1    2  502    0  0.75495937984E+02  0.61309432071E+02  0.22954693814E+03  0.30282925545E+03  0.17191648564E+03 0.  0.
         24    2    3    3    0    0  0.91635970974E+02  0.41098716029E+01  0.20760888953E+03  0.23930242364E+03  0.75829787868E+02 0.  0.
         -6    2    1    2    0  501 -0.75495937984E+02 -0.61309432071E+02  0.22249688771E+03  0.29842898618E+03  0.17348346215E+03 0.  0.
        -24    2    5    5    0    0 -0.20362760449E+02 -0.40344990021E+01  0.20000148677E+03  0.21567502382E+03  0.78001294827E+02 0.  0.
          5    1    3    3  502    0 -0.16140032990E+02  0.57199560468E+02  0.21938048607E+02  0.63526831806E+02  0.47000000000E+01 0. -1.
        -11    1    4    4    0    0  0.59932944005E+00 -0.20966076174E+02  0.18665884801E+02  0.28077585390E+02  0.00000000000E+00 0.  1.
         12    1    4    4    0    0  0.91036641534E+02  0.25075947777E+02  0.18894300473E+03  0.21122483825E+03  0.00000000000E+00 0. -1.
         -5    1    5    5    0  501 -0.55133177535E+02 -0.57274933068E+02  0.22495400943E+02  0.82753962362E+02  0.47000000000E+01 0.  1.
         13    1    6    6    0    0  0.26617046297E+02  0.94867540871E+01  0.44900863254E+02  0.53052362601E+02  0.00000000000E+00 0. -1.
        -14    1    6    6    0    0 -0.46979806746E+02 -0.13521253089E+02  0.15510062351E+03  0.16262266122E+03  0.00000000000E+00 0.  1.
</event>
<event>
12    1  0.2625820E-002  0.1780696E+03  0.7818608E-02  0.1169684E+00
         -1   -1    0    0    0  501 -0.00000000000E+00  0.00000000000E+00  0.40517938451E+02  0.40517938451E+02  0.00000000000E+00 0. -1.
          1   -1    0    0  502    0  0.00000000000E+00 -0.00000000000E+00 -0.13122435322E+04  0.13122435322E+04  0.00000000000E+00 0.  1.
          6    2    1    2  502    0 -0.42843106858E+02 -0.24222221715E+01 -0.20880867480E+03  0.27523528965E+03  0.17410342625E+03 0.  0.
         24    2    3    3    0    0 -0.69942026807E+02  0.30510209037E+02 -0.72434280263E+02  0.13227039196E+03  0.80162158538E+02 0.  0.
         -6    2    1    2    0  501  0.42843106858E+02  0.24222221715E+01 -0.10629169190E+04  0.10775261810E+04  0.17154852138E+03 0.  0.
        -24    2    5    5    0    0 -0.15814537449E+02  0.24960173294E+02 -0.17241551270E+03  0.18479804600E+03  0.59582706745E+02 0.  0.
          5    1    3    3  502    0  0.27098919949E+02 -0.32932431208E+02 -0.13637439454E+03  0.14296489770E+03  0.47000000000E+01 0. -1.
        -13    1    4    4    0    0 -0.17311670053E+02  0.24112702625E+02 -0.73472796882E+02  0.79242464813E+02  0.00000000000E+00 0.  1.
         14    1    4    4    0    0 -0.52630356753E+02  0.63975064112E+01  0.10385166195E+01  0.53027927142E+02  0.00000000000E+00 0. -1.
         -5    1    5    5    0  501  0.58657644307E+02 -0.22537951123E+02 -0.89050140626E+03  0.89272813501E+03  0.47000000000E+01 0.  1.
         11    1    6    6    0    0 -0.35824906905E+02  0.16301023850E+02 -0.14213843931E+03  0.14748723085E+03  0.00000000000E+00 0. -1.
        -12    1    6    6    0    0  0.20010369456E+02  0.86591494447E+01 -0.30277073384E+02  0.37310815155E+02  0.00000000000E+00 0.  1.
</event>
<event>
12    1  0.2625820E-002  0.2531264E+03  0.7818608E-02  0.1111345E+00
          2   -1    0    0  502    0  0.00000000000E+00  0.00000000000E+00  0.98925285457E+03  0.98925285457E+03  0.00000000000E+00 0. -1.
         -2   -1    0    0    0  501 -0.00000000000E+00 -0.00000000000E+00 -0.65864446628E+02  0.65864446628E+02  0.00000000000E+00 0.  1.
          6    2    1    2  502    0  0.16726336916E+03 -0.62570344029E+02  0.51952352339E+03  0.57567077738E+03  0.17204670867E+03 0.  0.
         24    2    3    3    0    0  0.31461702701E+02 -0.51748222392E+02  0.14302208310E+03  0.17525270153E+03  0.81181745993E+02 0.  0.
         -6    2    1    2    0  501 -0.16726336916E+03  0.62570344029E+02  0.40386488456E+03  0.47944652382E+03  0.18673521791E+03 0.  0.
        -24    2    5    5    0    0 -0.12963912171E+03  0.10586692508E+03  0.36733578271E+03  0.41128023297E+03  0.78751159132E+02 0.  0.
          5    1    3    3  502    0  0.13580166646E+03 -0.10822121637E+02  0.37650144028E+03  0.40041807585E+03  0.47000000000E+01 0. -1.
        -11    1    4    4    0    0 -0.14730356470E+01 -0.26664823929E+02  0.12870741657E+03  0.13144877995E+03  0.00000000000E+00 0.  1.
         12    1    4    4    0    0  0.32934738348E+02 -0.25083398463E+02  0.14314666532E+02  0.43803921588E+02  0.00000000000E+00 0. -1.
         -5    1    5    5    0  501 -0.37624247453E+02 -0.43296581048E+02  0.36529101843E+02  0.68166290850E+02  0.47000000000E+01 0.  1.
         13    1    6    6    0    0 -0.41914113287E+01 -0.51409973885E+01  0.67500317839E+02  0.67825442803E+02  0.00000000000E+00 0. -1.
        -14    1    6    6    0    0 -0.12544771038E+03  0.11100792247E+03  0.29983546488E+03  0.34345479017E+03  0.00000000000E+00 0.  1.
</event>
<event>
12    1  0.2625820E-002  0.2030040E+03  0.7818608E-02  0.1147229E+00
          2   -1    0    0  502    0  0.00000000000E+00  0.00000000000E+00  0.13876355022E+04  0.13876355022E+04  0.00000000000E+00 0. -1.
         -2   -1    0    0    0  501 -0.00000000000E+00 -0.00000000000E+00 -0.36585615576E+02  0.36585615576E+02  0.00000000000E+00 0.  1.
          6    2    1    2  502    0 -0.30991445314E+02  0.10457767921E+03  0.98216827501E+03  0.10027558936E+04  0.17019959200E+03 0.  0.
         24    2    3    3    0    0 -0.84513692254E+02  0.86765822640E+02  0.66057720688E+03  0.67622136522E+03  0.79007698138E+02 0.  0.
         -6    2    1    2    0  501  0.30991445314E+02 -0.10457767921E+03  0.36888161164E+03  0.42146522416E+03  0.17222755616E+03 0.  0.
        -24    2    5    5    0    0  0.76770004649E+02 -0.10769685482E+03  0.24887853046E+03  0.29290303982E+03  0.79745982080E+02 0.  0.
          5    1    3    3  502    0  0.53522246940E+02  0.17811856568E+02  0.32159106813E+03  0.32653452842E+03  0.47000000000E+01 0. -1.
        -11    1    4    4    0    0  0.19208435643E+01 -0.11967693813E+02  0.86025023540E+02  0.86874737469E+02  0.00000000000E+00 0.  1.
         12    1    4    4    0    0 -0.86434535818E+02  0.98733516454E+02  0.57455218334E+03  0.58934662775E+03  0.00000000000E+00 0. -1.
         -5    1    5    5    0  501 -0.45778559335E+02  0.31191756143E+01  0.12000308118E+03  0.12856218434E+03  0.47000000000E+01 0.  1.
         13    1    6    6    0    0  0.66577341612E+02 -0.34317733575E+02  0.86497367288E+02  0.11442046933E+03  0.00000000000E+00 0. -1.
        -14    1    6    6    0    0  0.10192663037E+02 -0.73379121247E+02  0.16238116317E+03  0.17848257049E+03  0.00000000000E+00 0.  1.
</event>
<event>
12    1  0.2625820E-002  0.1869063E+03  0.7818608E-02  0.1161282E+00
         -3   -1    0    0    0  501 -0.00000000000E+00  0.00000000000E+00  0.28390649133E+03  0.28390649133E+03  0.00000000000E+00 0. -1.
          3   -1    0    0  502    0  0.00000000000E+00 -0.00000000000E+00 -0.14295775440E+03  0.14295775440E+03  0.00000000000E+00 0.  1.
          6    2    1    2  502    0 -0.19364987371E+02 -0.74829462948E+02 -0.92611858194E+01  0.18687577829E+03  0.16988918649E+03 0.  0.
         24    2    3    3    0    0 -0.41538776033E+02 -0.25132273496E+02  0.57177865218E+02  0.10086574953E+03  0.67435080432E+02 0.  0.
         -6    2    1    2    0  501  0.19364987371E+02  0.74829462948E+02  0.15020992274E+03  0.23998846744E+03  0.17046111684E+03 0.  0.
        -24    2    5    5    0    0  0.63624983595E+02  0.17175621877E+02  0.12836463713E+03  0.16394756293E+03  0.77834329190E+02 0.  0.
          5    1    3    3  502    0  0.22173788662E+02 -0.49697189452E+02 -0.66439051037E+02  0.86010028751E+02  0.47000000000E+01 0. -1.
        -11    1    4    4    0    0 -0.36873577795E+02  0.82288745185E+01  0.41020933527E+01  0.38002661553E+02  0.00000000000E+00 0.  1.
         12    1    4    4    0    0 -0.46651982377E+01 -0.33361148015E+02  0.53075771865E+02  0.62863087981E+02  0.00000000000E+00 0. -1.
         -5    1    5    5    0  501 -0.44259996224E+02  0.57653841071E+02  0.21845285612E+02  0.76040904515E+02  0.47000000000E+01 0.  1.
         11    1    6    6    0    0  0.88267549233E+00  0.51289268339E+01  0.88477029881E+02  0.88629960075E+02  0.00000000000E+00 0. -1.
        -12    1    6    6    0    0  0.62742308102E+02  0.12046695043E+02  0.39887607250E+02  0.75317602854E+02  0.00000000000E+00 0.  1.
</event>
<event>
12    1  0.2625820E-002  0.2598616E+03  0.7818608E-02  0.1107226E+00
         -2   -1    0    0    0  501 -0.00000000000E+00  0.00000000000E+00  0.10356173789E+03  0.10356173789E+03  0.00000000000E+00 0. -1.
          2   -1    0    0  502    0  0.00000000000E+00 -0.00000000000E+00 -0.65737961434E+03  0.65737961434E+03  0.00000000000E+00 0.  1.
          6    2    1    2  502    0 -0.24191195156E+02  0.18890117523E+03 -0.31071580918E+03  0.40480015961E+03  0.17621006560E+03 0.  0.
         24    2    3    3    0    0  0.80544335860E+01  0.12473528344E+03 -0.29634737351E+03  0.33141362007E+03  0.79934078738E+02 0.  0.
         -6    2    1    2    0  501  0.24191195156E+02 -0.18890117523E+03 -0.24310206726E+03  0.35614119262E+03  0.17739522555E+03 0.  0.
        -24    2    5    5    0    0  0.43802562659E+02 -0.10026772835E+03 -0.22264026022E+03  0.26296786388E+03  0.87241791131E+02 0.  0.
          5    1    3    3  502    0 -0.32245628742E+02  0.64165891793E+02 -0.14368435670E+02  0.73386539544E+02  0.47000000000E+01 0. -1.
        -13    1    4    4    0    0  0.80776239115E-01 -0.45447981977E+01 -0.73632874360E+02  0.73773043193E+02  0.00000000000E+00 0.  1.
         14    1    4    4    0    0  0.79736573468E+01  0.12928008164E+03 -0.22271449915E+03  0.25764057688E+03  0.00000000000E+00 0. -1.
         -5    1    5    5    0  501 -0.19611367503E+02 -0.88633446881E+02 -0.20461807047E+02  0.93173328742E+02  0.47000000000E+01 0.  1.
         13    1    6    6    0    0  0.56916424704E+02 -0.24911280562E+02 -0.82067180798E+02  0.10293237326E+03  0.00000000000E+00 0. -1.
        -14    1    6    6    0    0 -0.13113862046E+02 -0.75356447792E+02 -0.14057307942E+03  0.16003549062E+03  0.00000000000E+00 0.  1.
</event>
<event>
12    1  0.2625820E-002  0.2100700E+03  0.7818608E-02  0.1141511E+00
          2   -1    0    0  502    0  0.00000000000E+00  0.00000000000E+00  0.17724092013E+04  0.17724092013E+04  0.00000000000E+00 0. -1.
         -2   -1    0    0    0  501 -0.00000000000E+00 -0.00000000000E+00 -0.26158489301E+02  0.26158489301E+02  0.00000000000E+00 0.  1.
          6    2    1    2  502    0 -0.95628715082E+02  0.66375229967E+02  0.10776782288E+04  0.10983178722E+04  0.17709110977E+03 0.  0.
         24    2    3    3    0    0  0.78936408379E+01  0.14309230040E+02  0.44360552710E+03  0.45372650736E+03  0.93887252482E+02 0.  0.
         -6    2    1    2    0  501  0.95628715082E+02 -0.66375229967E+02  0.66857248320E+03  0.70024981845E+03  0.17265607618E+03 0.  0.
        -24    2    5    5    0    0  0.85963660014E+02 -0.10904825395E+03  0.57884382445E+03  0.60031122497E+03  0.77666731528E+02 0.  0.
          5    1    3    3  502    0 -0.10352235592E+03  0.52065999927E+02  0.63407270172E+03  0.64459136481E+03  0.47000000000E+01 0. -1.
        -13    1    4    4    0    0 -0.23097591815E+02  0.19247927732E+02  0.46440779790E+02  0.55323842032E+02  0.00000000000E+00 0.  1.
         14    1    4    4    0    0  0.30991232653E+02 -0.49386976919E+01  0.39716474731E+03  0.39840266533E+03  0.00000000000E+00 0. -1.
         -5    1    5    5    0  501  0.96650550683E+01  0.42673023986E+02  0.89728658749E+02  0.99938593479E+02  0.47000000000E+01 0.  1.
         11    1    6    6    0    0  0.11454208602E+02 -0.18519166452E+02  0.25442407472E+03  0.25535420149E+03  0.00000000000E+00 0. -1.
        -12    1    6    6    0    0  0.74509451411E+02 -0.90529087500E+02  0.32441974973E+03  0.34495702348E+03  0.00000000000E+00 0.  1.
</event>
<event>
12    1  0.2625820E-002  0.2066129E+03  0.7818608E-02  0.1144277E+00
          1   -1    0    0  502    0  0.00000000000E+00  0.00000000000E+00  0.36330621859E+03  0.36330621859E+03  0.00000000000E+00 0.  1.
         -1   -1    0    0    0  501 -0.00000000000E+00 -0.00000000000E+00 -0.11907060137E+03  0.11907060137E+03  0.00000000000E+00 0. -1.
          6    2    1    2  502    0  0.92948954984E+02 -0.63798796991E+02  0.95041377518E+02  0.22834386363E+03  0.17435097329E+03 0.  0.
         24    2    3    3    0    0  0.12176361761E+03 -0.30599427041E+02  0.10301032532E+03  0.18342085086E+03  0.85260646827E+02 0.  0.
         -6    2    1    2    0  501 -0.92948954984E+02  0.63798796991E+02  0.14919423970E+03  0.25403295634E+03  0.17194192920E+03 0.  0.
        -24    2    5    5    0    0 -0.88682480547E+02  0.58202383576E+02  0.24223212734E+02  0.12877574007E+03  0.68879077990E+02 0.  0.
          5    1    3    3  502    0 -0.28814662627E+02 -0.33199369951E+02 -0.79689478013E+01  0.44923012772E+02  0.47000000000E+01 0. -1.
        -13    1    4    4    0    0  0.26926474035E+02 -0.48005738220E+02  0.43037496924E+02  0.69869965275E+02  0.00000000000E+00 0.  1.
         14    1    4    4    0    0  0.94837143576E+02  0.17406311180E+02  0.59972828395E+02  0.11355088558E+03  0.00000000000E+00 0. -1.
         -5    1    5    5    0  501 -0.42664744372E+01  0.55964134153E+01  0.12497102696E+03  0.12525721627E+03  0.47000000000E+01 0.  1.
         11    1    6    6    0    0  0.20090856881E+01  0.47983104162E+01 -0.15447851198E+02  0.16300193704E+02  0.00000000000E+00 0. -1.
        -12    1    6    6    0    0 -0.90691566235E+02  0.53404073160E+02  0.39671063932E+02  0.11247554636E+03  0.00000000000E+00 0.  1.
</event>
<event>
12    1  0.2625820E-002  0.1774376E+03  0.7818608E-02  0.1170306E+00
          1   -1    0    0  502    0  0.00000000000E+00  0.00000000000E+00  0.13684314457E+03  0.13684314457E+03  0.00000000000E+00 0. -1.
         -1   -1    0    0    0  501 -0.00000000000E+00 -0.00000000000E+00 -0.29496688413E+03  0.29496688413E+03  0.00000000000E+00 0.  1.
          6    2    1    2  502    0  0.19235634100E+02 -0.39717236457E+02 -0.18023921886E+03  0.25274116377E+03  0.17159385583E+03 0.  0.
         24    2    3    3    0    0  0.71590289683E+02 -0.24582215259E+02 -0.71432787780E+02  0.13095853664E+03  0.79486101076E+02 0.  0.
         -6    2    1    2    0  501 -0.19235634100E+02  0.39717236457E+02  0.22115479297E+02  0.17906886493E+03  0.17213104157E+03 0.  0.
        -24    2    5    5    0    0 -0.23687931586E+01  0.26370148879E+02 -0.47295053016E+02  0.10625027481E+03  0.91385463425E+02 0.  0.
          5    1    3    3  502    0 -0.52354655583E+02 -0.15135021198E+02 -0.10880643108E+03  0.12178262714E+03  0.47000000000E+01 0. -1.
        -13    1    4    4    0    0  0.38622724198E+02 -0.33476515784E+02 -0.80747672323E+02  0.95564525422E+02  0.00000000000E+00 0.  1.
         14    1    4    4    0    0  0.32967565485E+02  0.88943005253E+01  0.93148845438E+01  0.35394011215E+02  0.00000000000E+00 0. -1.
         -5    1    5    5    0  501 -0.16866840942E+02  0.13347087578E+02  0.69410532314E+02  0.72818590114E+02  0.47000000000E+01 0.  1.
         11    1    6    6    0    0 -0.15873631970E+02  0.51589594254E+02 -0.36950640502E+01  0.54102790368E+02  0.00000000000E+00 0. -1.
        -12    1    6    6    0    0  0.13504838811E+02 -0.25219445375E+02 -0.43599988966E+02  0.52147484447E+02  0.00000000000E+00 0.  1.
</event>
<event>
12    1  0.2625820E-002  0.2095990E+03  0.7818608E-02  0.1141884E+00
         -1   -1    0    0    0  501 -0.00000000000E+00  0.00000000000E+00  0.51426216649E+02  0.51426216649E+02  0.00000000000E+00 0. -1.
          1   -1    0    0  502    0  0.00000000000E+00 -0.00000000000E+00 -0.95488317573E+03  0.95488317573E+03  0.00000000000E+00 0.  1.
          6    2    1    2  502    0  0.28577239102E+01 -0.11958844300E+03 -0.61560999928E+03  0.65040626142E+03  0.17246179692E+03 0.  0.
         24    2    3    3    0    0 -0.78392108418E+01  0.85335533222E+01 -0.23723817251E+03  0.25076016843E+03  0.80401721455E+02 0.  0.
         -6    2    1    2    0  501 -0.28577239102E+01  0.11958844300E+03 -0.28784695980E+03  0.35590313096E+03  0.17176030995E+03 0.  0.
        -24    2    5    5    0    0 -0.57423385008E+02  0.44925142706E+02 -0.10212040317E+03  0.14837370263E+03  0.79186269621E+02 0.  0.
          5    1    3    3  502    0  0.10696934752E+02 -0.12812199633E+03 -0.37837182677E+03  0.39964609300E+03  0.47000000000E+01 0. -1.
        -13    1    4    4    0    0 -0.38894198809E+02  0.24846529916E+02 -0.13435164066E+03  0.14205798851E+03  0.00000000000E+00 0.  1.
         14    1    4    4    0    0  0.31054987968E+02 -0.16312976594E+02 -0.10288653185E+03  0.10870217992E+03  0.00000000000E+00 0. -1.
         -5    1    5    5    0  501  0.54565661098E+02  0.74663300297E+02 -0.18572655663E+03  0.20752942832E+03  0.47000000000E+01 0.  1.
         11    1    6    6    0    0 -0.63256863851E+01  0.52609887329E+02 -0.34338980009E+02  0.63142537968E+02  0.00000000000E+00 0. -1.
        -12    1    6    6    0    0 -0.51097698623E+02 -0.76847446223E+01 -0.67781423160E+02  0.85231164664E+02  0.00000000000E+00 0.  1.
</event>
<event>
12    1  0.2625820E-002  0.1795628E+03  0.7818608E-02  0.1168227E+00
         -2   -1    0    0    0  501 -0.00000000000E+00  0.00000000000E+00  0.24876342598E+02  0.24876342598E+02  0.00000000000E+00 0. -1.
          2   -1    0    0  502    0  0.00000000000E+00 -0.00000000000E+00 -0.14095721749E+04  0.14095721749E+04  0.00000000000E+00 0.  1.
          6    2    1    2  502    0 -0.51876814566E+02  0.63765165317E+01 -0.48804341565E+03  0.51994717316E+03  0.17154248298E+03 0.  0.
         24    2    3    3    0    0  0.11954468340E+01  0.62218580835E+02 -0.28094642480E+03  0.29893528503E+03  0.80986604661E+02 0.  0.
         -6    2    1    2    0  501  0.51876814566E+02 -0.63765165317E+01 -0.89665241667E+03  0.91450134436E+03  0.17203281272E+03 0.  0.
        -24    2    5    5    0    0  0.92397355994E+02 -0.38341940713E+02 -0.65322640346E+03  0.66561981324E+03  0.79609206706E+02 0.  0.
          5    1    3    3  502    0 -0.53072261400E+02 -0.55842064304E+02 -0.20709699086E+03  0.22101188814E+03  0.47000000000E+01 0. -1.
        -13    1    4    4    0    0  0.53557808134E+01  0.15593860003E+01 -0.18666723451E+03  0.18675056228E+03  0.00000000000E+00 0.  1.
         14    1    4    4    0    0 -0.41603339793E+01  0.60659194835E+02 -0.94279190292E+02  0.11218472275E+03  0.00000000000E+00 0. -1.
         -5    1    5    5    0  501 -0.40520541428E+02  0.31965424181E+02 -0.24342601322E+03  0.24888153112E+03  0.47000000000E+01 0.  1.
         11    1    6    6    0    0 -0.23246042028E+01 -0.32860965450E+02 -0.17406225480E+03  0.17715223787E+03  0.00000000000E+00 0. -1.
        -12    1    6    6    0    0  0.94721960197E+02 -0.54809752622E+01 -0.47916414866E+03  0.48846757538E+03  0.00000000000E+00 0.  1.
</event>
<event>
12    1  0.2947913E-002  0.2097681E+03  0.7818608E-02  0.1141750E+00
          2   -1    0    0  502    0  0.00000000000E+00  0.00000000000E+00  0.69970521900E+03  0.69970521900E+03  0.00000000000E+00 0.  1.
         -2   -1    0    0    0  501 -0.00000000000E+00 -0.00000000000E+00 -0.66911417683E+02  0.66911417683E+02  0.00000000000E+00 0. -1.
          6    2    1    2  502    0 -0.11851531929E+03 -0.11877576617E+02  0.40967085022E+03  0.46002176856E+03  0.17205482934E+03 0.  0.
         24    2    3    3    0    0 -0.41853350001E+02  0.55307837194E+02  0.19135856809E+03  0.21903778592E+03  0.80924596484E+02 0.  0.
         -6    2    1    2    0  501  0.11851531929E+03  0.11877576617E+02  0.22312295110E+03  0.30659486813E+03  0.17329051941E+03 0.  0.
        -24    2    5    5    0    0  0.72852245955E+02  0.76091939872E+02  0.13848584039E+03  0.19086185112E+03  0.78437778978E+02 0.  0.
          5    1    3    3  502    0 -0.76661969288E+02 -0.67185413811E+02  0.21831228213E+03  0.24098398264E+03  0.47000000000E+01 0. -1.
        -13    1    4    4    0    0 -0.61231283703E+02  0.42868650835E+02  0.17638945662E+03  0.19157304543E+03  0.00000000000E+00 0.  1.
         14    1    4    4    0    0  0.19377933701E+02  0.12439186360E+02  0.14969111470E+02  0.27464740487E+02  0.00000000000E+00 0. -1.
         -5    1    5    5    0  501  0.45663073334E+02 -0.64214363255E+02  0.84637110713E+02  0.11573301700E+03  0.47000000000E+01 0.  1.
         13    1    6    6    0    0  0.57838993537E+02  0.23421541115E+02  0.29789510169E+02  0.69147181270E+02  0.00000000000E+00 0. -1.
        -14    1    6    6    0    0  0.15013252418E+02  0.52670398757E+02  0.10869633022E+03  0.12171466985E+03  0.00000000000E+00 0.  1.
</event>
<event>
12    1  0.2625820E-002  0.2347632E+03  0.7818608E-02  0.1123331E+00
          1   -1    0    0  502    0  0.00000000000E+00  0.00000000000E+00  0.53933263756E+03  0.53933263756E+03  0.00000000000E+00 0.  1.
         -1   -1    0    0    0  501 -0.00000000000E+00 -0.00000000000E+00 -0.10249894634E+03  0.10249894634E+03  0.00000000000E+00 0. -1.
          6    2    1    2  502    0 -0.10078453280E+03 -0.12351239787E+03  0.23637899956E+03  0.33339076472E+03  0.17280490759E+03 0.  0.
         24    2    3    3    0    0 -0.63385027970E+01 -0.12220981011E+03  0.10924744210E+03  0.17494117583E+03  0.60778261641E+02 0.  0.
         -6    2    1    2    0  501  0.10078453280E+03  0.12351239787E+03  0.20045469166E+03  0.30844081919E+03  0.17187443397E+03 0.  0.
        -24    2    5    5    0    0  0.10521967403E+03  0.11502675788E+03  0.89237495194E+02  0.19671333218E+03  0.80190209348E+02 0.  0.
          5    1    3    3  502    0 -0.94446030002E+02 -0.13025877594E+01  0.12713155746E+03  0.15844958889E+03  0.47000000000E+01 0. -1.
        -11    1    4    4    0    0 -0.41873021512E+01 -0.87439869278E+01  0.41833249666E+02  0.42941955991E+02  0.00000000000E+00 0.  1.
         12    1    4    4    0    0 -0.21512006457E+01 -0.11346582319E+03  0.67414192436E+02  0.13199921984E+03  0.00000000000E+00 0. -1.
         -5    1    5    5    0  501 -0.44351412355E+01  0.84856399916E+01  0.11121719647E+03  0.11172748701E+03  0.47000000000E+01 0.  1.
         13    1    6    6    0    0  0.11149811854E+03  0.84345368122E+02  0.88350180174E+02  0.16538357203E+03  0.00000000000E+00 0. -1.
        -14    1    6    6    0    0 -0.62784445017E+01  0.30681389760E+02  0.88731502074E+00  0.31329760148E+02  0.00000000000E+00 0.  1.
</event>
<event>
12    1  0.2625820E-002  0.4827109E+03  0.7818608E-02  0.1018393E+00
          1   -1    0    0  502    0  0.00000000000E+00  0.00000000000E+00  0.19074438250E+04  0.19074438250E+04  0.00000000000E+00 0. -1.
         -1   -1    0    0    0  501 -0.00000000000E+00 -0.00000000000E+00 -0.15332111029E+03  0.15332111029E+03  0.00000000000E+00 0.  1.
          6    2    1    2  502    0  0.23867191477E+03  0.38275532844E+03  0.13417598258E+04  0.14259871404E+04  0.17220328081E+03 0.  0.
         24    2    3    3    0    0  0.12009338344E+03  0.31379836800E+03  0.94886409333E+03  0.10098079997E+04  0.80481626439E+02 0.  0.
         -6    2    1    2    0  501 -0.23867191477E+03 -0.38275532844E+03  0.41236288891E+03  0.63477779495E+03  0.17156273624E+03 0.  0.
        -24    2    5    5    0    0 -0.18433527357E+03 -0.32483176227E+03  0.40226931459E+03  0.55458066074E+03  0.79018611324E+02 0.  0.
          5    1    3    3  502    0  0.11857853133E+03  0.68956960439E+02  0.39289573251E+03  0.41617914064E+03  0.47000000000E+01 0. -1.
        -11    1    4    4    0    0 -0.71343584907E+01  0.50301985468E+02  0.18400210649E+03  0.19088730708E+03  0.00000000000E+00 0.  1.
         12    1    4    4    0    0  0.12722774193E+03  0.26349638253E+03  0.76486198684E+03  0.81892069264E+03  0.00000000000E+00 0. -1.
         -5    1    5    5    0  501 -0.54336641192E+02 -0.57923566165E+02  0.10093574316E+02  0.80197134212E+02  0.47000000000E+01 0.  1.
         11    1    6    6    0    0 -0.83226976646E+02 -0.13588893151E+03  0.22907118933E+03  0.27904505215E+03  0.00000000000E+00 0. -1.
        -12    1    6    6    0    0 -0.10110829693E+03 -0.18894283076E+03  0.17319812526E+03  0.27553560858E+03  0.00000000000E+00 0.  1.
</event>
<event>
12    1  0.2625820E-002  0.2743575E+03  0.7818608E-02  0.1098811E+00
          2   -1    0    0  502    0  0.00000000000E+00  0.00000000000E+00  0.32308317002E+03  0.32308317002E+03  0.00000000000E+00 0. -1.
         -2   -1    0    0    0  501 -0.00000000000E+00 -0.00000000000E+00 -0.23300562219E+03  0.23300562219E+03  0.00000000000E+00 0.  1.
          6    2    1    2  502    0  0.14865271665E+02  0.21103614593E+03  0.47727233643E+02  0.28000766661E+03  0.17711344764E+03 0.  0.
         24    2    3    3    0    0  0.13592142774E+01  0.36517096273E+02  0.47446540588E+02  0.10490346600E+03  0.86129072800E+02 0.  0.
         -6    2    1    2    0  501 -0.14865271665E+02 -0.21103614593E+03  0.42350314183E+02  0.27608112560E+03  0.17224984066E+03 0.  0.
        -24    2    5    5    0    0  0.43309439939E+02 -0.18498068435E+03  0.58341742029E+02  0.21019486062E+03  0.68443841189E+02 0.  0.
          5    1    3    3  502    0  0.13506057388E+02  0.17451904966E+03  0.28069305484E+00  0.17510420061E+03  0.47000000000E+01 0. -1.
        -13    1    4    4    0    0  0.26673894322E+02  0.28360920724E+02  0.63024785467E+02  0.74080780542E+02  0.00000000000E+00 0.  1.
         14    1    4    4    0    0 -0.25314680045E+02  0.81561755489E+01 -0.15578244879E+02  0.30822685458E+02  0.00000000000E+00 0. -1.
         -5    1    5    5    0  501 -0.58174711604E+02 -0.26055461581E+02 -0.15991427845E+02  0.65886264980E+02  0.47000000000E+01 0.  1.
         11    1    6    6    0    0  0.22417837384E+02 -0.14795860064E+03  0.16511511803E+02  0.15055542819E+03  0.00000000000E+00 0. -1.
        -12    1    6    6    0    0  0.20891602555E+02 -0.37022083718E+02  0.41830230226E+02  0.59639432433E+02  0.00000000000E+00 0.  1.
</event>
<event>
12    1  0.2625820E-002  0.2498837E+03  0.7818608E-02  0.1113378E+00
          2   -1    0    0  502    0  0.00000000000E+00  0.00000000000E+00  0.35454497524E+03  0.35454497524E+03  0.00000000000E+00 0.  1.
         -2   -1    0    0    0  501 -0.00000000000E+00 -0.00000000000E+00 -0.18989977714E+03  0.18989977714E+03  0.00000000000E+00 0. -1.
          6    2    1    2  502    0  0.17954159320E+03  0.22716246391E+02  0.15558341638E+03  0.29415614715E+03  0.17196054173E+03 0.  0.
         24    2    3    3    0    0  0.10458513619E+03  0.62147380479E+02  0.15088463172E+03  0.20920055074E+03  0.78729605168E+02 0.  0.
         -6    2    1    2    0  501 -0.17954159320E+03 -0.22716246391E+02  0.90617817249E+01  0.25028860524E+03  0.17265879208E+03 0.  0.
        -24    2    5    5    0    0 -0.62470852626E+02 -0.42873996965E+02  0.55213842039E+02  0.12275823286E+03  0.79247891698E+02 0.  0.
          5    1    3    3  502    0  0.74956457012E+02 -0.39431134088E+02  0.46987846596E+01  0.84955596405E+02  0.47000000000E+01 0. -1.
        -13    1    4    4    0    0 -0.10015843919E+02 -0.52558603351E+01  0.17751981974E+02  0.21049324485E+02  0.00000000000E+00 0.  1.
         14    1    4    4    0    0  0.11460098011E+03  0.67403240814E+02  0.13313264975E+03  0.18815122626E+03  0.00000000000E+00 0. -1.
         -5    1    5    5    0  501 -0.11707074057E+03  0.20157750575E+02 -0.46152060314E+02  0.12753037237E+03  0.47000000000E+01 0.  1.
         11    1    6    6    0    0 -0.37268233314E+02 -0.29040015518E+02 -0.12772788266E+02  0.48942699514E+02  0.00000000000E+00 0. -1.
        -12    1    6    6    0    0 -0.25202619312E+02 -0.13833981447E+02  0.67986630306E+02  0.73815533346E+02  0.00000000000E+00 0.  1.
</event>
<event>
12    1  0.2625820E-002  0.2698761E+03  0.7818608E-02  0.1101351E+00
          1   -1    0    0  502    0  0.00000000000E+00  0.00000000000E+00  0.32149595861E+03  0.32149595861E+03  0.00000000000E+00 0. -1.
         -1   -1    0    0    0  501 -0.00000000000E+00 -0.00000000000E+00 -0.48674335012E+03  0.48674335012E+03  0.00000000000E+00 0.  1.
          6    2    1    2  502    0 -0.20210680015E+03  0.51708778980E+02 -0.37812005816E+03  0.46466124350E+03  0.17150608251E+03 0.  0.
         24    2    3    3    0    0 -0.16022559339E+03  0.41968004955E+02 -0.37523503578E+03  0.42130998617E+03  0.96266391580E+02 0.  0.
         -6    2    1    2    0  501  0.20210680015E+03 -0.51708778980E+02  0.21287266665E+03  0.34357806523E+03  0.17090979552E+03 0.  0.
        -24    2    5    5    0    0  0.20216753563E+03 -0.28906501193E+02  0.12487172280E+03  0.25254947807E+03  0.80504617529E+02 0.  0.
          5    1    3    3  502    0 -0.41881206763E+02  0.97407740254E+01 -0.28850223777E+01  0.43351257337E+02  0.47000000000E+01 0. -1.
        -13    1    4    4    0    0 -0.16483122539E+03  0.16986090137E+02 -0.33469937123E+03  0.37347226032E+03  0.00000000000E+00 0.  1.
         14    1    4    4    0    0  0.46056319999E+01  0.24981914818E+02 -0.40535664550E+02  0.47837725851E+02  0.00000000000E+00 0. -1.
         -5    1    5    5    0  501 -0.60735477634E-01 -0.22802277787E+02  0.88000943853E+02  0.91028587159E+02  0.47000000000E+01 0.  1.
         11    1    6    6    0    0  0.41584615823E+02 -0.39914124935E+02  0.43351827022E+02  0.72123495122E+02  0.00000000000E+00 0. -1.
        -12    1    6    6    0    0  0.16058291981E+03  0.11007623742E+02  0.81519895776E+02  0.18042598295E+03  0.00000000000E+00 0.  1.
</event>
<event>
12    1  0.2625820E-002  0.2929184E+03  0.7818608E-02  0.1088835E+00
          1   -1    0    0  502    0  0.00000000000E+00  0.00000000000E+00  0.76573865207E+03  0.76573865207E+03  0.00000000000E+00 0.  1.
         -1   -1    0    0    0  501 -0.00000000000E+00 -0.00000000000E+00 -0.17579604305E+03  0.17579604305E+03  0.00000000000E+00 0. -1.
          6    2    1    2  502    0 -0.19693625812E+02  0.23662364765E+03  0.11535028069E+02  0.29321873446E+03  0.17165541016E+03 0.  0.
         24    2    3    3    0    0 -0.73625351204E+01  0.14897274328E+03  0.73087414457E+02  0.18530430954E+03  0.82151273995E+02 0.  0.
         -6    2    1    2    0  501  0.19693625812E+02 -0.23662364765E+03  0.57840758095E+03  0.64831596066E+03  0.17140497550E+03 0.  0.
        -24    2    5    5    0    0 -0.11076894790E+02 -0.18737805593E+03  0.29364153502E+03  0.35765164542E+03  0.80349952956E+02 0.  0.
          5    1    3    3  502    0 -0.12331090691E+02  0.87650904367E+02 -0.61552386388E+02  0.10791442491E+03  0.47000000000E+01 0. -1.
        -13    1    4    4    0    0 -0.24611825761E+02  0.61639493957E+02 -0.54453542591E+01  0.66594452213E+02  0.00000000000E+00 0.  1.
         14    1    4    4    0    0  0.17249290640E+02  0.87333249326E+02  0.78532768716E+02  0.11870985733E+03  0.00000000000E+00 0. -1.
         -5    1    5    5    0  501  0.30770520602E+02 -0.49245591721E+02  0.28476604593E+03  0.29066431524E+03  0.47000000000E+01 0.  1.
         13    1    6    6    0    0  0.29797288415E+02 -0.12872375360E+03  0.20294944776E+03  0.24216969564E+03  0.00000000000E+00 0. -1.
        -14    1    6    6    0    0 -0.40874183205E+02 -0.58654302329E+02  0.90692087263E+02  0.11548194979E+03  0.00000000000E+00 0.  1.
</event>
<event>
12    1  0.2625820E-002  0.1734689E+03  0.7818608E-02  0.1174278E+00
          1   -1    0    0  502    0  0.00000000000E+00  0.00000000000E+00  0.26274054130E+03  0.26274054130E+03  0.00000000000E+00 0.  1.
         -1   -1    0    0    0  501 -0.00000000000E+00 -0.00000000000E+00 -0.15620534612E+03  0.15620534612E+03  0.00000000000E+00 0. -1.
          6    2    1    2  502    0  0.30543047637E+01 -0.19748718040E+02 -0.54952541300E+02  0.18187568299E+03  0.17221974808E+03 0.  0.
         24    2    3    3    0    0 -0.16502400212E+02 -0.60956567177E+02  0.10859225375E+02  0.10166452309E+03  0.78928576480E+02 0.  0.
         -6    2    1    2    0  501 -0.30543047637E+01  0.19748718040E+02  0.16148773648E+03  0.23707020442E+03  0.17240838770E+03 0.  0.
        -24    2    5    5    0    0  0.55823980164E+02  0.15031085701E+02  0.48299982524E+02  0.10931079719E+03  0.79206765946E+02 0.  0.
          5    1    3    3  502    0  0.19556704976E+02  0.41207849137E+02 -0.65811766675E+02  0.80211159902E+02  0.47000000000E+01 0. -1.
        -13    1    4    4    0    0 -0.39793917039E+02 -0.40614214886E+02 -0.17719299304E+02  0.59557063829E+02  0.00000000000E+00 0.  1.
         14    1    4    4    0    0  0.23291516826E+02 -0.20342352290E+02  0.28578524679E+02  0.42107459263E+02  0.00000000000E+00 0. -1.
         -5    1    5    5    0  501 -0.58878284928E+02  0.47176323391E+01  0.11318775396E+03  0.12775940723E+03  0.47000000000E+01 0.  1.
         11    1    6    6    0    0  0.40706613243E+02  0.35902650740E+02  0.60086887535E+02  0.80971987413E+02  0.00000000000E+00 0. -1.
        -12    1    6    6    0    0  0.15117366921E+02 -0.20871565040E+02 -0.11786905011E+02  0.28338809776E+02  0.00000000000E+00 0.  1.
</event>
<event>
12    1  0.2625820E-002  0.2158563E+03  0.7818608E-02  0.1137011E+00
          2   -1    0    0  502    0  0.00000000000E+00  0.00000000000E+00  0.64278065581E+03  0.64278065581E+03  0.00000000000E+00 0.  1.
         -2   -1    0    0    0  501 -0.00000000000E+00 -0.00000000000E+00 -0.10970791981E+03  0.10970791981E+03  0.00000000000E+00 0. -1.
          6    2    1    2  502    0 -0.12661521578E+03  0.19821256058E+02  0.48873002458E+02  0.22307894303E+03  0.17592995594E+03 0.  0.
         24    2    3    3    0    0 -0.10784911651E+03  0.74159592645E+02  0.58658409108E+02  0.16457539196E+03  0.80704235128E+02 0.  0.
         -6    2    1    2    0  501  0.12661521578E+03 -0.19821256058E+02  0.48419973353E+03  0.52940963258E+03  0.17146685411E+03 0.  0.
        -24    2    5    5    0    0  0.56512617833E+02 -0.76009866848E+02  0.27754203473E+03  0.30401879715E+03  0.80166527604E+02 0.  0.
          5    1    3    3  502    0 -0.18766099270E+02 -0.54338336587E+02 -0.97854066498E+01  0.58503551073E+02  0.47000000000E+01 0. -1.
        -13    1    4    4    0    0 -0.73709868128E+02  0.79496561387E+02  0.15852552627E+02  0.10956345813E+03  0.00000000000E+00 0.  1.
         14    1    4    4    0    0 -0.34139248377E+02 -0.53369687417E+01  0.42805856481E+02  0.55011933835E+02  0.00000000000E+00 0. -1.
         -5    1    5    5    0  501  0.70102597943E+02  0.56188610790E+02  0.20665769881E+03  0.22539083543E+03  0.47000000000E+01 0.  1.
         13    1    6    6    0    0 -0.19169024048E+02 -0.84848454864E+01  0.69099757889E+02  0.72209560490E+02  0.00000000000E+00 0. -1.
        -14    1    6    6    0    0  0.75681641881E+02 -0.67525021361E+02  0.20844227684E+03  0.23180923666E+03  0.00000000000E+00 0.  1.
</event>
<event>
12    1  0.2625820E-002  0.1901439E+03  0.7818608E-02  0.1158332E+00
          2   -1    0    0  502    0  0.00000000000E+00  0.00000000000E+00  0.62216579726E+03  0.62216579726E+03  0.00000000000E+00 0.  1.
         -2   -1    0    0    0  501 -0.00000000000E+00 -0.00000000000E+00 -0.79180127932E+02  0.79180127932E+02  0.00000000000E+00 0. -1.
          6    2    1    2  502    0 -0.77405273383E+02  0.29953144023E+00  0.45119053909E+03  0.48918407913E+03  0.17244272857E+03 0.  0.
         24    2    3    3    0    0 -0.96129576337E+02  0.29871124947E+02  0.42949831774E+03  0.44773867973E+03  0.76602485836E+02 0.  0.
         -6    2    1    2    0  501  0.77405273383E+02 -0.29953144023E+00  0.91795130237E+02  0.21216184607E+03  0.17491322684E+03 0.  0.
        -24    2    5    5    0    0  0.61091425746E+02  0.19249141839E+01 -0.12375343020E+02  0.10659353983E+03  0.86447475524E+02 0.  0.
          5    1    3    3  502    0  0.18724302954E+02 -0.29571593507E+02  0.21692221354E+02  0.41445399394E+02  0.47000000000E+01 0. -1.
        -11    1    4    4    0    0 -0.72880649344E+02 -0.15723065368E+02  0.23013965877E+03  0.24191541160E+03  0.00000000000E+00 0.  1.
         12    1    4    4    0    0 -0.23248926992E+02  0.45594190316E+02  0.19935865897E+03  0.20582326813E+03  0.00000000000E+00 0. -1.
         -5    1    5    5    0  501  0.16313847637E+02 -0.22244456241E+01  0.10417047326E+03  0.10556830624E+03  0.47000000000E+01 0.  1.
         13    1    6    6    0    0  0.60146018541E+02 -0.78384953070E+01  0.26725195307E+02  0.66281382147E+02  0.00000000000E+00 0. -1.
        -14    1    6    6    0    0  0.94540720450E+00  0.97634094908E+01 -0.39100538327E+02  0.40312157684E+02  0.00000000000E+00 0.  1.
</event>
<event>
12    1  0.2625820E-002  0.1999623E+03  0.7818608E-02  0.1149771E+00
         -1   -1    0    0    0  501 -0.00000000000E+00  0.00000000000E+00  0.13820618832E+04  0.13820618832E+04  0.00000000000E+00 0. -1.
          1   -1    0    0  502    0  0.00000000000E+00 -0.00000000000E+00 -0.10097171389E+03  0.10097171389E+03  0.00000000000E+00 0.  1.
          6    2    1    2  502    0 -0.96091097589E+02 -0.35281443666E+02  0.12663721924E+04  0.12819758086E+04  0.17112908775E+03 0.  0.
         24    2    3    3    0    0 -0.64229641660E+02  0.25801172407E+02  0.10455819795E+04  0.10506391567E+04  0.76222138614E+02 0.  0.
         -6    2    1    2    0  501  0.96091097589E+02  0.35281443666E+02  0.14717976907E+02  0.20105778856E+03  0.17242197131E+03 0.  0.
        -24    2    5    5    0    0  0.13494042724E+03  0.30347591305E+02  0.34889196625E+01  0.16004809409E+03  0.80456973975E+02 0.  0.
          5    1    3    3  502    0 -0.31861455929E+02 -0.61082616073E+02  0.22079021298E+03  0.23133665189E+03  0.47000000000E+01 0. -1.
        -11    1    4    4    0    0 -0.67631259619E+01  0.31777298054E+02  0.65518716655E+03  0.65599219489E+03  0.00000000000E+00 0.  1.
         12    1    4    4    0    0 -0.57466515698E+02 -0.59761256473E+01  0.39039481291E+03  0.39464696179E+03  0.00000000000E+00 0. -1.
         -5    1    5    5    0  501 -0.38849329649E+02  0.49338523610E+01  0.11229057245E+02  0.41009694463E+02  0.47000000000E+01 0.  1.
         11    1    6    6    0    0  0.77182573325E+02  0.49903924626E+02  0.25228108802E+02  0.95310066582E+02  0.00000000000E+00 0. -1.
        -12    1    6    6    0    0  0.57757853914E+02 -0.19556333321E+02 -0.21739189140E+02  0.64738027512E+02  0.00000000000E+00 0.  1.
</event>
<event>
12    1  0.2625820E-002  0.1933828E+03  0.7818608E-02  0.1155445E+00
         -2   -1    0    0    0  501 -0.00000000000E+00  0.00000000000E+00  0.13191888893E+03  0.13191888893E+03  0.00000000000E+00 0.  1.
          2   -1    0    0  502    0  0.00000000000E+00 -0.00000000000E+00 -0.28388532447E+03  0.28388532447E+03  0.00000000000E+00 0. -1.
          6    2    1    2  502    0 -0.14005311963E+02 -0.86711815902E+02 -0.68180693008E+02  0.20508234506E+03  0.17232258579E+03 0.  0.
         24    2    3    3    0    0 -0.46325260100E+02 -0.45004994414E+02  0.15274196906E+02  0.10623475198E+03  0.82952047544E+02 0.  0.
         -6    2    1    2    0  501  0.14005311963E+02  0.86711815902E+02 -0.83785742532E+02  0.21072186834E+03  0.17224565993E+03 0.  0.
        -24    2    5    5    0    0 -0.40473392192E+02  0.42854064833E+02  0.31892470910E+01  0.99016137265E+02  0.79495017414E+02 0.  0.
          5    1    3    3  502    0  0.32319948137E+02 -0.41706821488E+02 -0.83454889913E+02  0.98847593075E+02  0.47000000000E+01 0. -1.
        -13    1    4    4    0    0 -0.34838476641E+01  0.18707562983E+02 -0.14461514101E+02  0.23900742612E+02  0.00000000000E+00 0.  1.
         14    1    4    4    0    0 -0.42841412436E+02 -0.63712557398E+02  0.29735711006E+02  0.82334009369E+02  0.00000000000E+00 0. -1.
         -5    1    5    5    0  501  0.54478704155E+02  0.43857751069E+02 -0.86974989623E+02  0.11170573108E+03  0.47000000000E+01 0.  1.
         11    1    6    6    0    0 -0.13844733086E+02 -0.20045362330E+02 -0.14641800894E+02  0.28423151102E+02  0.00000000000E+00 0. -1.
        -12    1    6    6    0    0 -0.26628659105E+02  0.62899427163E+02  0.17831047985E+02  0.70592986163E+02  0.00000000000E+00 0.  1.
</event>
<event>
12    1  0.2625820E-002  0.2262670E+03  0.7818608E-02  0.1129295E+00
          2   -1    0    0  502    0  0.00000000000E+00  0.00000000000E+00  0.81242313593E+03  0.81242313593E+03  0.00000000000E+00 0.  1.
         -2   -1    0    0    0  501 -0.00000000000E+00 -0.00000000000E+00 -0.10214460360E+03  0.10214460360E+03  0.00000000000E+00 0. -1.
          6    2    1    2  502    0  0.81520406915E+02  0.12196541748E+03  0.63825849654E+03  0.67721260367E+03  0.17240029686E+03 0.  0.
         24    2    3    3    0    0 -0.69989138097E+01  0.79865977629E+02  0.46052136920E+03  0.47418401107E+03  0.79642863381E+02 0.  0.
         -6    2    1    2    0  501 -0.81520406915E+02 -0.12196541748E+03  0.72020035795E+02  0.23735513586E+03  0.17213202828E+03 0.  0.
        -24    2    5    5    0    0 -0.73358250324E+02 -0.49230544771E+02 -0.17758209771E+02  0.12142754689E+03  0.81389284923E+02 0.  0.
          5    1    3    3  502    0  0.88519320724E+02  0.42099439851E+02  0.17773712733E+03  0.20302859259E+03  0.47000000000E+01 0. -1.
        -11    1    4    4    0    0 -0.19014577337E+02  0.45212664552E+02  0.40293593520E+03  0.40591022045E+03  0.00000000000E+00 0.  1.
         12    1    4    4    0    0  0.12015663527E+02  0.34653313076E+02  0.57585434000E+02  0.68273790624E+02  0.00000000000E+00 0. -1.
         -5    1    5    5    0  501 -0.81621565906E+01 -0.72734872709E+02  0.89778245566E+02  0.11592758897E+03  0.47000000000E+01 0.  1.
         11    1    6    6    0    0 -0.65171125658E+02 -0.71031646467E+02 -0.18361036934E+02  0.98132044189E+02  0.00000000000E+00 0. -1.
        -12    1    6    6    0    0 -0.81871246660E+01  0.21801101697E+02  0.60282716312E+00  0.23295502701E+02  0.00000000000E+00 0.  1.
</event>
<event>
12    1  0.2625820E-002  0.1901292E+03  0.7818608E-02  0.1158345E+00
         -2   -1    0    0    0  501 -0.00000000000E+00  0.00000000000E+00  0.16617750546E+02  0.16617750546E+02  0.00000000000E+00 0.  1.
          2   -1    0    0  502    0  0.00000000000E+00 -0.00000000000E+00 -0.26299370014E+04  0.26299370014E+04  0.00000000000E+00 0. -1.
          6    2    1    2  502    0  0.70976189930E+02 -0.42385610688E+02 -0.74922166240E+03  0.77265420411E+03  0.16978592460E+03 0.  0.
         24    2    3    3    0    0  0.10175874538E+03  0.80641914156E+01 -0.53588357652E+03  0.55123158300E+03  0.79152871535E+02 0.  0.
         -6    2    1    2    0  501 -0.70976189930E+02  0.42385610688E+02 -0.18640975885E+04  0.18739005478E+04  0.17265365434E+03 0.  0.
        -24    2    5    5    0    0 -0.85094177330E+02  0.26860044837E+01 -0.17134542695E+04  0.17174049381E+04  0.79410039175E+02 0.  0.
          5    1    3    3  502    0 -0.30782555448E+02 -0.50449802103E+02 -0.21333808588E+03  0.22142262111E+03  0.47000000000E+01 0. -1.
        -11    1    4    4    0    0  0.52682524227E+02 -0.33820285837E+02 -0.31289847211E+03  0.31909984948E+03  0.00000000000E+00 0.  1.
         12    1    4    4    0    0  0.49076221151E+02  0.41884477252E+02 -0.22298510441E+03  0.23213173352E+03  0.00000000000E+00 0. -1.
         -5    1    5    5    0  501  0.14117987400E+02  0.39699606204E+02 -0.15064331900E+03  0.15649560971E+03  0.47000000000E+01 0.  1.
         11    1    6    6    0    0 -0.13300461207E+01 -0.24840974976E+02 -0.57672453771E+03  0.57726080367E+03  0.00000000000E+00 0. -1.
        -12    1    6    6    0    0 -0.83764131210E+02  0.27526979459E+02 -0.11367297318E+04  0.11401441345E+04  0.00000000000E+00 0.  1.
</event>
<event>
12    1  0.2625820E-002  0.2864577E+03  0.7818608E-02  0.1092213E+00
          2   -1    0    0  502    0  0.00000000000E+00  0.00000000000E+00  0.26574009464E+03  0.26574009464E+03  0.00000000000E+00 0.  1.
         -2   -1    0    0    0  501 -0.00000000000E+00 -0.00000000000E+00 -0.37034455032E+03  0.37034455032E+03  0.00000000000E+00 0. -1.
          6    2    1    2  502    0  0.72255914373E+02 -0.21546800382E+03 -0.18212681801E+03  0.34039234497E+03  0.17620837904E+03 0.  0.
         24    2    3    3    0    0  0.97297216369E+02 -0.22469676720E+03 -0.14832811589E+03  0.29707169003E+03  0.79340869381E+02 0.  0.
         -6    2    1    2    0  501 -0.72255914373E+02  0.21546800382E+03  0.77522362332E+02  0.29569229999E+03  0.17255967599E+03 0.  0.
        -24    2    5    5    0    0 -0.88336562358E+02  0.23164777101E+03  0.61745899203E+02  0.26756119807E+03  0.79450617259E+02 0.  0.
          5    1    3    3  502    0 -0.25041301995E+02  0.92287633793E+01 -0.33798702121E+02  0.43320654937E+02  0.47000000000E+01 0. -1.
        -13    1    4    4    0    0  0.31452965666E+02 -0.14900128189E+03 -0.60948667159E+02  0.16402868982E+03  0.00000000000E+00 0.  1.
         14    1    4    4    0    0  0.65844250703E+02 -0.75695485306E+02 -0.87379448731E+02  0.13304300022E+03  0.00000000000E+00 0. -1.
         -5    1    5    5    0  501  0.16080647984E+02 -0.16179767192E+02  0.15776463129E+02  0.28131101913E+02  0.47000000000E+01 0.  1.
         11    1    6    6    0    0  0.90499134707E+01  0.52743123000E+02 -0.36212758493E+01  0.53636289921E+02  0.00000000000E+00 0. -1.
        -12    1    6    6    0    0 -0.97386475828E+02  0.17890464801E+03  0.65367175053E+02  0.21392490815E+03  0.00000000000E+00 0.  1.
</event>
<event>
12    1  0.2625820E-002  0.1932473E+03  0.7818608E-02  0.1155565E+00
         -2   -1    0    0    0  501 -0.00000000000E+00  0.00000000000E+00  0.72306573683E+02  0.72306573683E+02  0.00000000000E+00 0. -1.
          2   -1    0    0  502    0  0.00000000000E+00 -0.00000000000E+00 -0.60163431787E+03  0.60163431787E+03  0.00000000000E+00 0.  1.
          6    2    1    2  502    0  0.42715624429E+01 -0.95366179742E+02 -0.38673608365E+03  0.43063857147E+03  0.16362098386E+03 0.  0.
         24    2    3    3    0    0 -0.49833431582E+02 -0.35033111840E+02 -0.27096732896E+03  0.28924577101E+03  0.80803049779E+02 0.  0.
         -6    2    1    2    0  501 -0.42715624429E+01  0.95366179742E+02 -0.14259166054E+03  0.24330232008E+03  0.17248386249E+03 0.  0.
        -24    2    5    5    0    0 -0.49988816045E+02  0.63096881468E+02 -0.42111553078E+02  0.12819490554E+03  0.90445855197E+02 0.  0.
          5    1    3    3  502    0  0.54104994024E+02 -0.60333067901E+02 -0.11576875469E+03  0.14139280046E+03  0.47000000000E+01 0. -1.
        -11    1    4    4    0    0 -0.69968637829E+02 -0.39714772162E+02 -0.21127378401E+03  0.22607407020E+03  0.00000000000E+00 0.  1.
         12    1    4    4    0    0  0.20135206248E+02  0.46816603220E+01 -0.59693544947E+02  0.63171700803E+02  0.00000000000E+00 0. -1.
         -5    1    5    5    0  501  0.45717253602E+02  0.32269298274E+02 -0.10048010746E+03  0.11510741455E+03  0.47000000000E+01 0.  1.
         13    1    6    6    0    0 -0.73864067441E+02  0.28869598657E+02 -0.29222819013E+02  0.84518207131E+02  0.00000000000E+00 0. -1.
        -14    1    6    6    0    0  0.23875251396E+02  0.34227282811E+02 -0.12888734064E+02  0.43676698406E+02  0.00000000000E+00 0.  1.
</event>
<event>
12    1  0.2625820E-002  0.1832696E+03  0.7818608E-02  0.1164676E+00
          2   -1    0    0  502    0  0.00000000000E+00  0.00000000000E+00  0.55762288129E+03  0.55762288129E+03  0.00000000000E+00 0. -1.
         -2   -1    0    0    0  501 -0.00000000000E+00 -0.00000000000E+00 -0.86849424228E+02  0.86849424228E+02  0.00000000000E+00 0.  1.
          6    2    1    2  502    0  0.52830159842E+02 -0.31383794378E+02  0.56397238513E+02  0.19110001196E+03  0.17193777281E+03 0.  0.
         24    2    3    3    0    0  0.73851086543E+02 -0.62342980867E+02  0.12716897530E+01  0.12430729743E+03  0.78166852010E+02 0.  0.
         -6    2    1    2    0  501 -0.52830159842E+02  0.31383794378E+02  0.41437621855E+03  0.45337229356E+03  0.17338632510E+03 0.  0.
        -24    2    5    5    0    0 -0.32305647699E+02  0.84338826705E+02  0.21766907512E+03  0.24857658725E+03  0.79080976867E+02 0.  0.
          5    1    3    3  502    0 -0.21020926700E+02  0.30959186489E+02  0.55125548760E+02  0.66792714524E+02  0.47000000000E+01 0. -1.
        -13    1    4    4    0    0  0.33666367612E+02 -0.67145000939E+02  0.22760944542E+02  0.78485260118E+02  0.00000000000E+00 0.  1.
         14    1    4    4    0    0  0.40184718930E+02  0.48020200716E+01 -0.21489254789E+02  0.45822037315E+02  0.00000000000E+00 0. -1.
         -5    1    5    5    0  501 -0.20524512143E+02 -0.52955032327E+02  0.19670714343E+03  0.20479570631E+03  0.47000000000E+01 0.  1.
         13    1    6    6    0    0 -0.46999630288E+02  0.33974381108E+02  0.64829862643E+02  0.86983532402E+02  0.00000000000E+00 0. -1.
        -14    1    6    6    0    0  0.14693982589E+02  0.50364445597E+02  0.15283921247E+03  0.16159305485E+03  0.00000000000E+00 0.  1.
</event>
<event>
12    1  0.2625820E-002  0.2078757E+03  0.7818608E-02  0.1143259E+00
          1   -1    0    0  502    0  0.00000000000E+00  0.00000000000E+00  0.13632905938E+04  0.13632905938E+04  0.00000000000E+00 0. -1.
         -1   -1    0    0    0  501 -0.00000000000E+00 -0.00000000000E+00 -0.40836683642E+02  0.40836683642E+02  0.00000000000E+00 0.  1.
          6    2    1    2  502    0  0.10593394214E+03 -0.53491447672E+02  0.99306588411E+03  0.10145650952E+04  0.17052608942E+03 0.  0.
         24    2    3    3    0    0  0.30842527116E+02 -0.61036391136E+02  0.32425789406E+03  0.34149610593E+03  0.82460329752E+02 0.  0.
         -6    2    1    2    0  501 -0.10593394214E+03  0.53491447672E+02  0.32938802610E+03  0.38956218228E+03  0.17081828665E+03 0.  0.
        -24    2    5    5    0    0 -0.13565120424E+03  0.46809430089E+02  0.31823842384E+03  0.35678766998E+03  0.73684293331E+02 0.  0.
          5    1    3    3  502    0  0.75091415019E+02  0.75449434642E+01  0.66880799005E+03  0.67306898928E+03  0.47000000000E+01 0. -1.
        -11    1    4    4    0    0 -0.22372064618E+02 -0.46121512559E+02  0.13804500406E+03  0.14725531006E+03  0.00000000000E+00 0.  1.
         12    1    4    4    0    0  0.53214591734E+02 -0.14914878577E+02  0.18621289000E+03  0.19424079586E+03  0.00000000000E+00 0. -1.
         -5    1    5    5    0  501  0.29717262106E+02  0.66820175827E+01  0.11149602261E+02  0.32774512302E+02  0.47000000000E+01 0.  1.
         13    1    6    6    0    0 -0.87293379545E+02 -0.84421741010E+00  0.22586378691E+03  0.24214726315E+03  0.00000000000E+00 0. -1.
        -14    1    6    6    0    0 -0.48357824696E+02  0.47653647499E+02  0.92374636933E+02  0.11464040683E+03  0.00000000000E+00 0.  1.
</event>
<event>
12    1  0.2625820E-002  0.1965735E+03  0.7818608E-02  0.1152663E+00
         -2   -1    0    0    0  501 -0.00000000000E+00  0.00000000000E+00  0.43627010718E+02  0.43627010718E+02  0.00000000000E+00 0.  1.
          2   -1    0    0  502    0  0.00000000000E+00 -0.00000000000E+00 -0.92575176838E+03  0.92575176838E+03  0.00000000000E+00 0. -1.
          6    2    1    2  502    0  0.92037592650E+02 -0.23484353822E+02 -0.54148912622E+03  0.57600719934E+03  0.17190516727E+03 0.  0.
         24    2    3    3    0    0  0.14821202194E+02 -0.13165515374E+02 -0.10768518467E+03  0.13523878044E+03  0.79375247463E+02 0.  0.
         -6    2    1    2    0  501 -0.92037592650E+02  0.23484353822E+02 -0.34063563144E+03  0.39337157976E+03  0.17229664252E+03 0.  0.
        -24    2    5    5    0    0 -0.87571986047E+02 -0.45580745977E+02 -0.22923639843E+03  0.26213969047E+03  0.80133849336E+02 0.  0.
          5    1    3    3  502    0  0.77216390456E+02 -0.10318838448E+02 -0.43380394156E+03  0.44076841889E+03  0.47000000000E+01 0. -1.
        -13    1    4    4    0    0  0.10531587937E+02 -0.44606636457E+02 -0.83824405848E+02  0.95536366773E+02  0.00000000000E+00 0.  1.
         14    1    4    4    0    0  0.42896142568E+01  0.31441121083E+02 -0.23860778817E+02  0.39702413670E+02  0.00000000000E+00 0. -1.
         -5    1    5    5    0  501 -0.44656066035E+01  0.69065099799E+02 -0.11139923301E+03  0.13123188930E+03  0.47000000000E+01 0.  1.
         11    1    6    6    0    0 -0.73783726426E+02 -0.57460043791E+02 -0.12384229313E+03  0.15518572255E+03  0.00000000000E+00 0. -1.
        -12    1    6    6    0    0 -0.13788259621E+02  0.11879297814E+02 -0.10539410530E+03  0.10695396791E+03  0.00000000000E+00 0.  1.
</event>
<event>
12    1  0.2625820E-002  0.1793912E+03  0.7818608E-02  0.1168394E+00
          2   -1    0    0  502    0  0.00000000000E+00  0.00000000000E+00  0.31801229589E+03  0.31801229589E+03  0.00000000000E+00 0. -1.
         -2   -1    0    0    0  501 -0.00000000000E+00 -0.00000000000E+00 -0.10121157491E+03  0.10121157491E+03  0.00000000000E+00 0.  1.
          6    2    1    2  502    0  0.23995235540E+01  0.52894552378E+02  0.10537711819E+03  0.20699168979E+03  0.17011064405E+03 0.  0.
         24    2    3    3    0    0  0.60973665876E+02  0.61879170022E+02  0.77698924557E+02  0.14141863201E+03  0.80095486701E+02 0.  0.
         -6    2    1    2    0  501 -0.23995235540E+01 -0.52894552378E+02  0.11142360279E+03  0.21223218101E+03  0.17269536188E+03 0.  0.
        -24    2    5    5    0    0  0.43367759580E+01  0.30317092364E+02  0.15587604349E+02  0.85046552307E+02  0.77794658781E+02 0.  0.
          5    1    3    3  502    0 -0.58574142322E+02 -0.89846176443E+01  0.27678193638E+02  0.65573057776E+02  0.47000000000E+01 0. -1.
        -11    1    4    4    0    0  0.41107170781E+02 -0.83707443456E+01  0.44699738454E+02  0.61302002156E+02  0.00000000000E+00 0.  1.
         12    1    4    4    0    0  0.19866495095E+02  0.70249914367E+02  0.32999186103E+02  0.80116629856E+02  0.00000000000E+00 0. -1.
         -5    1    5    5    0  501 -0.67362995120E+01 -0.83211644742E+02  0.95835998438E+02  0.12718562870E+03  0.47000000000E+01 0.  1.
         13    1    6    6    0    0 -0.81259366208E+01  0.16070504516E+02 -0.30390137845E+02  0.35324954914E+02  0.00000000000E+00 0. -1.
        -14    1    6    6    0    0  0.12462712579E+02  0.14246587848E+02  0.45977742194E+02  0.49721597394E+02  0.00000000000E+00 0.  1.
</event>
<event>
12    1  0.2625820E-002  0.1964118E+03  0.7818608E-02  0.1152802E+00
         -2   -1    0    0    0  501 -0.00000000000E+00  0.00000000000E+00  0.19911088935E+03  0.19911088935E+03  0.00000000000E+00 0.  1.
          2   -1    0    0  502    0  0.00000000000E+00 -0.00000000000E+00 -0.24580204159E+03  0.24580204159E+03  0.00000000000E+00 0. -1.
          6    2    1    2  502    0  0.85066852600E+01 -0.10603987390E+03 -0.12508209515E+03  0.22862760652E+03  0.15908561653E+03 0.  0.
         24    2    3    3    0    0  0.32333758243E+02 -0.19519302117E+02 -0.10526150182E+03  0.13660323655E+03  0.78447341529E+02 0.  0.
         -6    2    1    2    0  501 -0.85066852600E+01  0.10603987390E+03  0.78390942903E+02  0.21628532442E+03  0.17122319668E+03 0.  0.
        -24    2    5    5    0    0 -0.94863160315E+01 -0.64048604562E+01  0.60799433065E+02  0.10237163262E+03  0.81562048009E+02 0.  0.
          5    1    3    3  502    0 -0.23827072983E+02 -0.86520571784E+02 -0.19820593328E+02  0.92024369971E+02  0.47000000000E+01 0. -1.
        -13    1    4    4    0    0  0.16925541894E+02 -0.26906201591E+02 -0.19053558751E+01  0.31844120862E+02  0.00000000000E+00 0.  1.
         14    1    4    4    0    0  0.15408216349E+02  0.73868994743E+01 -0.10335614594E+03  0.10475911568E+03  0.00000000000E+00 0. -1.
         -5    1    5    5    0  501  0.97963077150E+00  0.11244473436E+03  0.17591509838E+02  0.11391369180E+03  0.47000000000E+01 0.  1.
         11    1    6    6    0    0 -0.16050944298E+02 -0.43947249926E+01 -0.17280247919E+02  0.23990693795E+02  0.00000000000E+00 0. -1.
        -12    1    6    6    0    0  0.65646282666E+01 -0.20101354636E+01  0.78079680984E+02  0.78380938827E+02  0.00000000000E+00 0.  1.
</event>
<event>
12    1  0.2625820E-002  0.1756014E+03  0.7818608E-02  0.1172129E+00
          1   -1    0    0  502    0  0.00000000000E+00  0.00000000000E+00  0.27197918626E+03  0.27197918626E+03  0.00000000000E+00 0.  1.
         -1   -1    0    0    0  501 -0.00000000000E+00 -0.00000000000E+00 -0.11381478241E+03  0.11381478241E+03  0.00000000000E+00 0. -1.
          6    2    1    2  502    0  0.24972719598E+02  0.22987896770E+02  0.90964216564E+02  0.19757235393E+03  0.17207052687E+03 0.  0.
         24    2    3    3    0    0 -0.48872503757E+02  0.33790157820E+02  0.61065489092E+02  0.11703770449E+03  0.80240475597E+02 0.  0.
         -6    2    1    2    0  501 -0.24972719598E+02 -0.22987896770E+02  0.67200187288E+02  0.18822161474E+03  0.17250921994E+03 0.  0.
        -24    2    5    5    0    0 -0.17643789134E+01 -0.62536293988E+02  0.91483381950E+02  0.13612107403E+03  0.79030604977E+02 0.  0.
          5    1    3    3  502    0  0.73845223355E+02 -0.10802261050E+02  0.29898727471E+02  0.80534649441E+02  0.47000000000E+01 0. -1.
        -13    1    4    4    0    0  0.96115726513E+01 -0.12037333013E+02  0.35099381876E+02  0.38330749053E+02  0.00000000000E+00 0.  1.
         14    1    4    4    0    0 -0.58484076408E+02  0.45827490833E+02  0.25966107216E+02  0.78706955432E+02  0.00000000000E+00 0. -1.
         -5    1    5    5    0  501 -0.23208340684E+02  0.39548397218E+02 -0.24283194662E+02  0.52100540716E+02  0.47000000000E+01 0.  1.
         11    1    6    6    0    0 -0.18579395394E+02  0.10273505232E+02  0.49726159991E+01  0.21805177203E+02  0.00000000000E+00 0. -1.
        -12    1    6    6    0    0  0.16815016481E+02 -0.72809799220E+02  0.86510765951E+02  0.11431589683E+03  0.00000000000E+00 0.  1.
</event>
<event>
12    1  0.2625820E-002  0.1933540E+03  0.7818608E-02  0.1155471E+00
         -2   -1    0    0    0  501 -0.00000000000E+00  0.00000000000E+00  0.58840235810E+02  0.58840235810E+02  0.00000000000E+00 0.  1.
          2   -1    0    0  502    0  0.00000000000E+00 -0.00000000000E+00 -0.64467436349E+03  0.64467436349E+03  0.00000000000E+00 0. -1.
          6    2    1    2  502    0 -0.89422747210E+02 -0.40212763615E+02 -0.24431844281E+03  0.30859936318E+03  0.16102351189E+03 0.  0.
         24    2    3    3    0    0 -0.81146876637E+02  0.27187754156E+02 -0.17947183451E+03  0.21458610647E+03  0.80703581970E+02 0.  0.
         -6    2    1    2    0  501  0.89422747210E+02  0.40212763615E+02 -0.34151568488E+03  0.39491523613E+03  0.17237049234E+03 0.  0.
        -24    2    5    5    0    0  0.57552436037E+02 -0.35941641013E+02 -0.13715031997E+03  0.17445548367E+03  0.83787952968E+02 0.  0.
          5    1    3    3  502    0 -0.82758705738E+01 -0.67400517772E+02 -0.64846608294E+02  0.94013256708E+02  0.47000000000E+01 0. -1.
        -13    1    4    4    0    0 -0.45070033366E+02 -0.19531107726E+02 -0.40730314749E+02  0.63810113745E+02  0.00000000000E+00 0.  1.
         14    1    4    4    0    0 -0.36076843271E+02  0.46718861882E+02 -0.13874151976E+03  0.15077599272E+03  0.00000000000E+00 0. -1.
         -5    1    5    5    0  501  0.31870311174E+02  0.76154404629E+02 -0.20436536491E+03  0.22045975245E+03  0.47000000000E+01 0.  1.
         13    1    6    6    0    0 -0.10475547476E+02 -0.36828401798E+02 -0.63827862555E+02  0.74431608287E+02  0.00000000000E+00 0. -1.
        -14    1    6    6    0    0  0.68027983512E+02  0.88676078423E+00 -0.73322457415E+02  0.10002387538E+03  0.00000000000E+00 0.  1.
</event>
<event>
12    1  0.2625820E-002  0.2370180E+03  0.7818608E-02  0.1121795E+00
         -2   -1    0    0    0  501 -0.00000000000E+00  0.00000000000E+00  0.28343111609E+02  0.28343111609E+02  0.00000000000E+00 0. -1.
          2   -1    0    0  502    0  0.00000000000E+00 -0.00000000000E+00 -0.20077271716E+04  0.20077271716E+04  0.00000000000E+00 0.  1.
          6    2    1    2  502    0 -0.48351053721E+02  0.15447293687E+03 -0.87871792744E+03  0.91038062742E+03  0.17449349031E+03 0.  0.
         24    2    3    3    0    0 -0.11679994200E+02  0.31616508108E+02 -0.55776078250E+03  0.56473044648E+03  0.81776285322E+02 0.  0.
         -6    2    1    2    0  501  0.48351053721E+02 -0.15447293687E+03 -0.11006661325E+04  0.11256896558E+04  0.17178926967E+03 0.  0.
        -24    2    5    5    0    0 -0.17712585370E+02 -0.14775132735E+03 -0.78199629900E+03  0.80014067751E+03  0.81010503829E+02 0.  0.
          5    1    3    3  502    0 -0.36671059521E+02  0.12285642877E+03 -0.32095714494E+03  0.34565018094E+03  0.47000000000E+01 0. -1.
        -13    1    4    4    0    0  0.29578432779E+01  0.39260021508E+02 -0.53584653346E+03  0.53729098777E+03  0.00000000000E+00 0.  1.
         14    1    4    4    0    0 -0.14637837478E+02 -0.76435134004E+01 -0.21914249042E+02  0.27439458709E+02  0.00000000000E+00 0. -1.
         -5    1    5    5    0  501  0.66063639091E+02 -0.67216095211E+01 -0.31866983353E+03  0.32554897826E+03  0.47000000000E+01 0.  1.
         11    1    6    6    0    0 -0.11778960611E+02 -0.58850224013E+02 -0.14480356216E+03  0.15674873011E+03  0.00000000000E+00 0. -1.
        -12    1    6    6    0    0 -0.59336247596E+01 -0.88901103340E+02 -0.63719273685E+03  0.64339194739E+03  0.00000000000E+00 0.  1.
</event>
<event>
12    1  0.2625820E-002  0.1756071E+03  0.7818608E-02  0.1172123E+00
         -1   -1    0    0    0  501 -0.00000000000E+00  0.00000000000E+00  0.67715918081E+03  0.67715918081E+03  0.00000000000E+00 0. -1.
          1   -1    0    0  502    0  0.00000000000E+00 -0.00000000000E+00 -0.61222189047E+02  0.61222189047E+02  0.00000000000E+00 0.  1.
          6    2    1    2  502    0 -0.23423422478E+02  0.19197113110E+02  0.49619245619E+03  0.52670642511E+03  0.17405607947E+03 0.  0.
         24    2    3    3    0    0  0.52665071326E+02  0.30100245526E+02  0.31014749615E+03  0.32535311786E+03  0.77353393021E+02 0.  0.
         -6    2    1    2    0  501  0.23423422478E+02 -0.19197113110E+02  0.11974453558E+03  0.21167494476E+03  0.17190213077E+03 0.  0.
        -24    2    5    5    0    0  0.69889419487E+02  0.22933018903E+02  0.54830071596E+02  0.12128681204E+03  0.79332841315E+02 0.  0.
          5    1    3    3  502    0 -0.76088493804E+02 -0.10903132416E+02  0.18604496003E+03  0.20135330725E+03  0.47000000000E+01 0. -1.
        -13    1    4    4    0    0  0.35351197947E+02  0.36254247371E+02  0.81372236515E+02  0.95841110825E+02  0.00000000000E+00 0.  1.
         14    1    4    4    0    0  0.17313873379E+02 -0.61540018453E+01  0.22877525964E+03  0.22951200703E+03  0.00000000000E+00 0. -1.
         -5    1    5    5    0  501 -0.46465997009E+02 -0.42130132013E+02  0.64914463986E+02  0.90388132717E+02  0.47000000000E+01 0.  1.
         13    1    6    6    0    0 -0.11634065237E+02 -0.14399518290E+02  0.99662085389E+01  0.21024340978E+02  0.00000000000E+00 0. -1.
        -14    1    6    6    0    0  0.81523484723E+02  0.37332537193E+02  0.44863863057E+02  0.10026247106E+03  0.00000000000E+00 0.  1.
</event>
<event>
12    1  0.2625820E-002  0.3526583E+03  0.7818608E-02  0.1061529E+00
         -1   -1    0    0    0  501 -0.00000000000E+00  0.00000000000E+00  0.54916350500E+03  0.54916350500E+03  0.00000000000E+00 0. -1.
          1   -1    0    0  502    0  0.00000000000E+00 -0.00000000000E+00 -0.22652137738E+03  0.22652137738E+03  0.00000000000E+00 0.  1.
          6    2    1    2  502    0  0.27325542660E+03 -0.14199356302E+03  0.16738853412E+03  0.39057981105E+03  0.17234548831E+03 0.  0.
         24    2    3    3    0    0  0.18189572041E+03 -0.19195859136E+02  0.10848359798E+03  0.22651350282E+03  0.78007319013E+02 0.  0.
         -6    2    1    2    0  501 -0.27325542660E+03  0.14199356302E+03  0.15525359350E+03  0.38510507133E+03  0.17138126375E+03 0.  0.
        -24    2    5    5    0    0 -0.29073427254E+03  0.14298395205E+03  0.14114959917E+03  0.36213762520E+03  0.79054553734E+02 0.  0.
          5    1    3    3  502    0  0.91359706192E+02 -0.12279770388E+03  0.58904936145E+02  0.16406630823E+03  0.47000000000E+01 0. -1.
        -13    1    4    4    0    0  0.28344132209E+02  0.24056383269E+02  0.81562409606E+01  0.38060789183E+02  0.00000000000E+00 0.  1.
         14    1    4    4    0    0  0.15355158820E+03 -0.43252242406E+02  0.10032735701E+03  0.18845271364E+03  0.00000000000E+00 0. -1.
         -5    1    5    5    0  501  0.17478845938E+02 -0.99038903208E+00  0.14103994335E+02  0.22967446135E+02  0.47000000000E+01 0.  1.
         13    1    6    6    0    0 -0.10388545266E+03  0.49837632949E+02  0.92519933809E+02  0.14776980437E+03  0.00000000000E+00 0. -1.
        -14    1    6    6    0    0 -0.18684881988E+03  0.93146319103E+02  0.48629665359E+02  0.21436782083E+03  0.00000000000E+00 0.  1.
</event>
<event>
12    1  0.2625820E-002  0.1753148E+03  0.7818608E-02  0.1172416E+00
          1   -1    0    0  502    0  0.00000000000E+00  0.00000000000E+00  0.65950976723E+02  0.65950976723E+02  0.00000000000E+00 0. -1.
         -1   -1    0    0    0  501 -0.00000000000E+00 -0.00000000000E+00 -0.47764971240E+03  0.47764971240E+03  0.00000000000E+00 0.  1.
          6    2    1    2  502    0 -0.92174907657E+01  0.49646425043E+01 -0.16799759144E+03  0.24547620268E+03  0.17867782609E+03 0.  0.
         24    2    3    3    0    0 -0.48915456518E+02  0.38973063464E+02 -0.42478787909E+02  0.10942635438E+03  0.79107888658E+02 0.  0.
         -6    2    1    2    0  501  0.92174907657E+01 -0.49646425043E+01 -0.24370114423E+03  0.29812448644E+03  0.17140114325E+03 0.  0.
        -24    2    5    5    0    0  0.13916892286E+02 -0.49070482479E+02 -0.66242214284E+02  0.11514587755E+03  0.79176701261E+02 0.  0.
          5    1    3    3  502    0  0.39697965753E+02 -0.34008420960E+02 -0.12551880354E+03  0.13604984830E+03  0.47000000000E+01 0. -1.
        -11    1    4    4    0    0  0.13594655440E+02 -0.35709080985E+01 -0.29539427412E+02  0.32713052640E+02  0.00000000000E+00 0.  1.
         12    1    4    4    0    0 -0.62510111959E+02  0.42543971562E+02 -0.12939360497E+02  0.76713301738E+02  0.00000000000E+00 0. -1.
         -5    1    5    5    0  501 -0.46994015203E+01  0.44105839974E+02 -0.17745892995E+03  0.18297860889E+03  0.47000000000E+01 0.  1.
         13    1    6    6    0    0  0.28734832302E+02 -0.43036198890E+01  0.52270036806E+01  0.29521742819E+02  0.00000000000E+00 0. -1.
        -14    1    6    6    0    0 -0.14817940016E+02 -0.44766862590E+02 -0.71469217964E+02  0.85624134733E+02  0.00000000000E+00 0.  1.
</event>
<event>
12    1  0.2625820E-002  0.2554661E+03  0.7818608E-02  0.1109898E+00
         -4   -1    0    0    0  501 -0.00000000000E+00  0.00000000000E+00  0.16249672968E+04  0.16249672968E+04  0.00000000000E+00 0.  1.
          4   -1    0    0  502    0  0.00000000000E+00 -0.00000000000E+00 -0.63175232060E+02  0.63175232060E+02  0.00000000000E+00 0. -1.
          6    2    1    2  502    0 -0.28057893005E+02 -0.18625980214E+03  0.27181385160E+03  0.37314664893E+03  0.17284586322E+03 0.  0.
         24    2    3    3    0    0 -0.85193261632E+02 -0.13246402007E+03  0.17969885265E+03  0.25204462769E+03  0.80188579378E+02 0.  0.
         -6    2    1    2    0  501  0.28057893005E+02  0.18625980214E+03  0.12899782131E+04  0.13149958799E+04  0.17230906709E+03 0.  0.
        -24    2    5    5    0    0 -0.70401142982E+01  0.57589029750E+02  0.31216993300E+03  0.32812245315E+03  0.82753958405E+02 0.  0.
          5    1    3    3  502    0  0.57135368627E+02 -0.53795782068E+02  0.92114998954E+02  0.12110202124E+03  0.47000000000E+01 0. -1.
        -13    1    4    4    0    0 -0.70978829164E+02 -0.40313147852E+02  0.65788082821E+02  0.10483900000E+03  0.00000000000E+00 0.  1.
         14    1    4    4    0    0 -0.14214432468E+02 -0.92150872223E+02  0.11391076983E+03  0.14720562769E+03  0.00000000000E+00 0. -1.
         -5    1    5    5    0  501  0.35098007304E+02  0.12867077239E+03  0.97780828011E+03  0.98687342676E+03  0.47000000000E+01 0.  1.
         11    1    6    6    0    0 -0.40088622024E+02  0.12584407893E+02  0.17607368575E+03  0.18101770011E+03  0.00000000000E+00 0. -1.
        -12    1    6    6    0    0  0.33048507726E+02  0.45004621856E+02  0.13609624725E+03  0.14710475304E+03  0.00000000000E+00 0.  1.
</event>
<event>
12    1  0.2625820E-002  0.1780448E+03  0.7818608E-02  0.1169709E+00
          1   -1    0    0  502    0  0.00000000000E+00  0.00000000000E+00  0.55669277727E+03  0.55669277727E+03  0.00000000000E+00 0. -1.
         -1   -1    0    0    0  501 -0.00000000000E+00 -0.00000000000E+00 -0.78628305553E+02  0.78628305553E+02  0.00000000000E+00 0.  1.
          6    2    1    2  502    0  0.13774908456E+02  0.41736167127E+02  0.40695688997E+03  0.44466229781E+03  0.17372102074E+03 0.  0.
         24    2    3    3    0    0  0.53057758132E+02  0.47922059490E+02  0.38371680534E+03  0.39836327971E+03  0.79643370320E+02 0.  0.
         -6    2    1    2    0  501 -0.13774908456E+02 -0.41736167127E+02  0.71107581749E+02  0.19065878502E+03  0.17135585305E+03 0.  0.
        -24    2    5    5    0    0  0.93196260811E+01 -0.89644363630E+02  0.32010339011E+02  0.12448297972E+03  0.79676741113E+02 0.  0.
          5    1    3    3  502    0 -0.39282849676E+02 -0.61858923635E+01  0.23240084626E+02  0.46299018094E+02  0.47000000000E+01 0. -1.
        -11    1    4    4    0    0  0.65816956207E+02  0.12844402245E+02  0.28609393539E+03  0.29384790328E+03  0.00000000000E+00 0.  1.
         12    1    4    4    0    0 -0.12759198075E+02  0.35077657246E+02  0.97622869952E+02  0.10451537643E+03  0.00000000000E+00 0. -1.
         -5    1    5    5    0  501 -0.23094534537E+02  0.47908196503E+02  0.39097242738E+02  0.66175805302E+02  0.47000000000E+01 0.  1.
         11    1    6    6    0    0  0.31060296096E+02 -0.41113150688E+02  0.46456357296E+02  0.69377419138E+02  0.00000000000E+00 0. -1.
        -12    1    6    6    0    0 -0.21740670015E+02 -0.48531212942E+02 -0.14446018285E+02  0.55105560578E+02  0.00000000000E+00 0.  1.
</event>
<event>
12    1  0.2625820E-002  0.4261621E+03  0.7818608E-02  0.1035079E+00
         -1   -1    0    0    0  501 -0.00000000000E+00  0.00000000000E+00  0.45714549129E+03  0.45714549129E+03  0.00000000000E+00 0.  1.
          1   -1    0    0  502    0  0.00000000000E+00 -0.00000000000E+00 -0.43830879829E+03  0.43830879829E+03  0.00000000000E+00 0. -1.
          6    2    1    2  502    0 -0.37042971795E+03 -0.12285969001E+03 -0.12757146762E+03  0.44464102353E+03  0.17064138151E+03 0.  0.
         24    2    3    3    0    0 -0.24337198430E+03 -0.96131708061E+02 -0.14957787537E+03  0.31286688084E+03  0.83910167988E+02 0.  0.
         -6    2    1    2    0  501  0.37042971795E+03  0.12285969001E+03  0.14640816063E+03  0.45081326605E+03  0.17171072179E+03 0.  0.
        -24    2    5    5    0    0  0.19034791136E+03  0.85457841487E+02  0.14175096200E+02  0.22423871173E+03  0.80911658333E+02 0.  0.
          5    1    3    3  502    0 -0.12705773365E+03 -0.26727981950E+02  0.22006407741E+02  0.13177414269E+03  0.47000000000E+01 0. -1.
        -13    1    4    4    0    0 -0.88666854757E+02 -0.31768182373E+02 -0.98642807910E+01  0.94701280769E+02  0.00000000000E+00 0.  1.
         14    1    4    4    0    0 -0.15470512954E+03 -0.64363525688E+02 -0.13971359457E+03  0.21816560007E+03  0.00000000000E+00 0. -1.
         -5    1    5    5    0  501  0.18008180659E+03  0.37401848523E+02  0.13223306443E+03  0.22657455432E+03  0.47000000000E+01 0.  1.
         13    1    6    6    0    0  0.48533087356E+02  0.18924013617E+02 -0.31741792452E+02  0.61000985629E+02  0.00000000000E+00 0. -1.
        -14    1    6    6    0    0  0.14181482401E+03  0.66533827870E+02  0.45916888652E+02  0.16323772610E+03  0.00000000000E+00 0.  1.
</event>
<event>
12    1  0.2625820E-002  0.1840568E+03  0.7818608E-02  0.1163934E+00
         -1   -1    0    0    0  501 -0.00000000000E+00  0.00000000000E+00  0.38767893122E+02  0.38767893122E+02  0.00000000000E+00 0.  1.
          1   -1    0    0  502    0  0.00000000000E+00 -0.00000000000E+00 -0.88487562660E+03  0.88487562660E+03  0.00000000000E+00 0. -1.
          6    2    1    2  502    0  0.66676863326E+02  0.17412782976E+01 -0.37001142069E+03  0.41296969135E+03  0.17084109103E+03 0.  0.
         24    2    3    3    0    0  0.31607598954E+02  0.70037857654E+02 -0.19503287044E+03  0.22183136683E+03  0.72574051428E+02 0.  0.
         -6    2    1    2    0  501 -0.66676863326E+02 -0.17412782976E+01 -0.47609631279E+03  0.51067382837E+03  0.17225337087E+03 0.  0.
        -24    2    5    5    0    0  0.11594401154E+02 -0.84697038193E+01 -0.36896276176E+03  0.37774019715E+03  0.79674154869E+02 0.  0.
          5    1    3    3  502    0  0.35069264371E+02 -0.68296579356E+02 -0.17497855025E+03  0.19113832453E+03  0.47000000000E+01 0. -1.
        -13    1    4    4    0    0  0.32667146115E+02  0.52039336733E+02 -0.19430358432E+03  0.20378694237E+03  0.00000000000E+00 0.  1.
         14    1    4    4    0    0 -0.10595471609E+01  0.17998520921E+02 -0.72928611684E+00  0.18044424451E+02  0.00000000000E+00 0. -1.
         -5    1    5    5    0  501 -0.78271264480E+02  0.67284255217E+01 -0.10713355103E+03  0.13293363122E+03  0.47000000000E+01 0.  1.
         13    1    6    6    0    0  0.36696010385E+02 -0.23574619500E+02 -0.13307974506E+03  0.14004491568E+03  0.00000000000E+00 0. -1.
        -14    1    6    6    0    0 -0.25101609231E+02  0.15104915681E+02 -0.23588301670E+03  0.23769528147E+03  0.00000000000E+00 0.  1.
</event>
<event>
12    1  0.2625820E-002  0.1976034E+03  0.7818608E-02  0.1151777E+00
          1   -1    0    0  502    0  0.00000000000E+00  0.00000000000E+00  0.16433244839E+03  0.16433244839E+03  0.00000000000E+00 0. -1.
         -1   -1    0    0    0  501 -0.00000000000E+00 -0.00000000000E+00 -0.30804562172E+03  0.30804562172E+03  0.00000000000E+00 0.  1.
          6    2    1    2  502    0 -0.66636748625E+02 -0.71771524708E+02 -0.18493193793E+03  0.27099876631E+03  0.17218856421E+03 0.  0.
         24    2    3    3    0    0  0.76047224524E+01 -0.81341567643E+02 -0.15318202998E+03  0.18955229060E+03  0.76098975907E+02 0.  0.
         -6    2    1    2    0  501  0.66636748625E+02  0.71771524708E+02  0.41218764606E+02  0.20137930380E+03  0.17106440137E+03 0.  0.
        -24    2    5    5    0    0  0.92760678562E+02  0.10641643803E+01  0.26846415419E+02  0.12449858488E+03  0.78571570458E+02 0.  0.
          5    1    3    3  502    0 -0.74241471078E+02  0.95700429353E+01 -0.31749907953E+02  0.81446475704E+02  0.47000000000E+01 0. -1.
        -11    1    4    4    0    0  0.39063551736E+02 -0.65706762216E+02 -0.10164847844E+03  0.12718393312E+03  0.00000000000E+00 0.  1.
         12    1    4    4    0    0 -0.31458829284E+02 -0.15634805427E+02 -0.51533551544E+02  0.62368357485E+02  0.00000000000E+00 0. -1.
         -5    1    5    5    0  501 -0.26123929937E+02  0.70707360328E+02  0.14372349188E+02  0.76880718916E+02  0.47000000000E+01 0.  1.
         11    1    6    6    0    0  0.11888898052E+02  0.11528872010E+02  0.38700931373E+02  0.42095402075E+02  0.00000000000E+00 0. -1.
        -12    1    6    6    0    0  0.80871780510E+02 -0.10464707630E+02 -0.11854515954E+02  0.82403182809E+02  0.00000000000E+00 0.  1.
</event>
<event>
12    1  0.2625820E-002  0.2187019E+03  0.7818608E-02  0.1134855E+00
         -1   -1    0    0    0  501 -0.00000000000E+00  0.00000000000E+00  0.61775929716E+02  0.61775929716E+02  0.00000000000E+00 0. -1.
          1   -1    0    0  502    0  0.00000000000E+00 -0.00000000000E+00 -0.84023144643E+03  0.84023144643E+03  0.00000000000E+00 0.  1.
          6    2    1    2  502    0  0.87778130859E+02 -0.10096901506E+03 -0.26350576648E+03  0.34269503840E+03  0.17350751602E+03 0.  0.
         24    2    3    3    0    0  0.78252152644E+02 -0.59776152289E+02 -0.27136065933E+03  0.29943552446E+03  0.79551480824E+02 0.  0.
         -6    2    1    2    0  501 -0.87778130859E+02  0.10096901506E+03 -0.51494975023E+03  0.55931233774E+03  0.17250305397E+03 0.  0.
        -24    2    5    5    0    0 -0.56617939150E+02  0.13070723217E+03 -0.31547383263E+03  0.35518480211E+03  0.79640021317E+02 0.  0.
          5    1    3    3  502    0  0.95259782150E+01 -0.41192862774E+02  0.78548928492E+01  0.43259513938E+02  0.47000000000E+01 0. -1.
        -11    1    4    4    0    0 -0.69839996691E+01 -0.27986962718E+02 -0.11475528123E+03  0.11832506456E+03  0.00000000000E+00 0.  1.
         12    1    4    4    0    0  0.85236152313E+02 -0.31789189572E+02 -0.15660537810E+03  0.18111045990E+03  0.00000000000E+00 0. -1.
         -5    1    5    5    0  501 -0.31160191709E+02 -0.29738217108E+02 -0.19947591760E+03  0.20412753564E+03  0.47000000000E+01 0.  1.
         13    1    6    6    0    0 -0.33984248277E+02  0.43634274684E+02 -0.48850764789E+02  0.73792115287E+02  0.00000000000E+00 0. -1.
        -14    1    6    6    0    0 -0.22633690872E+02  0.87072957488E+02 -0.26662306784E+03  0.28139268682E+03  0.00000000000E+00 0.  1.
</event>
<event>
12    1  0.2625820E-002  0.1834376E+03  0.7818608E-02  0.1164517E+00
          2   -1    0    0  502    0  0.00000000000E+00  0.00000000000E+00  0.29627187619E+03  0.29627187619E+03  0.00000000000E+00 0.  1.
         -2   -1    0    0    0  501 -0.00000000000E+00 -0.00000000000E+00 -0.11889001663E+03  0.11889001663E+03  0.00000000000E+00 0. -1.
          6    2    1    2  502    0  0.65083650856E+02 -0.93685325329E+01  0.13227531823E+03  0.22563624774E+03  0.17056173507E+03 0.  0.
         24    2    3    3    0    0  0.45971171717E+02 -0.71838621113E+02  0.72442730658E+02  0.13692420030E+03  0.78905964853E+02 0.  0.
         -6    2    1    2    0  501 -0.65083650856E+02  0.93685325329E+01  0.45106541332E+02  0.18952564508E+03  0.17193521763E+03 0.  0.
        -24    2    5    5    0    0 -0.22950487142E+02 -0.51166968644E+02  0.58681758913E+02  0.11438493095E+03  0.80595161510E+02 0.  0.
          5    1    3    3  502    0  0.19112479139E+02  0.62470088580E+02  0.59832587571E+02  0.88712047443E+02  0.47000000000E+01 0. -1.
        -11    1    4    4    0    0  0.41228471133E+02 -0.40240193920E+02  0.84923366183E+02  0.10262084663E+03  0.00000000000E+00 0.  1.
         12    1    4    4    0    0  0.47427005836E+01 -0.31598427193E+02 -0.12480635525E+02  0.34303353670E+02  0.00000000000E+00 0. -1.
         -5    1    5    5    0  501 -0.42133163714E+02  0.60535501177E+02 -0.13575217581E+02  0.75140714128E+02  0.47000000000E+01 0.  1.
         13    1    6    6    0    0  0.76416422567E+01  0.41091025359E+01 -0.14998772059E+02  0.17327509437E+02  0.00000000000E+00 0. -1.
        -14    1    6    6    0    0 -0.30592129399E+02 -0.55276071180E+02  0.73680530972E+02  0.97057421512E+02  0.00000000000E+00 0.  1.
</event>
<event>
12    1  0.2625820E-002  0.1880818E+03  0.7818608E-02  0.1160203E+00
          1   -1    0    0  502    0  0.00000000000E+00  0.00000000000E+00  0.11918066397E+04  0.11918066397E+04  0.00000000000E+00 0.  1.
         -1   -1    0    0    0  501 -0.00000000000E+00 -0.00000000000E+00 -0.34059984613E+02  0.34059984613E+02  0.00000000000E+00 0. -1.
          6    2    1    2  502    0 -0.64195915926E+01 -0.78378012244E+02  0.35481433983E+03  0.40082583635E+03  0.16906747580E+03 0.  0.
         24    2    3    3    0    0 -0.61124555237E+02 -0.11684547974E+02  0.20094242233E+03  0.22436250242E+03  0.78025223409E+02 0.  0.
         -6    2    1    2    0  501  0.64195915926E+01  0.78378012244E+02  0.80293231521E+03  0.82504078792E+03  0.17264899352E+03 0.  0.
        -24    2    5    5    0    0  0.51896961095E+02  0.95392552028E+02  0.65476249328E+03  0.66904696807E+03  0.84361657897E+02 0.  0.
          5    1    3    3  502    0  0.54704963644E+02 -0.66693464271E+02  0.15387191751E+03  0.17646333393E+03  0.47000000000E+01 0. -1.
        -13    1    4    4    0    0 -0.12297769372E+02  0.14682266343E+02  0.14246624949E+03  0.14374782197E+03  0.00000000000E+00 0.  1.
         14    1    4    4    0    0 -0.48826785865E+02 -0.26366814317E+02  0.58476172836E+02  0.80614680453E+02  0.00000000000E+00 0. -1.
         -5    1    5    5    0  501 -0.45477369502E+02 -0.17014539783E+02  0.14816982193E+03  0.15599381985E+03  0.47000000000E+01 0.  1.
         13    1    6    6    0    0  0.27500450372E+02  0.37146756568E+02  0.94083587070E+02  0.10482307785E+03  0.00000000000E+00 0. -1.
        -14    1    6    6    0    0  0.24396510723E+02  0.58245795460E+02  0.56067890621E+03  0.56422389022E+03  0.00000000000E+00 0.  1.
</event>
<event>
12    1  0.2625820E-002  0.1875433E+03  0.7818608E-02  0.1160696E+00
          1   -1    0    0  502    0  0.00000000000E+00  0.00000000000E+00  0.17147560309E+04  0.17147560309E+04  0.00000000000E+00 0.  1.
         -1   -1    0    0    0  501 -0.00000000000E+00 -0.00000000000E+00 -0.21586422083E+02  0.21586422083E+02  0.00000000000E+00 0. -1.
          6    2    1    2  502    0 -0.29750474535E+01 -0.77282129691E+02  0.10340755766E+04  0.10506921397E+04  0.16929351978E+03 0.  0.
         24    2    3    3    0    0 -0.17397799733E+02 -0.57980847005E+02  0.30564663677E+03  0.32184965626E+03  0.80640390677E+02 0.  0.
         -6    2    1    2    0  501  0.29750474535E+01  0.77282129691E+02  0.65909403220E+03  0.68565031326E+03  0.17242398418E+03 0.  0.
        -24    2    5    5    0    0 -0.31740753507E+02  0.38824033991E+02  0.59947081414E+03  0.60652237829E+03  0.77390938179E+02 0.  0.
          5    1    3    3  502    0  0.14422752279E+02 -0.19301282686E+02  0.72842893986E+03  0.72884248348E+03  0.47000000000E+01 0. -1.
        -13    1    4    4    0    0  0.28975625162E+02 -0.35680238144E+02  0.18622970308E+03  0.19181806108E+03  0.00000000000E+00 0.  1.
         14    1    4    4    0    0 -0.46373424895E+02 -0.22300608861E+02  0.11941693370E+03  0.13003159518E+03  0.00000000000E+00 0. -1.
         -5    1    5    5    0  501  0.34715800960E+02  0.38458095700E+02  0.59623218058E+02  0.79127934971E+02  0.47000000000E+01 0.  1.
         11    1    6    6    0    0 -0.23649939746E+02  0.33424248589E+02  0.11707401181E+03  0.12402751422E+03  0.00000000000E+00 0. -1.
        -12    1    6    6    0    0 -0.80908137602E+01  0.53997854013E+01  0.48239680234E+03  0.48249486407E+03  0.00000000000E+00 0.  1.
</event>
<event>
12    1  0.2625820E-002  0.1802890E+03  0.7818608E-02  0.1167524E+00
          2   -1    0    0  502    0  0.00000000000E+00  0.00000000000E+00  0.12338709380E+04  0.12338709380E+04  0.00000000000E+00 0.  1.
         -2   -1    0    0    0  501 -0.00000000000E+00 -0.00000000000E+00 -0.32154317616E+02  0.32154317616E+02  0.00000000000E+00 0. -1.
          6    2    1    2  502    0 -0.32076200685E+02  0.46016080672E+02  0.33475168371E+03  0.38073313838E+03  0.17248962458E+03 0.  0.
         24    2    3    3    0    0 -0.64234488819E+02  0.31538676330E+02  0.32701201393E+03  0.34432238145E+03  0.80624360164E+02 0.  0.
         -6    2    1    2    0  501  0.32076200685E+02 -0.46016080672E+02  0.86696493667E+03  0.88529211722E+03  0.17019861656E+03 0.  0.
        -24    2    5    5    0    0 -0.23819407803E+02  0.21360576533E+02  0.55817274654E+03  0.56429579378E+03  0.76480647712E+02 0.  0.
          5    1    3    3  502    0  0.32158288134E+02  0.14477404342E+02  0.77396697737E+01  0.36410756933E+02  0.47000000000E+01 0. -1.
        -13    1    4    4    0    0 -0.49087631768E+02 -0.13589905842E+02  0.23791538471E+03  0.24330641466E+03  0.00000000000E+00 0.  1.
         14    1    4    4    0    0 -0.15146857052E+02  0.45128582172E+02  0.89096629226E+02  0.10101596679E+03  0.00000000000E+00 0. -1.
         -5    1    5    5    0  501  0.55895608487E+02 -0.67376657205E+02  0.30879219012E+03  0.32099632344E+03  0.47000000000E+01 0.  1.
         13    1    6    6    0    0 -0.29050303997E+02  0.19524704884E+02  0.97546031959E+02  0.10363572074E+03  0.00000000000E+00 0. -1.
        -14    1    6    6    0    0  0.52308961943E+01  0.18358716496E+01  0.46062671459E+03  0.46066007304E+03  0.00000000000E+00 0.  1.
</event>
<event>
12    1  0.2625820E-002  0.2268406E+03  0.7818608E-02  0.1128883E+00
         -2   -1    0    0    0  501 -0.00000000000E+00  0.00000000000E+00  0.63375775696E+02  0.63375775696E+02  0.00000000000E+00 0.  1.
          2   -1    0    0  502    0  0.00000000000E+00 -0.00000000000E+00 -0.91058016731E+03  0.91058016731E+03  0.00000000000E+00 0. -1.
          6    2    1    2  502    0 -0.14796356531E+03  0.28755817275E+02 -0.58653256244E+03  0.62945395472E+03  0.17167329620E+03 0.  0.
         24    2    3    3    0    0 -0.75158114753E+01  0.25325229026E+02 -0.26393247474E+03  0.27755873299E+03  0.81735208996E+02 0.  0.
         -6    2    1    2    0  501  0.14796356531E+03 -0.28755817275E+02 -0.26067182917E+03  0.34450198828E+03  0.16736697320E+03 0.  0.
        -24    2    5    5    0    0  0.62444378853E+02  0.22010316894E+02 -0.21036290572E+03  0.23295016441E+03  0.75029810695E+02 0.  0.
          5    1    3    3  502    0 -0.14044775384E+03  0.34305882492E+01 -0.32260008769E+03  0.35189522173E+03  0.47000000000E+01 0. -1.
        -13    1    4    4    0    0  0.10423480720E+02  0.24326027654E+02 -0.20531387011E+02  0.33495409004E+02  0.00000000000E+00 0.  1.
         14    1    4    4    0    0 -0.17939292196E+02  0.99920137216E+00 -0.24340108773E+03  0.24406332399E+03  0.00000000000E+00 0. -1.
         -5    1    5    5    0  501  0.85519186460E+02 -0.50766134169E+02 -0.50308923453E+02  0.11155182388E+03  0.47000000000E+01 0.  1.
         11    1    6    6    0    0  0.26312891177E+02 -0.63279594104E+01 -0.16898562560E+03  0.17113898730E+03  0.00000000000E+00 0. -1.
        -12    1    6    6    0    0  0.36131487676E+02  0.28338276304E+02 -0.41377280117E+02  0.61811177108E+02  0.00000000000E+00 0.  1.
</event>
<event>
12    1  0.2625820E-002  0.2188310E+03  0.7818608E-02  0.1134758E+00
          2   -1    0    0  502    0  0.00000000000E+00  0.00000000000E+00  0.21111063900E+03  0.21111063900E+03  0.00000000000E+00 0. -1.
         -2   -1    0    0    0  501 -0.00000000000E+00 -0.00000000000E+00 -0.95429657668E+03  0.95429657668E+03  0.00000000000E+00 0.  1.
          6    2    1    2  502    0 -0.12158837798E+03 -0.56295655612E+02  0.13689937719E+03  0.25868175777E+03  0.17384440695E+03 0.  0.
         24    2    3    3    0    0 -0.70843527032E+02 -0.38597317749E+02  0.21919287777E+01  0.11357332342E+03  0.79909555007E+02 0.  0.
         -6    2    1    2    0  501  0.12158837798E+03  0.56295655612E+02 -0.88008531486E+03  0.90672545792E+03  0.17218583012E+03 0.  0.
        -24    2    5    5    0    0  0.66900997094E+02  0.96195664453E+02 -0.47571441240E+03  0.49670029150E+03  0.81716755577E+02 0.  0.
          5    1    3    3  502    0 -0.50744850944E+02 -0.17698337863E+02  0.13470744841E+03  0.14510843434E+03  0.47000000000E+01 0. -1.
        -13    1    4    4    0    0 -0.13517776061E+02  0.18412361164E+02 -0.19315536825E+02  0.29913797420E+02  0.00000000000E+00 0.  1.
         14    1    4    4    0    0 -0.57325750971E+02 -0.57009678913E+02  0.21507465602E+02  0.83659526001E+02  0.00000000000E+00 0. -1.
         -5    1    5    5    0  501  0.54687380882E+02 -0.39900008841E+02 -0.40437090247E+03  0.41002516642E+03  0.47000000000E+01 0.  1.
         11    1    6    6    0    0 -0.14497541176E+02  0.26606513347E+02 -0.17224378401E+03  0.17488855417E+03  0.00000000000E+00 0. -1.
        -12    1    6    6    0    0  0.81398538270E+02  0.69589151105E+02 -0.30347062839E+03  0.32181173733E+03  0.00000000000E+00 0.  1.
</event>
<event>
12    1  0.2625820E-002  0.1805512E+03  0.7818608E-02  0.1167271E+00
         -2   -1    0    0    0  501 -0.00000000000E+00  0.00000000000E+00  0.69030588828E+02  0.69030588828E+02  0.00000000000E+00 0.  1.
          2   -1    0    0  502    0  0.00000000000E+00 -0.00000000000E+00 -0.51528083387E+03  0.51528083387E+03  0.00000000000E+00 0. -1.
          6    2    1    2  502    0 -0.57025135170E+02  0.98862109466E+00 -0.13848946124E+03  0.22741133718E+03  0.17112493094E+03 0.  0.
         24    2    3    3    0    0 -0.87217767912E+01 -0.46809603953E+02 -0.34366836716E+02  0.10298667850E+03  0.84604775699E+02 0.  0.
         -6    2    1    2    0  501  0.57025135170E+02 -0.98862109466E+00 -0.30776078380E+03  0.35690008551E+03  0.17148798087E+03 0.  0.
        -24    2    5    5    0    0  0.94131501056E+02 -0.15494474236E+02 -0.26662042177E+03  0.29943773652E+03  0.97343158579E+02 0.  0.
          5    1    3    3  502    0 -0.48303358379E+02  0.47798225047E+02 -0.10412262452E+03  0.12442465867E+03  0.47000000000E+01 0. -1.
        -13    1    4    4    0    0  0.32917170070E+02 -0.10081589610E+02 -0.32636012370E+02  0.47437198883E+02  0.00000000000E+00 0.  1.
         14    1    4    4    0    0 -0.41638946861E+02 -0.36728014343E+02 -0.17308243456E+01  0.55549479621E+02  0.00000000000E+00 0. -1.
         -5    1    5    5    0  501 -0.37106365886E+02  0.14505853141E+02 -0.41140362026E+02  0.57462348997E+02  0.47000000000E+01 0.  1.
         11    1    6    6    0    0  0.38809395356E+02  0.10611814433E+02 -0.21692129903E+03  0.22062100931E+03  0.00000000000E+00 0. -1.
        -12    1    6    6    0    0  0.55322105700E+02 -0.26106288669E+02 -0.49699122737E+02  0.78816727209E+02  0.00000000000E+00 0.  1.
</event>
<event>
12    1  0.2625820E-002  0.2682921E+03  0.7818608E-02  0.1102261E+00
         -1   -1    0    0    0  501 -0.00000000000E+00  0.00000000000E+00  0.39218569352E+03  0.39218569352E+03  0.00000000000E+00 0.  1.
          1   -1    0    0  502    0  0.00000000000E+00 -0.00000000000E+00 -0.25796357240E+03  0.25796357240E+03  0.00000000000E+00 0. -1.
          6    2    1    2  502    0 -0.18853012528E+03 -0.69149485746E+02 -0.10651333433E+03  0.29335200112E+03  0.18543205401E+03 0.  0.
         24    2    3    3    0    0 -0.10036190107E+03 -0.89619666566E+02 -0.32042836817E+01  0.15592014889E+03  0.78718673600E+02 0.  0.
         -6    2    1    2    0  501  0.18853012528E+03  0.69149485746E+02  0.24073545545E+03  0.35679726479E+03  0.17036862721E+03 0.  0.
        -24    2    5    5    0    0  0.88482188125E+02 -0.12852448376E+02  0.17269539514E+03  0.21055962690E+03  0.80730254155E+02 0.  0.
          5    1    3    3  502    0 -0.88168224205E+02  0.20470180820E+02 -0.10330905065E+03  0.13743185223E+03  0.47000000000E+01 0. -1.
        -11    1    4    4    0    0 -0.98534686148E+02 -0.46185392153E+02  0.12849931814E+02  0.10957780601E+03  0.00000000000E+00 0.  1.
         12    1    4    4    0    0 -0.18272149238E+01 -0.43434274413E+02 -0.16054215496E+02  0.46342342877E+02  0.00000000000E+00 0. -1.
         -5    1    5    5    0  501  0.10004793715E+03  0.82001934122E+02  0.68040060315E+02  0.14623763789E+03  0.47000000000E+01 0.  1.
         11    1    6    6    0    0 -0.10835652315E+02  0.24150276823E+01  0.40657143206E+00  0.11108961254E+02  0.00000000000E+00 0. -1.
        -12    1    6    6    0    0  0.99317840441E+02 -0.15267476059E+02  0.17228882370E+03  0.19945066565E+03  0.00000000000E+00 0.  1.
</event>
<event>
12    1  0.2625820E-002  0.1773438E+03  0.7818608E-02  0.1170399E+00
         -1   -1    0    0    0  501 -0.00000000000E+00  0.00000000000E+00  0.53532809303E+02  0.53532809303E+02  0.00000000000E+00 0. -1.
          1   -1    0    0  502    0  0.00000000000E+00 -0.00000000000E+00 -0.78274555462E+03  0.78274555462E+03  0.00000000000E+00 0.  1.
          6    2    1    2  502    0 -0.45061852320E+02  0.95602987229E+01 -0.15614654791E+03  0.23646952427E+03  0.17150545659E+03 0.  0.
         24    2    3    3    0    0 -0.26134736012E+02  0.37634051024E+02 -0.19129273353E+02  0.95252688070E+02  0.81288371017E+02 0.  0.
         -6    2    1    2    0  501  0.45061852320E+02 -0.95602987229E+01 -0.57306619741E+03  0.59980883965E+03  0.17100820936E+03 0.  0.
        -24    2    5    5    0    0 -0.29422451895E+01 -0.54676496782E+02 -0.21923291387E+03  0.23986447278E+03  0.80459422509E+02 0.  0.
          5    1    3    3  502    0 -0.18927116307E+02 -0.28073752301E+02 -0.13701727456E+03  0.14121683620E+03  0.47000000000E+01 0. -1.
        -13    1    4    4    0    0  0.26079661991E+02  0.12646264693E+02  0.97278164025E+01  0.30572981409E+02  0.00000000000E+00 0.  1.
         14    1    4    4    0    0 -0.52214398004E+02  0.24987786331E+02 -0.28857089755E+02  0.64679706661E+02  0.00000000000E+00 0. -1.
         -5    1    5    5    0  501  0.48004097509E+02  0.45116198059E+02 -0.35383328354E+03  0.35994436687E+03  0.47000000000E+01 0.  1.
         13    1    6    6    0    0  0.21517889897E+02 -0.64070915218E+01 -0.11551337672E+02  0.25248837783E+02  0.00000000000E+00 0. -1.
        -14    1    6    6    0    0 -0.24460135086E+02 -0.48269405260E+02 -0.20768157620E+03  0.21461563500E+03  0.00000000000E+00 0.  1.
</event>
<event>
12    1  0.2625820E-002  0.2065467E+03  0.7818608E-02  0.1144330E+00
          2   -1    0    0  502    0  0.00000000000E+00  0.00000000000E+00  0.17122486998E+04  0.17122486998E+04  0.00000000000E+00 0.  1.
         -2   -1    0    0    0  501 -0.00000000000E+00 -0.00000000000E+00 -0.28184418992E+02  0.28184418992E+02  0.00000000000E+00 0. -1.
          6    2    1    2  502    0 -0.81386983618E+02  0.89620334771E+02  0.11187575323E+04  0.11367391780E+04  0.16094066377E+03 0.  0.
         24    2    3    3    0    0 -0.10960915295E+03  0.10056392839E+03  0.99717248468E+03  0.10113547018E+04  0.79737685282E+02 0.  0.
         -6    2    1    2    0  501  0.81386983618E+02 -0.89620334771E+02  0.56530674851E+03  0.60369394078E+03  0.17383615479E+03 0.  0.
        -24    2    5    5    0    0  0.35307244991E+01 -0.64967162853E+02  0.16219658432E+03  0.19236770718E+03  0.80401520735E+02 0.  0.
          5    1    3    3  502    0  0.28222169332E+02 -0.10943593615E+02  0.12158504761E+03  0.12538447625E+03  0.47000000000E+01 0. -1.
        -11    1    4    4    0    0 -0.77944012221E+02  0.49138585064E+02  0.37076096055E+03  0.38203868842E+03  0.00000000000E+00 0.  1.
         12    1    4    4    0    0 -0.31665140729E+02  0.51425343322E+02  0.62641152413E+03  0.62931601333E+03  0.00000000000E+00 0. -1.
         -5    1    5    5    0  501  0.77856259119E+02 -0.24653171918E+02  0.40311016419E+03  0.41132623360E+03  0.47000000000E+01 0.  1.
         11    1    6    6    0    0  0.14053166220E+02 -0.29683097723E+02  0.79537736460E+01  0.33791127333E+02  0.00000000000E+00 0. -1.
        -12    1    6    6    0    0 -0.10522441721E+02 -0.35284065130E+02  0.15424281067E+03  0.15857657985E+03  0.00000000000E+00 0.  1.
</event>
<event>
12    1  0.2625820E-002  0.1843980E+03  0.7818608E-02  0.1163613E+00
         -2   -1    0    0    0  501 -0.00000000000E+00  0.00000000000E+00  0.38295184178E+02  0.38295184178E+02  0.00000000000E+00 0. -1.
          2   -1    0    0  502    0  0.00000000000E+00 -0.00000000000E+00 -0.10956034005E+04  0.10956034005E+04  0.00000000000E+00 0.  1.
          6    2    1    2  502    0 -0.18432269261E+02  0.59321386848E+02 -0.27600659738E+03  0.33053858139E+03  0.17093079449E+03 0.  0.
         24    2    3    3    0    0 -0.46250455796E+01 -0.34712939661E+02 -0.12933190874E+03  0.15569966045E+03  0.79304870093E+02 0.  0.
         -6    2    1    2    0  501  0.18432269261E+02 -0.59321386848E+02 -0.78130161898E+03  0.80336000332E+03  0.17634142913E+03 0.  0.
        -24    2    5    5    0    0  0.58518458989E+02  0.60401112955E+01 -0.29331082013E+03  0.30935986384E+03  0.78812404872E+02 0.  0.
          5    1    3    3  502    0 -0.13807223682E+02  0.94034326510E+02 -0.14667468864E+03  0.17483892094E+03  0.47000000000E+01 0. -1.
        -13    1    4    4    0    0  0.34617218306E+02 -0.17645304994E+02 -0.88041042072E+02  0.96233745021E+02  0.00000000000E+00 0.  1.
         14    1    4    4    0    0 -0.39242263886E+02 -0.17067634668E+02 -0.41290866667E+02  0.59465915432E+02  0.00000000000E+00 0. -1.
         -5    1    5    5    0  501 -0.40086189728E+02 -0.65361498144E+02 -0.48799079885E+03  0.49400013948E+03  0.47000000000E+01 0.  1.
         11    1    6    6    0    0  0.72512197919E+02 -0.12663670954E+02 -0.19835108584E+03  0.21156923373E+03  0.00000000000E+00 0. -1.
        -12    1    6    6    0    0 -0.13993738930E+02  0.18703782249E+02 -0.94959734292E+02  0.97790630105E+02  0.00000000000E+00 0.  1.
</event>
<event>
12    1  0.2625820E-002  0.1992524E+03  0.7818608E-02  0.1150371E+00
         -2   -1    0    0    0  501 -0.00000000000E+00  0.00000000000E+00  0.15002354406E+03  0.15002354406E+03  0.00000000000E+00 0. -1.
          2   -1    0    0  502    0  0.00000000000E+00 -0.00000000000E+00 -0.29716394115E+03  0.29716394115E+03  0.00000000000E+00 0.  1.
          6    2    1    2  502    0 -0.33463266164E+02 -0.95982267537E+02  0.14933781302E+00  0.20002061473E+03  0.17226676450E+03 0.  0.
         24    2    3    3    0    0 -0.54196292669E+02 -0.12813662968E+03 -0.91085836649E+01  0.16037770234E+03  0.79257852012E+02 0.  0.
         -6    2    1    2    0  501  0.33463266164E+02  0.95982267537E+02 -0.14728973490E+03  0.24716687047E+03  0.17048404614E+03 0.  0.
        -24    2    5    5    0    0 -0.29195759318E+02  0.57760023658E+02 -0.47249090905E+02  0.12300039411E+03  0.93316706249E+02 0.  0.
          5    1    3    3  502    0  0.20733026505E+02  0.32154362144E+02  0.92579214779E+01  0.39642912394E+02  0.47000000000E+01 0. -1.
        -13    1    4    4    0    0 -0.16281934637E+02  0.32721969807E+01 -0.16497889450E+02  0.23409165404E+02  0.00000000000E+00 0.  1.
         14    1    4    4    0    0 -0.37914358032E+02 -0.13140882666E+03  0.73893057852E+01  0.13696853693E+03  0.00000000000E+00 0. -1.
         -5    1    5    5    0  501  0.62659025481E+02  0.38222243879E+02 -0.10004064400E+03  0.12416647636E+03  0.47000000000E+01 0.  1.
         13    1    6    6    0    0 -0.35725006522E+01  0.23180173329E+02  0.27870034658E+02  0.36425568332E+02  0.00000000000E+00 0. -1.
        -14    1    6    6    0    0 -0.25623258665E+02  0.34579850328E+02 -0.75119125563E+02  0.86574825779E+02  0.00000000000E+00 0.  1.
</event>
<event>
12    1  0.2625820E-002  0.2000821E+03  0.7818608E-02  0.1149670E+00
          2   -1    0    0  502    0  0.00000000000E+00  0.00000000000E+00  0.70051250852E+03  0.70051250852E+03  0.00000000000E+00 0. -1.
         -2   -1    0    0    0  501 -0.00000000000E+00 -0.00000000000E+00 -0.17925181329E+03  0.17925181329E+03  0.00000000000E+00 0.  1.
          6    2    1    2  502    0 -0.24718714189E+02 -0.99638990668E+02  0.62360548537E+03  0.65486063881E+03  0.17152175250E+03 0.  0.
         24    2    3    3    0    0 -0.40390387953E+02 -0.55025152857E+02  0.17835966229E+03  0.20708622144E+03  0.80083600626E+02 0.  0.
         -6    2    1    2    0  501  0.24718714189E+02  0.99638990668E+02 -0.10234479015E+03  0.22490368300E+03  0.17195425922E+03 0.  0.
        -24    2    5    5    0    0 -0.43238141633E+02  0.67651334828E+02 -0.22299795143E+02  0.11503723860E+03  0.79309806488E+02 0.  0.
          5    1    3    3  502    0  0.15671673764E+02 -0.44613837811E+02  0.44524582308E+03  0.44777441737E+03  0.47000000000E+01 0. -1.
        -11    1    4    4    0    0 -0.14218162847E+02  0.18958889678E+02  0.65235438745E+02  0.69406470310E+02  0.00000000000E+00 0.  1.
         12    1    4    4    0    0 -0.26172225106E+02 -0.73984042535E+02  0.11312422355E+03  0.13767975113E+03  0.00000000000E+00 0. -1.
         -5    1    5    5    0  501  0.67956855822E+02  0.31987655840E+02 -0.80044995010E+02  0.10986644440E+03  0.47000000000E+01 0.  1.
         13    1    6    6    0    0  0.18280356733E+02  0.15607057732E+02  0.12698956436E+02  0.27184833785E+02  0.00000000000E+00 0. -1.
        -14    1    6    6    0    0 -0.61518498366E+02  0.52044277096E+02 -0.34998751579E+02  0.87852404815E+02  0.00000000000E+00 0.  1.
</event>
<event>
12    1  0.2625820E-002  0.2065205E+03  0.7818608E-02  0.1144351E+00
         -2   -1    0    0    0  501 -0.00000000000E+00  0.00000000000E+00  0.14330120091E+03  0.14330120091E+03  0.00000000000E+00 0.  1.
          2   -1    0    0  502    0  0.00000000000E+00 -0.00000000000E+00 -0.68966514809E+03  0.68966514809E+03  0.00000000000E+00 0. -1.
          6    2    1    2  502    0 -0.26400518358E+02  0.11174968272E+03  0.41166866710E+02  0.20999637437E+03  0.17093503847E+03 0.  0.
         24    2    3    3    0    0 -0.81988091527E+02  0.92220034786E+02  0.29496991379E+02  0.14974970285E+03  0.79550732465E+02 0.  0.
         -6    2    1    2    0  501  0.26400518358E+02 -0.11174968272E+03 -0.58753081388E+03  0.62296997462E+03  0.17237793670E+03 0.  0.
        -24    2    5    5    0    0  0.44810143559E+01 -0.10924957707E+03 -0.58500717136E+03  0.60027253081E+03  0.78346481237E+02 0.  0.
          5    1    3    3  502    0  0.55587573169E+02  0.19529647933E+02  0.11669875331E+02  0.60246671522E+02  0.47000000000E+01 0. -1.
        -11    1    4    4    0    0 -0.79054529609E+02  0.10599578307E+03  0.30246868902E+02  0.13564511698E+03  0.00000000000E+00 0.  1.
         12    1    4    4    0    0 -0.29335619182E+01 -0.13775748288E+02 -0.74987752344E+00  0.14104585876E+02  0.00000000000E+00 0. -1.
         -5    1    5    5    0  501  0.21919504002E+02 -0.25001056483E+01 -0.25236425194E+01  0.22697443810E+02  0.47000000000E+01 0.  1.
         13    1    6    6    0    0 -0.92330093792E+01  0.10488002108E+02 -0.57730305333E+02  0.59397262599E+02  0.00000000000E+00 0. -1.
        -14    1    6    6    0    0  0.13714023735E+02 -0.11973757918E+03 -0.52727686603E+03  0.54087526822E+03  0.00000000000E+00 0.  1.
</event>
<event>
12    1  0.2625820E-002  0.1973129E+03  0.7818608E-02  0.1152026E+00
          2   -1    0    0  502    0  0.00000000000E+00  0.00000000000E+00  0.11340337374E+04  0.11340337374E+04  0.00000000000E+00 0.  1.
         -2   -1    0    0    0  501 -0.00000000000E+00 -0.00000000000E+00 -0.50765314732E+02  0.50765314732E+02  0.00000000000E+00 0. -1.
          6    2    1    2  502    0 -0.89132632497E+02  0.45687096596E+02  0.21427085879E+03  0.29477441871E+03  0.17592049349E+03 0.  0.
         24    2    3    3    0    0 -0.29181460283E+01 -0.29444828683E+02  0.61872868287E+02  0.10418328203E+03  0.78424428027E+02 0.  0.
         -6    2    1    2    0  501  0.89132632497E+02 -0.45687096596E+02  0.86899756389E+03  0.89002463343E+03  0.16418022141E+03 0.  0.
        -24    2    5    5    0    0  0.11045805191E+03 -0.75767298310E+02  0.71782975041E+03  0.73435385943E+03  0.77809867968E+02 0.  0.
          5    1    3    3  502    0 -0.86214486468E+02  0.75131925279E+02  0.15239799051E+03  0.19059113669E+03  0.47000000000E+01 0. -1.
        -13    1    4    4    0    0 -0.12271769238E+02  0.17801478020E+02  0.50152152141E+02  0.54614350718E+02  0.00000000000E+00 0.  1.
         14    1    4    4    0    0  0.93536232094E+01 -0.47246306703E+02  0.11720716146E+02  0.49568931309E+02  0.00000000000E+00 0. -1.
         -5    1    5    5    0  501 -0.21325419414E+02  0.30080201715E+02  0.15116781348E+03  0.15567077401E+03  0.47000000000E+01 0.  1.
         13    1    6    6    0    0  0.10203816744E+03 -0.37945012904E+02  0.41444581099E+03  0.42850547472E+03  0.00000000000E+00 0. -1.
        -14    1    6    6    0    0  0.84198844706E+01 -0.37822285406E+02  0.30338393942E+03  0.30584838470E+03  0.00000000000E+00 0.  1.
</event>
<event>
12    1  0.2625820E-002  0.1972137E+03  0.7818608E-02  0.1152111E+00
         -1   -1    0    0    0  501 -0.00000000000E+00  0.00000000000E+00  0.12926978109E+03  0.12926978109E+03  0.00000000000E+00 0. -1.
          1   -1    0    0  502    0  0.00000000000E+00 -0.00000000000E+00 -0.39702470020E+03  0.39702470020E+03  0.00000000000E+00 0.  1.
          6    2    1    2  502    0  0.80767255276E+02 -0.54746499054E+02 -0.43396877525E+01  0.19719275863E+03  0.17130564055E+03 0.  0.
         24    2    3    3    0    0  0.59849127387E+02  0.17058377437E+02  0.41246084180E+02  0.10947924220E+03  0.80072209430E+02 0.  0.
         -6    2    1    2    0  501 -0.80767255276E+02  0.54746499054E+02 -0.26341523135E+03  0.32910172266E+03  0.17146378937E+03 0.  0.
        -24    2    5    5    0    0 -0.29251493871E+02  0.49765366415E+02 -0.25897707294E+03  0.27694357271E+03  0.79349710580E+02 0.  0.
          5    1    3    3  502    0  0.20918127889E+02 -0.71804876491E+02 -0.45585771933E+02  0.87713516432E+02  0.47000000000E+01 0. -1.
        -11    1    4    4    0    0  0.14223025598E+00  0.31053017191E+02 -0.65397156556E+01  0.31734492071E+02  0.00000000000E+00 0.  1.
         12    1    4    4    0    0  0.59706897131E+02 -0.13994639755E+02  0.47785799836E+02  0.77744750130E+02  0.00000000000E+00 0. -1.
         -5    1    5    5    0  501 -0.51515761406E+02  0.49811326396E+01 -0.44381584100E+01  0.52158149945E+02  0.47000000000E+01 0.  1.
         11    1    6    6    0    0 -0.19335092727E+02  0.12947612828E+02 -0.10450156593E+02  0.25508670321E+02  0.00000000000E+00 0. -1.
        -12    1    6    6    0    0 -0.99164011436E+01  0.36817753587E+02 -0.24852691635E+03  0.25143490239E+03  0.00000000000E+00 0.  1.
</event>
<event>
12    1  0.2625820E-002  0.2365411E+03  0.7818608E-02  0.1122119E+00
          2   -1    0    0  502    0  0.00000000000E+00  0.00000000000E+00  0.68334227123E+03  0.68334227123E+03  0.00000000000E+00 0. -1.
         -2   -1    0    0    0  501 -0.00000000000E+00 -0.00000000000E+00 -0.10789890433E+03  0.10789890433E+03  0.00000000000E+00 0.  1.
          6    2    1    2  502    0  0.13760414726E+03 -0.59896237923E+02  0.88681811323E+02  0.24765302035E+03  0.17591217743E+03 0.  0.
         24    2    3    3    0    0  0.39180012291E+02  0.27213762904E+02  0.67238768720E+02  0.11439628820E+03  0.79308237152E+02 0.  0.
         -6    2    1    2    0  501 -0.13760414726E+03  0.59896237923E+02  0.48676155558E+03  0.54358815521E+03  0.18981256501E+03 0.  0.
        -24    2    5    5    0    0 -0.60769965686E+02  0.29923311275E+01  0.88448110688E+02  0.13393313394E+03  0.80081666496E+02 0.  0.
          5    1    3    3  502    0  0.98424134966E+02 -0.87110000826E+02  0.21443042604E+02  0.13325673215E+03  0.47000000000E+01 0. -1.
        -11    1    4    4    0    0 -0.76331948803E+01  0.41119473177E+02  0.42600066628E+02  0.59697926390E+02  0.00000000000E+00 0.  1.
         12    1    4    4    0    0  0.46813207171E+02 -0.13905710274E+02  0.24638702091E+02  0.54698361809E+02  0.00000000000E+00 0. -1.
         -5    1    5    5    0  501 -0.76834181570E+02  0.56903906795E+02  0.39831344489E+03  0.40965502126E+03  0.47000000000E+01 0.  1.
         11    1    6    6    0    0 -0.46773635944E+02 -0.92375329355E+01  0.10087521124E+03  0.11157469819E+03  0.00000000000E+00 0. -1.
        -12    1    6    6    0    0 -0.13996329742E+02  0.12229864063E+02 -0.12427100550E+02  0.22358435753E+02  0.00000000000E+00 0.  1.
</event>
<event>
12    1  0.2625820E-002  0.2021098E+03  0.7818608E-02  0.1147971E+00
         -1   -1    0    0    0  501 -0.00000000000E+00  0.00000000000E+00  0.29767311932E+02  0.29767311932E+02  0.00000000000E+00 0.  1.
          1   -1    0    0  502    0  0.00000000000E+00 -0.00000000000E+00 -0.13856392734E+04  0.13856392734E+04  0.00000000000E+00 0. -1.
          6    2    1    2  502    0  0.12479747970E+02 -0.10573594464E+03 -0.60916251073E+03  0.64188909899E+03  0.17206631520E+03 0.  0.
         24    2    3    3    0    0  0.81527272662E+01  0.18094217708E+02 -0.21836713929E+03  0.23189428859E+03  0.75477717795E+02 0.  0.
         -6    2    1    2    0  501 -0.12479747970E+02  0.10573594464E+03 -0.74670945073E+03  0.77351748633E+03  0.17151811495E+03 0.  0.
        -24    2    5    5    0    0 -0.40576631191E+02  0.13073129759E+03 -0.52488754414E+03  0.54848137643E+03  0.81164962460E+02 0.  0.
          5    1    3    3  502    0  0.43270207039E+01 -0.12383016235E+03 -0.39079537145E+03  0.40999481040E+03  0.47000000000E+01 0. -1.
        -11    1    4    4    0    0 -0.13910734051E+02  0.20421710755E+02 -0.18673052338E+02  0.30971562370E+02  0.00000000000E+00 0.  1.
         12    1    4    4    0    0  0.22063461317E+02 -0.23274930470E+01 -0.19969408695E+03  0.20092272622E+03  0.00000000000E+00 0. -1.
         -5    1    5    5    0  501  0.28096883221E+02 -0.24995352954E+02 -0.22182190659E+03  0.22503610991E+03  0.47000000000E+01 0.  1.
         13    1    6    6    0    0 -0.55248904393E+02  0.93648729967E+02 -0.45691003658E+03  0.46966935986E+03  0.00000000000E+00 0. -1.
        -14    1    6    6    0    0  0.14672273201E+02  0.37082567626E+02 -0.67977507556E+02  0.78812016572E+02  0.00000000000E+00 0.  1.
</event>
<event>
12    1  0.2625820E-002  0.2040780E+03  0.7818608E-02  0.1146343E+00
          2   -1    0    0  502    0  0.00000000000E+00  0.00000000000E+00  0.70009040333E+03  0.70009040333E+03  0.00000000000E+00 0.  1.
         -2   -1    0    0    0  501 -0.00000000000E+00 -0.00000000000E+00 -0.75830892577E+02  0.75830892577E+02  0.00000000000E+00 0. -1.
          6    2    1    2  502    0 -0.98891292945E+02 -0.83415084775E+01  0.12512730378E+03  0.23433037194E+03  0.17147831489E+03 0.  0.
         24    2    3    3    0    0 -0.50696862132E+02  0.61095972436E+02  0.62990367110E+02  0.12931915437E+03  0.80329120871E+02 0.  0.
         -6    2    1    2    0  501  0.98891292945E+02  0.83415084775E+01  0.49913220697E+03  0.54159092397E+03  0.18530704332E+03 0.  0.
        -24    2    5    5    0    0  0.12099023786E+03 -0.21206798416E+02  0.24811832409E+03  0.28783607139E+03  0.78730777261E+02 0.  0.
          5    1    3    3  502    0 -0.48194430813E+02 -0.69437480914E+02  0.62136936671E+02  0.10501121757E+03  0.47000000000E+01 0. -1.
        -11    1    4    4    0    0 -0.30731971319E+01  0.16312523331E+02  0.61742215332E+02  0.63934686299E+02  0.00000000000E+00 0.  1.
         12    1    4    4    0    0 -0.47623665000E+02  0.44783449105E+02  0.12481517778E+01  0.65384468069E+02  0.00000000000E+00 0. -1.
         -5    1    5    5    0  501 -0.22098944916E+02  0.29548306893E+02  0.25101388288E+03  0.25375485258E+03  0.47000000000E+01 0.  1.
         13    1    6    6    0    0  0.58524708666E+02 -0.40723596664E+02  0.78581101705E+02  0.10610627877E+03  0.00000000000E+00 0. -1.
        -14    1    6    6    0    0  0.62465529195E+02  0.19516798248E+02  0.16953722238E+03  0.18172979262E+03  0.00000000000E+00 0.  1.
</event>
<event>
12    1  0.2625820E-002  0.1871143E+03  0.7818608E-02  0.1161090E+00
          2   -1    0    0  502    0  0.00000000000E+00  0.00000000000E+00  0.31052294727E+03  0.31052294727E+03  0.00000000000E+00 0. -1.
         -2   -1    0    0    0  501 -0.00000000000E+00 -0.00000000000E+00 -0.11280461633E+03  0.11280461633E+03  0.00000000000E+00 0.  1.
          6    2    1    2  502    0  0.16970918753E+02 -0.71597948171E+02  0.10351266891E+03  0.21390537030E+03  0.17212308548E+03 0.  0.
         24    2    3    3    0    0 -0.25017711518E+02 -0.71582607135E+02  0.91890911916E+01  0.11055125756E+03  0.79919869980E+02 0.  0.
         -6    2    1    2    0  501 -0.16970918753E+02  0.71597948171E+02  0.94205662026E+02  0.20942219330E+03  0.17195543034E+03 0.  0.
        -24    2    5    5    0    0  0.31246419436E+02  0.34266585337E+02  0.11314273178E+03  0.14539684704E+03  0.78666560714E+02 0.  0.
          5    1    3    3  502    0  0.41988630271E+02 -0.15341035962E-01  0.94323577716E+02  0.10335411274E+03  0.47000000000E+01 0. -1.
        -13    1    4    4    0    0 -0.35493339073E+02 -0.60506319853E+02  0.36647565868E+02  0.79144399327E+02  0.00000000000E+00 0.  1.
         14    1    4    4    0    0  0.10475627555E+02 -0.11076287282E+02 -0.27458474676E+02  0.31406858235E+02  0.00000000000E+00 0. -1.
         -5    1    5    5    0  501 -0.48217338189E+02  0.37331362834E+02 -0.18937069758E+02  0.64025346263E+02  0.47000000000E+01 0.  1.
         13    1    6    6    0    0 -0.24157569002E+02  0.17815717908E+02  0.21016374283E+02  0.36642542661E+02  0.00000000000E+00 0. -1.
        -14    1    6    6    0    0  0.55403988438E+02  0.16450867429E+02  0.92126357501E+02  0.10875430438E+03  0.00000000000E+00 0.  1.
</event>
<event>
12    1  0.2625820E-002  0.2588308E+03  0.7818608E-02  0.1107848E+00
          2   -1    0    0  502    0  0.00000000000E+00  0.00000000000E+00  0.65892912029E+03  0.65892912029E+03  0.00000000000E+00 0.  1.
         -2   -1    0    0    0  501 -0.00000000000E+00 -0.00000000000E+00 -0.12619729192E+03  0.12619729192E+03  0.00000000000E+00 0. -1.
          6    2    1    2  502    0  0.42158044849E+01 -0.19265087269E+03  0.93077241491E+02  0.27480321239E+03  0.17239866851E+03 0.  0.
         24    2    3    3    0    0 -0.34131457237E+02 -0.19534829339E+03  0.57662867965E+02  0.22232410786E+03  0.82323086011E+02 0.  0.
         -6    2    1    2    0  501 -0.42158044849E+01  0.19265087269E+03  0.43965458688E+03  0.51032319983E+03  0.17320935530E+03 0.  0.
        -24    2    5    5    0    0  0.21117722284E+01  0.19872138843E+03  0.29600441017E+03  0.36632891988E+03  0.84164225761E+02 0.  0.
          5    1    3    3  502    0  0.38347261722E+02  0.26974207050E+01  0.35414373526E+02  0.52479104530E+02  0.47000000000E+01 0. -1.
        -11    1    4    4    0    0 -0.19664747279E+02 -0.10137374236E+03  0.72388762169E+02  0.12610896405E+03  0.00000000000E+00 0.  1.
         12    1    4    4    0    0 -0.14466709958E+02 -0.93974551028E+02 -0.14725894203E+02  0.96215143808E+02  0.00000000000E+00 0. -1.
         -5    1    5    5    0  501 -0.63275767132E+01 -0.60705157465E+01  0.14365017671E+03  0.14399427995E+03  0.47000000000E+01 0.  1.
         11    1    6    6    0    0 -0.39599547433E+01  0.64642119016E+02  0.36931405348E+02  0.74553427107E+02  0.00000000000E+00 0. -1.
        -12    1    6    6    0    0  0.60717269717E+01  0.13407926942E+03  0.25907300482E+03  0.29177549277E+03  0.00000000000E+00 0.  1.
</event>
<event>
12    1  0.2625820E-002  0.2119616E+03  0.7818608E-02  0.1140022E+00
         -2   -1    0    0    0  501 -0.00000000000E+00  0.00000000000E+00  0.36562246867E+02  0.36562246867E+02  0.00000000000E+00 0.  1.
          2   -1    0    0  502    0  0.00000000000E+00 -0.00000000000E+00 -0.17266490734E+04  0.17266490734E+04  0.00000000000E+00 0. -1.
          6    2    1    2  502    0  0.11369415571E+03 -0.47092906161E+02 -0.37352009721E+03  0.42979524879E+03  0.17338566841E+03 0.  0.
         24    2    3    3    0    0  0.85141154779E+02  0.46748777033E+01 -0.11453616930E+03  0.16410757082E+03  0.80881951042E+02 0.  0.
         -6    2    1    2    0  501 -0.11369415571E+03  0.47092906161E+02 -0.13165667293E+04  0.13334160715E+04  0.17177416588E+03 0.  0.
        -24    2    5    5    0    0 -0.10168529697E+02  0.68424123240E+02 -0.67500714161E+03  0.68319044091E+03  0.79556757645E+02 0.  0.
          5    1    3    3  502    0  0.28553000928E+02 -0.51767783865E+02 -0.25898392791E+03  0.26568767797E+03  0.47000000000E+01 0. -1.
        -13    1    4    4    0    0  0.27214732517E+02  0.38260410243E+02 -0.67724481858E+02  0.82408167683E+02  0.00000000000E+00 0.  1.
         14    1    4    4    0    0  0.57926422261E+02 -0.33585532540E+02 -0.46811687442E+02  0.81699403138E+02  0.00000000000E+00 0. -1.
         -5    1    5    5    0  501 -0.10352562601E+03 -0.21331217078E+02 -0.64155958771E+03  0.65022563056E+03  0.47000000000E+01 0.  1.
         13    1    6    6    0    0  0.17939862980E+02  0.52774645138E+02 -0.58419461249E+03  0.58684780576E+03  0.00000000000E+00 0. -1.
        -14    1    6    6    0    0 -0.28108392677E+02  0.15649478102E+02 -0.90812529115E+02  0.96342635152E+02  0.00000000000E+00 0.  1.
</event>
<event>
12    1  0.2625820E-002  0.1766601E+03  0.7818608E-02  0.1171075E+00
         -1   -1    0    0    0  501 -0.00000000000E+00  0.00000000000E+00  0.11180317051E+02  0.11180317051E+02  0.00000000000E+00 0.  1.
          1   -1    0    0  502    0  0.00000000000E+00 -0.00000000000E+00 -0.30896485923E+04  0.30896485923E+04  0.00000000000E+00 0. -1.
          6    2    1    2  502    0 -0.18833159294E+02  0.27632478551E+02 -0.10509282651E+04  0.10655334251E+04  0.17260654619E+03 0.  0.
         24    2    3    3    0    0 -0.54238163882E+02 -0.13542178092E+02 -0.37333009690E+03  0.38574652151E+03  0.79371585573E+02 0.  0.
         -6    2    1    2    0  501  0.18833159294E+02 -0.27632478551E+02 -0.20275400101E+04  0.20352954843E+04  0.17433007153E+03 0.  0.
        -24    2    5    5    0    0 -0.40590227872E+01  0.41421617412E+02 -0.14989410510E+04  0.15016931326E+04  0.80782200413E+02 0.  0.
          5    1    3    3  502    0  0.35405004588E+02  0.41174656644E+02 -0.67759816823E+03  0.67978690359E+03  0.47000000000E+01 0. -1.
        -13    1    4    4    0    0 -0.49027788112E+02 -0.41481900133E+02 -0.30594519194E+03  0.31261307157E+03  0.00000000000E+00 0.  1.
         14    1    4    4    0    0 -0.52103757702E+01  0.27939722041E+02 -0.67384904957E+02  0.73133449936E+02  0.00000000000E+00 0. -1.
         -5    1    5    5    0  501  0.22892182082E+02 -0.69054095963E+02 -0.52859895910E+03  0.53360235169E+03  0.47000000000E+01 0.  1.
         13    1    6    6    0    0  0.23684631070E+02  0.34510187255E+02 -0.13034954389E+04  0.13041672723E+04  0.00000000000E+00 0. -1.
        -14    1    6    6    0    0 -0.27743653858E+02  0.69114301572E+01 -0.19544561210E+03  0.19752586029E+03  0.00000000000E+00 0.  1.
</event>
<event>
12    1  0.2625820E-002  0.1948231E+03  0.7818608E-02  0.1154182E+00
         -2   -1    0    0    0  501 -0.00000000000E+00  0.00000000000E+00  0.44377574323E+02  0.44377574323E+02  0.00000000000E+00 0.  1.
          2   -1    0    0  502    0  0.00000000000E+00 -0.00000000000E+00 -0.10498261651E+04  0.10498261651E+04  0.00000000000E+00 0. -1.
          6    2    1    2  502    0  0.85585759408E+02  0.30868670101E+02 -0.26864844087E+03  0.33225372515E+03  0.17303975292E+03 0.  0.
         24    2    3    3    0    0  0.12024899222E+03  0.40311116645E+02 -0.25224697895E+03  0.29248190776E+03  0.76369638758E+02 0.  0.
         -6    2    1    2    0  501 -0.85585759408E+02 -0.30868670101E+02 -0.73680014992E+03  0.76195001428E+03  0.17150966833E+03 0.  0.
        -24    2    5    5    0    0 -0.11176664621E+03  0.12797683736E+02 -0.45044236484E+03  0.47106333468E+03  0.79666663830E+02 0.  0.
          5    1    3    3  502    0 -0.34663232811E+02 -0.94424465443E+01 -0.16401461919E+02  0.39771817393E+02  0.47000000000E+01 0. -1.
        -11    1    4    4    0    0  0.17817075395E+02 -0.67284870616E+01 -0.34668817215E+01  0.19358201947E+02  0.00000000000E+00 0.  1.
         12    1    4    4    0    0  0.10243191682E+03  0.47039603707E+02 -0.24878009723E+03  0.27312370581E+03  0.00000000000E+00 0. -1.
         -5    1    5    5    0  501  0.26180886799E+02 -0.43666353837E+02 -0.28635778508E+03  0.29088667960E+03  0.47000000000E+01 0.  1.
         13    1    6    6    0    0 -0.77555722961E+01  0.11237012300E+02 -0.19181408899E+03  0.19229941259E+03  0.00000000000E+00 0. -1.
        -14    1    6    6    0    0 -0.10401107391E+03  0.15606714361E+01 -0.25862827585E+03  0.27876392209E+03  0.00000000000E+00 0.  1.
</event>
<event>
12    1  0.2625820E-002  0.4222056E+03  0.7818608E-02  0.1036351E+00
         -1   -1    0    0    0  501 -0.00000000000E+00  0.00000000000E+00  0.49040749608E+03  0.49040749608E+03  0.00000000000E+00 0. -1.
          1   -1    0    0  502    0  0.00000000000E+00 -0.00000000000E+00 -0.47820221400E+03  0.47820221400E+03  0.00000000000E+00 0.  1.
          6    2    1    2  502    0  0.17611284330E+03  0.34285055035E+03 -0.23109927797E+03  0.48140687441E+03  0.17257887761E+03 0.  0.
         24    2    3    3    0    0  0.13861583168E+03  0.31969309269E+03 -0.24746710735E+03  0.43415976271E+03  0.76398350938E+02 0.  0.
         -6    2    1    2    0  501 -0.17611284330E+03 -0.34285055035E+03  0.24330456005E+03  0.48720283567E+03  0.17206760502E+03 0.  0.
        -24    2    5    5    0    0 -0.15652496623E+03 -0.17163230554E+03  0.17769639558E+03  0.30274174620E+03  0.78223030716E+02 0.  0.
          5    1    3    3  502    0  0.37497011614E+02  0.23157457663E+02  0.16367829381E+02  0.47247111700E+02  0.47000000000E+01 0. -1.
        -13    1    4    4    0    0  0.23899217407E+02  0.14752322668E+03 -0.93766022201E+02  0.17642659074E+03  0.00000000000E+00 0.  1.
         14    1    4    4    0    0  0.11471661428E+03  0.17216986601E+03 -0.15370108515E+03  0.25773317196E+03  0.00000000000E+00 0. -1.
         -5    1    5    5    0  501 -0.19587877068E+02 -0.17121824481E+03  0.65608164471E+02  0.18446108947E+03  0.47000000000E+01 0.  1.
         11    1    6    6    0    0 -0.13000547098E+03 -0.15954954321E+03  0.12034850792E+03  0.23841401507E+03  0.00000000000E+00 0. -1.
        -12    1    6    6    0    0 -0.26519495249E+02 -0.12082762329E+02  0.57347887657E+02  0.64327731131E+02  0.00000000000E+00 0.  1.
</event>
<event>
12    1  0.2625820E-002  0.1882869E+03  0.7818608E-02  0.1160016E+00
          1   -1    0    0  502    0  0.00000000000E+00  0.00000000000E+00  0.30919362027E+03  0.30919362027E+03  0.00000000000E+00 0. -1.
         -1   -1    0    0    0  501 -0.00000000000E+00 -0.00000000000E+00 -0.37160941095E+03  0.37160941095E+03  0.00000000000E+00 0.  1.
          6    2    1    2  502    0 -0.68480255630E+01 -0.73931354584E+02 -0.31428520305E+03  0.36659005131E+03  0.17349448470E+03 0.  0.
         24    2    3    3    0    0  0.60723804089E+02 -0.63642227724E+02 -0.17111462895E+03  0.20787104936E+03  0.78692079570E+02 0.  0.
         -6    2    1    2    0  501  0.68480255630E+01  0.73931354584E+02  0.25186941237E+03  0.31421297990E+03  0.17256550990E+03 0.  0.
        -24    2    5    5    0    0  0.21323670608E+02  0.67080945471E+02  0.26948636329E+03  0.28994531903E+03  0.80565723802E+02 0.  0.
          5    1    3    3  502    0 -0.67571829652E+02 -0.10289126860E+02 -0.14317057410E+03  0.15871900195E+03  0.47000000000E+01 0. -1.
        -11    1    4    4    0    0  0.62863322442E+02 -0.79532985123E+02 -0.13978078212E+03  0.17267298596E+03  0.00000000000E+00 0.  1.
         12    1    4    4    0    0 -0.21395183531E+01  0.15890757399E+02 -0.31333846832E+02  0.35198063396E+02  0.00000000000E+00 0. -1.
         -5    1    5    5    0  501 -0.14475645045E+02  0.68504091135E+01 -0.17616950925E+02  0.24267660875E+02  0.47000000000E+01 0.  1.
         11    1    6    6    0    0 -0.18065855279E+02  0.65049238810E+02  0.17339394572E+03  0.18607320873E+03  0.00000000000E+00 0. -1.
        -12    1    6    6    0    0  0.39389525887E+02  0.20317066607E+01  0.96092417578E+02  0.10387211030E+03  0.00000000000E+00 0.  1.
</event>
<event>
12    1  0.2625820E-002  0.2751882E+03  0.7818608E-02  0.1098346E+00
          2   -1    0    0  502    0  0.00000000000E+00  0.00000000000E+00  0.22872481262E+04  0.22872481262E+04  0.00000000000E+00 0.  1.
         -2   -1    0    0    0  501 -0.00000000000E+00 -0.00000000000E+00 -0.88902836406E+02  0.88902836406E+02  0.00000000000E+00 0. -1.
          6    2    1    2  502    0  0.21966319604E+03 -0.28867715831E+02  0.20493689501E+04  0.20686069937E+04  0.17359877881E+03 0.  0.
         24    2    3    3    0    0  0.21021131039E+03 -0.37767160871E+02  0.13715913496E+04  0.13906887803E+04  0.84482542511E+02 0.  0.
         -6    2    1    2    0  501 -0.21966319604E+03  0.28867715831E+02  0.14897633970E+03  0.30754396892E+03  0.15265673361E+03 0.  0.
        -24    2    5    5    0    0 -0.22448817697E+03  0.10685715806E+02  0.15879334516E+03  0.28581083380E+03  0.77222924880E+02 0.  0.
          5    1    3    3  502    0  0.94518856510E+01  0.88994450396E+01  0.67777760055E+03  0.67791821341E+03  0.47000000000E+01 0. -1.
        -11    1    4    4    0    0  0.64973241229E+02  0.22219690392E+02  0.54342917431E+03  0.54775040320E+03  0.00000000000E+00 0.  1.
         12    1    4    4    0    0  0.14523806916E+03 -0.59986851263E+02  0.82816217526E+03  0.84293837710E+03  0.00000000000E+00 0. -1.
         -5    1    5    5    0  501  0.48249809348E+01  0.18182000025E+02 -0.98170054610E+01  0.21733135120E+02  0.47000000000E+01 0.  1.
         13    1    6    6    0    0 -0.61715668321E+02 -0.31777438925E+02  0.45735620634E+02  0.83128673367E+02  0.00000000000E+00 0. -1.
        -14    1    6    6    0    0 -0.16277250865E+03  0.42463154732E+02  0.11305772452E+03  0.20268216043E+03  0.00000000000E+00 0.  1.
</event>
<event>
12    1  0.2625820E-002  0.1939045E+03  0.7818608E-02  0.1154986E+00
         -1   -1    0    0    0  501 -0.00000000000E+00  0.00000000000E+00  0.60729194928E+03  0.60729194928E+03  0.00000000000E+00 0. -1.
          1   -1    0    0  502    0  0.00000000000E+00 -0.00000000000E+00 -0.66451213296E+02  0.66451213296E+02  0.00000000000E+00 0.  1.
          6    2    1    2  502    0  0.73605352069E+02  0.56107691363E+02  0.35967299866E+03  0.40906224507E+03  0.17146846209E+03 0.  0.
         24    2    3    3    0    0  0.85476678053E+02  0.34099537088E+02  0.36344624547E+03  0.38334037448E+03  0.79922640311E+02 0.  0.
         -6    2    1    2    0  501 -0.73605352069E+02 -0.56107691363E+02  0.18116773732E+03  0.26468091750E+03  0.16931750696E+03 0.  0.
        -24    2    5    5    0    0 -0.39035007366E+02 -0.97044125526E+02  0.16050801700E+03  0.20706308677E+03  0.78555739966E+02 0.  0.
          5    1    3    3  502    0 -0.11871325984E+02  0.22008154275E+02 -0.37732468116E+01  0.25721870591E+02  0.47000000000E+01 0. -1.
        -11    1    4    4    0    0  0.35479021307E+02 -0.25418712378E+02  0.14795914085E+03  0.15426204735E+03  0.00000000000E+00 0.  1.
         12    1    4    4    0    0  0.49997656746E+02  0.59518249466E+02  0.21548710463E+03  0.22907832713E+03  0.00000000000E+00 0. -1.
         -5    1    5    5    0  501 -0.34570344702E+02  0.40936434163E+02  0.20659720314E+02  0.57617830732E+02  0.47000000000E+01 0.  1.
         13    1    6    6    0    0 -0.58696694762E+01  0.67172981726E+01  0.53936917877E+02  0.54669609699E+02  0.00000000000E+00 0. -1.
        -14    1    6    6    0    0 -0.33165337890E+02 -0.10376142370E+03  0.10657109913E+03  0.15239347707E+03  0.00000000000E+00 0.  1.
</event>
<event>
12    1  0.2625820E-002  0.1854653E+03  0.7818608E-02  0.1162616E+00
          1   -1    0    0  502    0  0.00000000000E+00  0.00000000000E+00  0.73635753505E+03  0.73635753505E+03  0.00000000000E+00 0. -1.
         -1   -1    0    0    0  501 -0.00000000000E+00 -0.00000000000E+00 -0.46794897842E+02  0.46794897842E+02  0.00000000000E+00 0.  1.
          6    2    1    2  502    0 -0.66107961467E+02 -0.88727263585E+01  0.36096152885E+03  0.40576846505E+03  0.17293303351E+03 0.  0.
         24    2    3    3    0    0 -0.26276430505E+02 -0.71016133000E+02  0.20085885347E+03  0.22940715833E+03  0.80929743147E+02 0.  0.
         -6    2    1    2    0  501  0.66107961467E+02  0.88727263585E+01  0.32860110836E+03  0.37738396784E+03  0.17317904875E+03 0.  0.
        -24    2    5    5    0    0  0.26364689326E+02 -0.62200265679E+02  0.17457862154E+03  0.20309709420E+03  0.78783022791E+02 0.  0.
          5    1    3    3  502    0 -0.39831530961E+02  0.62143406641E+02  0.16010267537E+03  0.17636130672E+03  0.47000000000E+01 0. -1.
        -11    1    4    4    0    0 -0.28892899697E+02 -0.76209930027E+02  0.20606750059E+03  0.22160001779E+03  0.00000000000E+00 0.  1.
         12    1    4    4    0    0  0.26164691921E+01  0.51937970271E+01 -0.52086471114E+01  0.78071405343E+01  0.00000000000E+00 0. -1.
         -5    1    5    5    0  501  0.39743272140E+02  0.71072992037E+02  0.15402248681E+03  0.17428687364E+03  0.47000000000E+01 0.  1.
         13    1    6    6    0    0  0.39947981801E+02 -0.33471330713E+02  0.15973665856E+03  0.16802372248E+03  0.00000000000E+00 0. -1.
        -14    1    6    6    0    0 -0.13583292475E+02 -0.28728934966E+02  0.14841962989E+02  0.35073371724E+02  0.00000000000E+00 0.  1.
</event>
<event>
12    1  0.2625820E-002  0.2519236E+03  0.7818608E-02  0.1112095E+00
         -2   -1    0    0    0  501 -0.00000000000E+00  0.00000000000E+00  0.26795211255E+03  0.26795211255E+03  0.00000000000E+00 0.  1.
          2   -1    0    0  502    0  0.00000000000E+00 -0.00000000000E+00 -0.23760750751E+03  0.23760750751E+03  0.00000000000E+00 0. -1.
          6    2    1    2  502    0  0.17533100672E+03  0.74568115517E+02  0.29206959361E+02  0.25696106124E+03  0.16992520340E+03 0.  0.
         24    2    3    3    0    0  0.13397736811E+03  0.31593108701E+02  0.80502329223E+02  0.17815573397E+03  0.79440423294E+02 0.  0.
         -6    2    1    2    0  501 -0.17533100672E+03 -0.74568115517E+02  0.11376456820E+01  0.24859855881E+03  0.15968275873E+03 0.  0.
        -24    2    5    5    0    0 -0.59652901376E+02 -0.71355925455E+01 -0.37559633276E+02  0.10914197557E+03  0.83017223854E+02 0.  0.
          5    1    3    3  502    0  0.41353638610E+02  0.42975006816E+02 -0.51295369863E+02  0.78805327272E+02  0.47000000000E+01 0. -1.
        -13    1    4    4    0    0  0.65134994586E+02 -0.25011286408E+02  0.33550667880E+02  0.77419501953E+02  0.00000000000E+00 0.  1.
         14    1    4    4    0    0  0.68842373524E+02  0.56604395109E+02  0.46951661343E+02  0.10073623202E+03  0.00000000000E+00 0. -1.
         -5    1    5    5    0  501 -0.11567810534E+03 -0.67432522972E+02  0.38697278958E+02  0.13945658324E+03  0.47000000000E+01 0.  1.
         11    1    6    6    0    0  0.15174915092E+02  0.17300155153E+02 -0.31271281210E+01  0.23223960615E+02  0.00000000000E+00 0. -1.
        -12    1    6    6    0    0 -0.74827816468E+02 -0.24435747698E+02 -0.34432505155E+02  0.85918014957E+02  0.00000000000E+00 0.  1.
</event>
<event>
12    1  0.2625820E-002  0.1731730E+03  0.7818608E-02  0.1174579E+00
          4   -1    0    0  502    0  0.00000000000E+00  0.00000000000E+00  0.98586663256E+03  0.98586663256E+03  0.00000000000E+00 0. -1.
         -4   -1    0    0    0  501 -0.00000000000E+00 -0.00000000000E+00 -0.30427463347E+02  0.30427463347E+02  0.00000000000E+00 0.  1.
          6    2    1    2  502    0  0.91323056722E+01  0.12147057382E+02  0.47072353433E+03  0.50174806651E+03  0.17303042062E+03 0.  0.
         24    2    3    3    0    0 -0.42181086944E+02 -0.17816122719E+02  0.39278467719E+03  0.40362869087E+03  0.80868158944E+02 0.  0.
         -6    2    1    2    0  501 -0.91323056722E+01 -0.12147057382E+02  0.48471563488E+03  0.51454602940E+03  0.17198087004E+03 0.  0.
        -24    2    5    5    0    0 -0.35527433710E+02 -0.62667399645E+02  0.23529220654E+03  0.25864928387E+03  0.79672003012E+02 0.  0.
          5    1    3    3  502    0  0.51313392616E+02  0.29963180101E+02  0.77938857137E+02  0.98119375637E+02  0.47000000000E+01 0. -1.
        -11    1    4    4    0    0 -0.35956439354E+01  0.25686299930E+02  0.54190527811E+02  0.60077682744E+02  0.00000000000E+00 0.  1.
         12    1    4    4    0    0 -0.38585443008E+02 -0.43502422649E+02  0.33859414938E+03  0.34355100813E+03  0.00000000000E+00 0. -1.
         -5    1    5    5    0  501  0.26395128038E+02  0.50520342263E+02  0.24942342833E+03  0.25589674552E+03  0.47000000000E+01 0.  1.
         13    1    6    6    0    0 -0.24475994567E+02  0.10005696891E+02  0.11224101762E+03  0.11531363456E+03  0.00000000000E+00 0. -1.
        -14    1    6    6    0    0 -0.11051439143E+02 -0.72673096536E+02  0.12305118893E+03  0.14333564931E+03  0.00000000000E+00 0.  1.
</event>
<event>
12    1  0.2625820E-002  0.2310084E+03  0.7818608E-02  0.1125932E+00
          2   -1    0    0  502    0  0.00000000000E+00  0.00000000000E+00  0.10898659948E+04  0.10898659948E+04  0.00000000000E+00 0.  1.
         -2   -1    0    0    0  501 -0.00000000000E+00 -0.00000000000E+00 -0.61036636474E+02  0.61036636474E+02  0.00000000000E+00 0. -1.
          6    2    1    2  502    0  0.11068417529E+02  0.15340745861E+03  0.25761192823E+03  0.34568777885E+03  0.17169675786E+03 0.  0.
         24    2    3    3    0    0  0.72975361549E+02  0.10384622338E+03  0.15197777634E+03  0.21351573264E+03  0.79889186243E+02 0.  0.
         -6    2    1    2    0  501 -0.11068417529E+02 -0.15340745861E+03  0.77121743007E+03  0.80521485239E+03  0.17302680675E+03 0.  0.
        -24    2    5    5    0    0 -0.31060598577E+02 -0.14822577679E+03  0.76367137757E+03  0.78272996774E+03  0.80849166928E+02 0.  0.
          5    1    3    3  502    0 -0.61906944020E+02  0.49561235223E+02  0.10563415189E+03  0.13217204621E+03  0.47000000000E+01 0. -1.
        -13    1    4    4    0    0  0.42027779117E+02  0.18959305239E+02  0.97906988496E+02  0.10821999755E+03  0.00000000000E+00 0.  1.
         14    1    4    4    0    0  0.30947582432E+02  0.84886918143E+02  0.54070787845E+02  0.10529573509E+03  0.00000000000E+00 0. -1.
         -5    1    5    5    0  501  0.19992181048E+02 -0.51816818125E+01  0.75460524950E+01  0.22484884650E+02  0.47000000000E+01 0.  1.
         11    1    6    6    0    0 -0.45460128688E+01 -0.12145355377E+03  0.42711145094E+03  0.44406736368E+03  0.00000000000E+00 0. -1.
        -12    1    6    6    0    0 -0.26514585708E+02 -0.26772223018E+02  0.33655992663E+03  0.33866260406E+03  0.00000000000E+00 0.  1.
</event>
<event>
12    1  0.2625820E-002  0.3090175E+03  0.7818608E-02  0.1080818E+00
          2   -1    0    0  502    0  0.00000000000E+00  0.00000000000E+00  0.32239553175E+04  0.32239553175E+04  0.00000000000E+00 0.  1.
         -2   -1    0    0    0  501 -0.00000000000E+00 -0.00000000000E+00 -0.31562162328E+02  0.31562162328E+02  0.00000000000E+00 0. -1.
          6    2    1    2  502    0  0.16356522126E+03 -0.19766122380E+03  0.11895030879E+04  0.12288388294E+04  0.17118332696E+03 0.  0.
         24    2    3    3    0    0  0.12522157532E+03 -0.13499125576E+03  0.55398914302E+03  0.58907494775E+03  0.78754310526E+02 0.  0.
         -6    2    1    2    0  501 -0.16356522126E+03  0.19766122380E+03  0.20028900672E+04  0.20266786504E+04  0.17330374977E+03 0.  0.
        -24    2    5    5    0    0 -0.11019909435E+03  0.20280558781E+03  0.13770460677E+04  0.13985248398E+04  0.79636099144E+02 0.  0.
          5    1    3    3  502    0  0.38343645940E+02 -0.62669968036E+02  0.63551394491E+03  0.63976388165E+03  0.47000000000E+01 0. -1.
        -11    1    4    4    0    0  0.43129281859E+02 -0.51362610295E+02  0.32492711291E+03  0.33177685482E+03  0.00000000000E+00 0.  1.
         12    1    4    4    0    0  0.82092293458E+02 -0.83628645464E+02  0.22906203010E+03  0.25729809293E+03  0.00000000000E+00 0. -1.
         -5    1    5    5    0  501 -0.53366126907E+02 -0.51443640174E+01  0.62584399957E+03  0.62815381061E+03  0.47000000000E+01 0.  1.
         13    1    6    6    0    0 -0.34045388725E+02  0.56031208524E+02  0.21504265987E+03  0.22481532507E+03  0.00000000000E+00 0. -1.
        -14    1    6    6    0    0 -0.76153705625E+02  0.14677437929E+03  0.11620034078E+04  0.11737095147E+04  0.00000000000E+00 0.  1.
</event>
<event>
12    1  0.2625820E-002  0.1951436E+03  0.7818608E-02  0.1153902E+00
          1   -1    0    0  502    0  0.00000000000E+00  0.00000000000E+00  0.10623254358E+04  0.10623254358E+04  0.00000000000E+00 0. -1.
         -1   -1    0    0    0  501 -0.00000000000E+00 -0.00000000000E+00 -0.40136130977E+02  0.40136130977E+02  0.00000000000E+00 0.  1.
          6    2    1    2  502    0  0.88335778645E+02  0.21803886324E+02  0.33342020512E+03  0.38687173392E+03  0.17384500590E+03 0.  0.
         24    2    3    3    0    0  0.45314555857E+02  0.81217500091E+02  0.20573839477E+03  0.23954373996E+03  0.80020153558E+02 0.  0.
         -6    2    1    2    0  501 -0.88335778645E+02 -0.21803886324E+02  0.68876909969E+03  0.71558983284E+03  0.17142729344E+03 0.  0.
        -24    2    5    5    0    0  0.71380185687E+01  0.26194543882E+02  0.26922103675E+03  0.28262128621E+03  0.81594848816E+02 0.  0.
          5    1    3    3  502    0  0.43021222788E+02 -0.59413613767E+02  0.12768181035E+03  0.14732799396E+03  0.47000000000E+01 0. -1.
        -13    1    4    4    0    0  0.72777057439E+01  0.83512770245E+02  0.15328100366E+03  0.17470665093E+03  0.00000000000E+00 0.  1.
         14    1    4    4    0    0  0.38036850114E+02 -0.22952701541E+01  0.52457391112E+02  0.64837089030E+02  0.00000000000E+00 0. -1.
         -5    1    5    5    0  501 -0.95473797214E+02 -0.47998430207E+02  0.41954806294E+03  0.43296854663E+03  0.47000000000E+01 0.  1.
         11    1    6    6    0    0  0.75938931275E+01 -0.14391239586E+01  0.24710087664E+03  0.24722172543E+03  0.00000000000E+00 0. -1.
        -12    1    6    6    0    0 -0.45587455879E+00  0.27633667841E+02  0.22120160109E+02  0.35399560777E+02  0.00000000000E+00 0.  1.
</event>
<event>
12    1  0.2625820E-002  0.1702997E+03  0.7818608E-02  0.1177536E+00
          1   -1    0    0  502    0  0.00000000000E+00  0.00000000000E+00  0.14038778069E+03  0.14038778069E+03  0.00000000000E+00 0. -1.
         -1   -1    0    0    0  501 -0.00000000000E+00 -0.00000000000E+00 -0.24592864726E+03  0.24592864726E+03  0.00000000000E+00 0.  1.
          6    2    1    2  502    0  0.16974057381E+02  0.79215824091E+01 -0.13019205596E+03  0.21487333083E+03  0.16991087891E+03 0.  0.
         24    2    3    3    0    0  0.21185020875E+02  0.71742118941E+02 -0.90191789963E+02  0.13928957347E+03  0.75307964782E+02 0.  0.
         -6    2    1    2    0  501 -0.16974057381E+02 -0.79215824091E+01  0.24651189393E+02  0.17144309713E+03  0.16862438828E+03 0.  0.
        -24    2    5    5    0    0  0.15928077439E+02 -0.45354877866E+02 -0.18872674423E+02  0.10510895203E+03  0.91547503295E+02 0.  0.
          5    1    3    3  502    0 -0.42109634938E+01 -0.63820536532E+02 -0.40000266000E+02  0.75583757361E+02  0.47000000000E+01 0. -1.
        -13    1    4    4    0    0 -0.17387336391E+01 -0.22510506236E+01 -0.53501199553E+02  0.53576755941E+02  0.00000000000E+00 0.  1.
         14    1    4    4    0    0  0.22923754514E+02  0.73993169564E+02 -0.36690590411E+02  0.85712817524E+02  0.00000000000E+00 0. -1.
         -5    1    5    5    0  501 -0.32902134820E+02  0.37433295456E+02  0.43523863815E+02  0.66334145098E+02  0.47000000000E+01 0.  1.
         13    1    6    6    0    0  0.15543786869E+02  0.20567360967E+02  0.16188720244E+02  0.30441752751E+02  0.00000000000E+00 0. -1.
        -14    1    6    6    0    0  0.38429056934E+00 -0.65922238833E+02 -0.35061394667E+02  0.74667199277E+02  0.00000000000E+00 0.  1.
</event>
<event>
12    1  0.2625820E-002  0.1805102E+03  0.7818608E-02  0.1167310E+00
         -3   -1    0    0    0  501 -0.00000000000E+00  0.00000000000E+00  0.63148877630E+03  0.63148877630E+03  0.00000000000E+00 0. -1.
          3   -1    0    0  502    0  0.00000000000E+00 -0.00000000000E+00 -0.52536607724E+02  0.52536607724E+02  0.00000000000E+00 0.  1.
          6    2    1    2  502    0  0.39756427280E+02 -0.37373517699E+02  0.33471010626E+03  0.38014345213E+03  0.17175807297E+03 0.  0.
         24    2    3    3    0    0  0.52695344679E+02  0.38034620397E+02  0.20912056112E+03  0.23300872910E+03  0.79612982934E+02 0.  0.
         -6    2    1    2    0  501 -0.39756427280E+02  0.37373517699E+02  0.24424206231E+03  0.30388193189E+03  0.17237369344E+03 0.  0.
        -24    2    5    5    0    0 -0.52059682987E+02 -0.35016727201E+02  0.17988554076E+03  0.20612933845E+03  0.78702697658E+02 0.  0.
          5    1    3    3  502    0 -0.12938917399E+02 -0.75408138096E+02  0.12558954514E+03  0.14713472304E+03  0.47000000000E+01 0. -1.
        -13    1    4    4    0    0 -0.20143574696E+02 -0.57133180630E+00  0.46796010359E+02  0.50950530979E+02  0.00000000000E+00 0.  1.
         14    1    4    4    0    0  0.72838919375E+02  0.38605952203E+02  0.16232455076E+03  0.18205819812E+03  0.00000000000E+00 0. -1.
         -5    1    5    5    0  501  0.12303255707E+02  0.72390244901E+02  0.64356521549E+02  0.97752593437E+02  0.47000000000E+01 0.  1.
         13    1    6    6    0    0 -0.18443188750E+02 -0.24185403307E+02  0.16503758563E+03  0.16781683353E+03  0.00000000000E+00 0. -1.
        -14    1    6    6    0    0 -0.33616494237E+02 -0.10831323894E+02  0.14847955134E+02  0.38312504926E+02  0.00000000000E+00 0.  1.
</event>
<event>
12    1  0.2625820E-002  0.1889545E+03  0.7818608E-02  0.1159408E+00
          2   -1    0    0  502    0  0.00000000000E+00  0.00000000000E+00  0.54678241018E+03  0.54678241018E+03  0.00000000000E+00 0. -1.
         -2   -1    0    0    0  501 -0.00000000000E+00 -0.00000000000E+00 -0.66649507227E+02  0.66649507227E+02  0.00000000000E+00 0.  1.
          6    2    1    2  502    0 -0.67806029426E+02 -0.43920019399E+02  0.19813996902E+03  0.27473863037E+03  0.17232307437E+03 0.  0.
         24    2    3    3    0    0 -0.46144709037E+02 -0.85813018829E+02  0.18319334183E+03  0.22504227369E+03  0.87126437341E+02 0.  0.
         -6    2    1    2    0  501  0.67806029426E+02  0.43920019399E+02  0.28199293393E+03  0.33869328704E+03  0.16931184888E+03 0.  0.
        -24    2    5    5    0    0 -0.28726019790E+01  0.55720119386E+02  0.86697508496E+02  0.13061372415E+03  0.80190419695E+02 0.  0.
          5    1    3    3  502    0 -0.21661320389E+02  0.41892999430E+02  0.14946627189E+02  0.49696356673E+02  0.47000000000E+01 0. -1.
        -13    1    4    4    0    0  0.65641458721E+01 -0.46067831391E+02  0.23264858032E+02  0.52024866356E+02  0.00000000000E+00 0.  1.
         14    1    4    4    0    0 -0.52708854909E+02 -0.39745187438E+02  0.15992848380E+03  0.17301740734E+03  0.00000000000E+00 0. -1.
         -5    1    5    5    0  501  0.70678631405E+02 -0.11800099987E+02  0.19529542543E+03  0.20807956289E+03  0.47000000000E+01 0.  1.
         13    1    6    6    0    0 -0.27842051823E+02 -0.50025155656E+01  0.43954225628E+02  0.52270249304E+02  0.00000000000E+00 0. -1.
        -14    1    6    6    0    0  0.24969449844E+02  0.60722634951E+02  0.42743282867E+02  0.78343474848E+02  0.00000000000E+00 0.  1.
</event>
<event>
12    1  0.2625820E-002  0.1874093E+03  0.7818608E-02  0.1160819E+00
          1   -1    0    0  502    0  0.00000000000E+00  0.00000000000E+00  0.78266683356E+02  0.78266683356E+02  0.00000000000E+00 0.  1.
         -1   -1    0    0    0  501 -0.00000000000E+00 -0.00000000000E+00 -0.99213766525E+03  0.99213766525E+03  0.00000000000E+00 0. -1.
          6    2    1    2  502    0  0.53754546359E+02  0.51316326778E+02 -0.60245803069E+02  0.19633018104E+03  0.17144406246E+03 0.  0.
         24    2    3    3    0    0  0.10036663623E+03  0.20801917551E+02 -0.38265165384E+02  0.13625477405E+03  0.81209353685E+02 0.  0.
         -6    2    1    2    0  501 -0.53754546359E+02 -0.51316326778E+02 -0.85362517882E+03  0.87407416756E+03  0.17264642432E+03 0.  0.
        -24    2    5    5    0    0 -0.12537992774E+02  0.21711648108E+02 -0.62291187520E+03  0.62854900007E+03  0.80162611554E+02 0.  0.
          5    1    3    3  502    0 -0.46612089873E+02  0.30514409227E+02 -0.21980637685E+02  0.60075406997E+02  0.47000000000E+01 0. -1.
        -13    1    4    4    0    0  0.93359714182E+02  0.43735818101E+02 -0.17577708260E+02  0.10458409939E+03  0.00000000000E+00 0.  1.
         14    1    4    4    0    0  0.70069220505E+01 -0.22933900550E+02 -0.20687457123E+02  0.31670674658E+02  0.00000000000E+00 0. -1.
         -5    1    5    5    0  501 -0.41216553586E+02 -0.73027974885E+02 -0.23071330362E+03  0.24552516749E+03  0.47000000000E+01 0.  1.
         13    1    6    6    0    0 -0.36519381990E+02  0.30981327411E+02 -0.23748975787E+03  0.24227028915E+03  0.00000000000E+00 0. -1.
        -14    1    6    6    0    0  0.23981389216E+02 -0.92696793037E+01 -0.38542211733E+03  0.38627871092E+03  0.00000000000E+00 0.  1.
</event>
<event>
12    1  0.2625820E-002  0.2032416E+03  0.7818608E-02  0.1147033E+00
         -1   -1    0    0    0  501 -0.00000000000E+00  0.00000000000E+00  0.24365145061E+02  0.24365145061E+02  0.00000000000E+00 0. -1.
          1   -1    0    0  502    0  0.00000000000E+00 -0.00000000000E+00 -0.17403621574E+04  0.17403621574E+04  0.00000000000E+00 0.  1.
          6    2    1    2  502    0  0.69633299561E+02  0.83184625790E+02 -0.10009838378E+04  0.10214604802E+04  0.17217546494E+03 0.  0.
         24    2    3    3    0    0  0.39473137786E+02  0.54414475430E+02 -0.95041596693E+03  0.95575997432E+03  0.75283162588E+02 0.  0.
         -6    2    1    2    0  501 -0.69633299561E+02 -0.83184625790E+02 -0.71501317461E+03  0.74326682232E+03  0.17156121623E+03 0.  0.
        -24    2    5    5    0    0 -0.31256514774E+02  0.21968293186E+02 -0.37331445788E+03  0.38366980204E+03  0.79870250475E+02 0.  0.
          5    1    3    3  502    0  0.30160161775E+02  0.28770150360E+02 -0.50567870845E+02  0.65700505872E+02  0.47000000000E+01 0. -1.
        -13    1    4    4    0    0  0.59009583548E+02  0.34826024880E+02 -0.52613752169E+03  0.53058050726E+03  0.00000000000E+00 0.  1.
         14    1    4    4    0    0 -0.19536445762E+02  0.19588450550E+02 -0.42427844525E+03  0.42517946706E+03  0.00000000000E+00 0. -1.
         -5    1    5    5    0  501 -0.38376784788E+02 -0.10515291898E+03 -0.34169871673E+03  0.35959702028E+03  0.47000000000E+01 0.  1.
         11    1    6    6    0    0 -0.51737330618E+02 -0.33760849994E+01 -0.16903421467E+03  0.17680699946E+03  0.00000000000E+00 0. -1.
        -12    1    6    6    0    0  0.20480815844E+02  0.25344378185E+02 -0.20428024321E+03  0.20686280258E+03  0.00000000000E+00 0.  1.
</event>
<event>
12    1  0.2625820E-002  0.2281602E+03  0.7818608E-02  0.1127941E+00
         -2   -1    0    0    0  501 -0.00000000000E+00  0.00000000000E+00  0.72748386338E+02  0.72748386338E+02  0.00000000000E+00 0. -1.
          2   -1    0    0  502    0  0.00000000000E+00 -0.00000000000E+00 -0.93041912539E+03  0.93041912539E+03  0.00000000000E+00 0.  1.
          6    2    1    2  502    0  0.52633970779E+02 -0.14279882150E+03 -0.18465937973E+03  0.29181659484E+03  0.16702095736E+03 0.  0.
         24    2    3    3    0    0  0.31882042072E+02 -0.40523550617E+02 -0.15676343280E+03  0.18369098532E+03  0.80678258919E+02 0.  0.
         -6    2    1    2    0  501 -0.52633970779E+02  0.14279882150E+03 -0.67301135932E+03  0.71135091689E+03  0.17295663875E+03 0.  0.
        -24    2    5    5    0    0 -0.48331822022E+02  0.11913480708E+03 -0.27004552342E+03  0.30764056409E+03  0.72035162750E+02 0.  0.
          5    1    3    3  502    0  0.20751928707E+02 -0.10227527088E+03 -0.27895946934E+02  0.10812560952E+03  0.47000000000E+01 0. -1.
        -11    1    4    4    0    0  0.53503933183E+02 -0.38732760323E+02 -0.14422913420E+03  0.15863461394E+03  0.00000000000E+00 0.  1.
         12    1    4    4    0    0 -0.21621891111E+02 -0.17907902946E+01 -0.12534298598E+02  0.25056371374E+02  0.00000000000E+00 0. -1.
         -5    1    5    5    0  501 -0.43021487570E+01  0.23664014417E+02 -0.40296583590E+03  0.40371035281E+03  0.47000000000E+01 0.  1.
         13    1    6    6    0    0 -0.67091583151E+02  0.91399543767E+02 -0.19726961954E+03  0.22753122846E+03  0.00000000000E+00 0. -1.
        -14    1    6    6    0    0  0.18759761129E+02  0.27735263314E+02 -0.72775903877E+02  0.80109335622E+02  0.00000000000E+00 0.  1.
</event>
<event>
12    1  0.2625820E-002  0.2301989E+03  0.7818608E-02  0.1126500E+00
          1   -1    0    0  502    0  0.00000000000E+00  0.00000000000E+00  0.10353637574E+04  0.10353637574E+04  0.00000000000E+00 0. -1.
         -1   -1    0    0    0  501 -0.00000000000E+00 -0.00000000000E+00 -0.59990298097E+02  0.59990298097E+02  0.00000000000E+00 0.  1.
          6    2    1    2  502    0 -0.14865521714E+03  0.34926464026E+02  0.27771636003E+03  0.36068147569E+03  0.17218164480E+03 0.  0.
         24    2    3    3    0    0 -0.14959302650E+03 -0.19144406209E+02  0.17496854084E+03  0.24447586979E+03  0.80061718446E+02 0.  0.
         -6    2    1    2    0  501  0.14865521714E+03 -0.34926464026E+02  0.69765709928E+03  0.73467257981E+03  0.17233728524E+03 0.  0.
        -24    2    5    5    0    0  0.48795372771E+02 -0.56678836251E+02  0.50429420569E+03  0.51591140220E+03  0.79110366849E+02 0.  0.
          5    1    3    3  502    0  0.93780935926E+00  0.54070870235E+02  0.10274781918E+03  0.11620560589E+03  0.47000000000E+01 0. -1.
        -13    1    4    4    0    0 -0.62842015673E+02 -0.32449159613E+01  0.19753320589E+02  0.65953332650E+02  0.00000000000E+00 0.  1.
         14    1    4    4    0    0 -0.86751010824E+02 -0.15899490248E+02  0.15521522026E+03  0.17852253714E+03  0.00000000000E+00 0. -1.
         -5    1    5    5    0  501  0.99859844366E+02  0.21752372225E+02  0.19336289359E+03  0.21876117761E+03  0.47000000000E+01 0.  1.
         13    1    6    6    0    0 -0.14793584539E+02 -0.12818505283E+02  0.23337110958E+03  0.23419060402E+03  0.00000000000E+00 0. -1.
        -14    1    6    6    0    0  0.63588957310E+02 -0.43860330968E+02  0.27092309611E+03  0.28172079818E+03  0.00000000000E+00 0.  1.
</event>
<event>
12    1  0.2625820E-002  0.1790320E+03  0.7818608E-02  0.1168743E+00
         -2   -1    0    0    0  501 -0.00000000000E+00  0.00000000000E+00  0.11566052739E+03  0.11566052739E+03  0.00000000000E+00 0. -1.
          2   -1    0    0  502    0  0.00000000000E+00 -0.00000000000E+00 -0.27777423642E+03  0.27777423642E+03  0.00000000000E+00 0.  1.
          6    2    1    2  502    0  0.39288074014E+02 -0.44520532188E+02 -0.89041907917E+02  0.19774432902E+03  0.16627906587E+03 0.  0.
         24    2    3    3    0    0  0.57717056904E+02 -0.33273603528E+02  0.44025419466E+01  0.10172310207E+03  0.76745135153E+02 0.  0.
         -6    2    1    2    0  501 -0.39288074014E+02  0.44520532188E+02 -0.73071801119E+02  0.19569043479E+03  0.17155065609E+03 0.  0.
        -24    2    5    5    0    0 -0.37246029235E+02 -0.12289844722E+02 -0.99109260149E+02  0.13298773832E+03  0.79528523941E+02 0.  0.
          5    1    3    3  502    0 -0.18428982890E+02 -0.11246928659E+02 -0.93444449864E+02  0.96021226950E+02  0.47000000000E+01 0. -1.
        -13    1    4    4    0    0  0.48516616351E+02 -0.12352763646E+02 -0.31509909464E+02  0.59155111582E+02  0.00000000000E+00 0.  1.
         14    1    4    4    0    0  0.92004405523E+01 -0.20920839883E+02  0.35912451411E+02  0.42567990487E+02  0.00000000000E+00 0. -1.
         -5    1    5    5    0  501 -0.20420447784E+01  0.56810376910E+02  0.26037459030E+02  0.62702696468E+02  0.47000000000E+01 0.  1.
         13    1    6    6    0    0 -0.30253391923E+02 -0.26231476596E+00  0.25677630656E+01  0.30363299212E+02  0.00000000000E+00 0. -1.
        -14    1    6    6    0    0 -0.69926373124E+01 -0.12027529957E+02 -0.10167702321E+03  0.10262443911E+03  0.00000000000E+00 0.  1.
</event>
<event>
12    1  0.2625820E-002  0.1775885E+03  0.7818608E-02  0.1170158E+00
          2   -1    0    0  502    0  0.00000000000E+00  0.00000000000E+00  0.32804612605E+02  0.32804612605E+02  0.00000000000E+00 0. -1.
         -2   -1    0    0    0  501 -0.00000000000E+00 -0.00000000000E+00 -0.96745965174E+03  0.96745965174E+03  0.00000000000E+00 0.  1.
          6    2    1    2  502    0  0.36941307413E+02 -0.13172659136E+02 -0.42593377762E+03  0.46121012421E+03  0.17250222206E+03 0.  0.
         24    2    3    3    0    0  0.66108394674E+01 -0.70403192893E+02 -0.31583230973E+03  0.33338330969E+03  0.79962932299E+02 0.  0.
         -6    2    1    2    0  501 -0.36941307413E+02  0.13172659136E+02 -0.50872126152E+03  0.53905414013E+03  0.17390763334E+03 0.  0.
        -24    2    5    5    0    0 -0.30827904219E+02  0.52423499263E+02 -0.47851900673E+03  0.48893160684E+03  0.79844182101E+02 0.  0.
          5    1    3    3  502    0  0.30330467945E+02  0.57230533757E+02 -0.11010146789E+03  0.12782681452E+03  0.47000000000E+01 0. -1.
        -13    1    4    4    0    0  0.28858536472E+02 -0.12083771045E+02 -0.19385012585E+03  0.19635861056E+03  0.00000000000E+00 0.  1.
         14    1    4    4    0    0 -0.22247697004E+02 -0.58319421849E+02 -0.12198218388E+03  0.13702469913E+03  0.00000000000E+00 0. -1.
         -5    1    5    5    0  501 -0.61134031943E+01 -0.39250840126E+02 -0.30202254790E+02  0.50122533292E+02  0.47000000000E+01 0.  1.
         11    1    6    6    0    0  0.10793948577E+01  0.16942671622E+02 -0.14103132651E+02  0.22070740031E+02  0.00000000000E+00 0. -1.
        -12    1    6    6    0    0 -0.31907299076E+02  0.35480827641E+02 -0.46441587408E+03  0.46686086681E+03  0.00000000000E+00 0.  1.
</event>
<event>
12    1  0.2625820E-002  0.2027347E+03  0.7818608E-02  0.1147452E+00
          1   -1    0    0  502    0  0.00000000000E+00  0.00000000000E+00  0.25497001580E+03  0.25497001580E+03  0.00000000000E+00 0.  1.
         -1   -1    0    0    0  501 -0.00000000000E+00 -0.00000000000E+00 -0.19737622735E+03  0.19737622735E+03  0.00000000000E+00 0. -1.
          6    2    1    2  502    0 -0.90079906530E+02 -0.56659773554E+02 -0.68085290591E+02  0.21340795930E+03  0.17199601971E+03 0.  0.
         24    2    3    3    0    0 -0.33678771356E+02  0.35813911754E+02 -0.42490135817E+02  0.10200924983E+03  0.78635739293E+02 0.  0.
         -6    2    1    2    0  501  0.90079906530E+02  0.56659773554E+02  0.12567907904E+03  0.23893828384E+03  0.17312294209E+03 0.  0.
        -24    2    5    5    0    0  0.12513200511E+03  0.42031201980E+01  0.84708665546E+02  0.16356577640E+03  0.62470155021E+02 0.  0.
          5    1    3    3  502    0 -0.56401135174E+02 -0.92473685308E+02 -0.25595154774E+02  0.11139870947E+03  0.47000000000E+01 0. -1.
        -13    1    4    4    0    0  0.28097780010E+01 -0.21939873487E+02 -0.11265243276E+01  0.22147730315E+02  0.00000000000E+00 0.  1.
         14    1    4    4    0    0 -0.36488549357E+02  0.57753785241E+02 -0.41363611489E+02  0.79861519515E+02  0.00000000000E+00 0. -1.
         -5    1    5    5    0  501 -0.35052098580E+02  0.52456653356E+02  0.40970413496E+02  0.75372507443E+02  0.47000000000E+01 0.  1.
         13    1    6    6    0    0  0.10888820045E+03 -0.77449515507E+01  0.91342438721E+02  0.14233785717E+03  0.00000000000E+00 0. -1.
        -14    1    6    6    0    0  0.16243804657E+02  0.11948071749E+02 -0.66337731753E+01  0.21227919229E+02  0.00000000000E+00 0.  1.
</event>
<event>
12    1  0.2625820E-002  0.1886151E+03  0.7818608E-02  0.1159716E+00
         -2   -1    0    0    0  501 -0.00000000000E+00  0.00000000000E+00  0.23730757579E+02  0.23730757579E+02  0.00000000000E+00 0.  1.
          2   -1    0    0  502    0  0.00000000000E+00 -0.00000000000E+00 -0.16306098567E+04  0.16306098567E+04  0.00000000000E+00 0. -1.
          6    2    1    2  502    0 -0.77428792502E+02 -0.43915991527E+02 -0.10569266237E+04  0.10745282731E+04  0.17202700273E+03 0.  0.
         24    2    3    3    0    0 -0.50862729151E+02 -0.82221957614E+02 -0.49012055784E+03  0.50578904550E+03  0.79100757265E+02 0.  0.
         -6    2    1    2    0  501  0.77428792502E+02  0.43915991527E+02 -0.54995247545E+03  0.57981234117E+03  0.16065737922E+03 0.  0.
        -24    2    5    5    0    0  0.97698639911E+02 -0.33106580578E+01 -0.44899193399E+03  0.46642652161E+03  0.80024737286E+02 0.  0.
          5    1    3    3  502    0 -0.26566063352E+02  0.38305966087E+02 -0.56680606582E+03  0.56873922760E+03  0.47000000000E+01 0. -1.
        -13    1    4    4    0    0  0.12712334377E+01 -0.89002259154E+01 -0.16977203076E+01  0.91494431547E+01  0.00000000000E+00 0.  1.
         14    1    4    4    0    0 -0.52133962588E+02 -0.73321731698E+02 -0.48842283754E+03  0.49663960235E+03  0.00000000000E+00 0. -1.
         -5    1    5    5    0  501 -0.20269847408E+02  0.47226649585E+02 -0.10096054147E+03  0.11338581956E+03  0.47000000000E+01 0.  1.
         13    1    6    6    0    0  0.63298557421E+01 -0.82024481512E+01 -0.25036354554E+01  0.10659053423E+02  0.00000000000E+00 0. -1.
        -14    1    6    6    0    0  0.91368784168E+02  0.48917900934E+01 -0.44648829853E+03  0.45576746818E+03  0.00000000000E+00 0.  1.
</event>
<event>
12    1  0.2625820E-002  0.2156386E+03  0.7818608E-02  0.1137177E+00
          2   -1    0    0  502    0  0.00000000000E+00  0.00000000000E+00  0.37990258366E+04  0.37990258366E+04  0.00000000000E+00 0.  1.
         -2   -1    0    0    0  501 -0.00000000000E+00 -0.00000000000E+00 -0.12659907540E+02  0.12659907540E+02  0.00000000000E+00 0. -1.
          6    2    1    2  502    0 -0.50165590302E+02 -0.11801533223E+03  0.15446488500E+04  0.15596048238E+04  0.17315580127E+03 0.  0.
         24    2    3    3    0    0 -0.23620404223E+02 -0.24451674146E+01  0.91448788297E+03  0.91836692390E+03  0.80906220221E+02 0.  0.
         -6    2    1    2    0  501  0.50165590302E+02  0.11801533223E+03  0.22417170791E+04  0.22520809204E+04  0.17357650800E+03 0.  0.
        -24    2    5    5    0    0 -0.12911654441E+02  0.93269753077E+02  0.18783128350E+04  0.18823839943E+04  0.80277259408E+02 0.  0.
          5    1    3    3  502    0 -0.26545186078E+02 -0.11557016482E+03  0.63016096701E+03  0.64123789988E+03  0.47000000000E+01 0. -1.
        -13    1    4    4    0    0 -0.50310485974E+02  0.14702205085E+02  0.59833824579E+03  0.60062963314E+03  0.00000000000E+00 0.  1.
         14    1    4    4    0    0  0.26690081751E+02 -0.17147372499E+02  0.31614963718E+03  0.31773729076E+03  0.00000000000E+00 0. -1.
         -5    1    5    5    0  501  0.63077244742E+02  0.24745579158E+02  0.36340424409E+03  0.36969692603E+03  0.47000000000E+01 0.  1.
         13    1    6    6    0    0 -0.38073514529E+02  0.38651176856E+02  0.53946443665E+03  0.54218574713E+03  0.00000000000E+00 0. -1.
        -14    1    6    6    0    0  0.25161860088E+02  0.54618576221E+02  0.13388483984E+04  0.13401982472E+04  0.00000000000E+00 0.  1.
</event>
<event>
12    1  0.2625820E-002  0.3103176E+03  0.7818608E-02  0.1080194E+00
         -2   -1    0    0    0  501 -0.00000000000E+00  0.00000000000E+00  0.94347677156E+02  0.94347677156E+02  0.00000000000E+00 0. -1.
          2   -1    0    0  502    0  0.00000000000E+00 -0.00000000000E+00 -0.10354464762E+04  0.10354464762E+04  0.00000000000E+00 0.  1.
          6    2    1    2  502    0 -0.13810591417E+03 -0.21901424471E+03 -0.40383213444E+03  0.50960910854E+03  0.17199002234E+03 0.  0.
         24    2    3    3    0    0 -0.14386306198E+03 -0.12147791992E+03 -0.21189718213E+03  0.29418488677E+03  0.78682057561E+02 0.  0.
         -6    2    1    2    0  501  0.13810591417E+03  0.21901424471E+03 -0.53726666463E+03  0.62018504485E+03  0.17009861262E+03 0.  0.
        -24    2    5    5    0    0  0.30294907344E+02  0.38719016958E+02 -0.21698863295E+03  0.23713192853E+03  0.82039874538E+02 0.  0.
          5    1    3    3  502    0  0.57571478060E+01 -0.97536324790E+02 -0.19193495232E+03  0.21542422177E+03  0.47000000000E+01 0. -1.
        -11    1    4    4    0    0 -0.78651275035E+02 -0.25878634278E+02 -0.12293653635E+03  0.14821983250E+03  0.00000000000E+00 0.  1.
         12    1    4    4    0    0 -0.65211786940E+02 -0.95599285638E+02 -0.88960645773E+02  0.14596505427E+03  0.00000000000E+00 0. -1.
         -5    1    5    5    0  501  0.10781100683E+03  0.18029522775E+03 -0.32027803168E+03  0.38305311632E+03  0.47000000000E+01 0.  1.
         11    1    6    6    0    0 -0.11639975720E+02  0.50657265624E+02 -0.12231005374E+03  0.13289618822E+03  0.00000000000E+00 0. -1.
        -12    1    6    6    0    0  0.41934883064E+02 -0.11938248666E+02 -0.94678579203E+02  0.10423574031E+03  0.00000000000E+00 0.  1.
</event>
<event>
12    1  0.2625820E-002  0.1809835E+03  0.7818608E-02  0.1166855E+00
         -2   -1    0    0    0  501 -0.00000000000E+00  0.00000000000E+00  0.70953589865E+02  0.70953589865E+02  0.00000000000E+00 0.  1.
          2   -1    0    0  502    0  0.00000000000E+00 -0.00000000000E+00 -0.50805406948E+03  0.50805406948E+03  0.00000000000E+00 0. -1.
          6    2    1    2  502    0 -0.55162003737E+02 -0.41189536556E+01 -0.13005393030E+03  0.22212386844E+03  0.17136270221E+03 0.  0.
         24    2    3    3    0    0 -0.50999293314E+02  0.37271785560E+02 -0.19384783758E+02  0.10380112571E+03  0.80054918270E+02 0.  0.
         -6    2    1    2    0  501  0.55162003737E+02  0.41189536556E+01 -0.30704654931E+03  0.35688379091E+03  0.17328775009E+03 0.  0.
        -24    2    5    5    0    0  0.15242250869E+01  0.31961700796E+02 -0.27518031379E+03  0.28840184560E+03  0.80171976822E+02 0.  0.
          5    1    3    3  502    0 -0.41627104230E+01 -0.41390739215E+02 -0.11066914654E+03  0.11832274273E+03  0.47000000000E+01 0. -1.
        -13    1    4    4    0    0 -0.13498705464E+02 -0.23513877039E+01  0.28236318938E+02  0.31385247816E+02  0.00000000000E+00 0.  1.
         14    1    4    4    0    0 -0.37500587850E+02  0.39623173264E+02 -0.47621102695E+02  0.72415877890E+02  0.00000000000E+00 0. -1.
         -5    1    5    5    0  501  0.53637778650E+02 -0.27842747141E+02 -0.31866235527E+02  0.68481945311E+02  0.47000000000E+01 0.  1.
         11    1    6    6    0    0 -0.26545661534E+01  0.55638842698E+02 -0.13284906428E+03  0.14405416140E+03  0.00000000000E+00 0. -1.
        -12    1    6    6    0    0  0.41787912403E+01 -0.23677141902E+02 -0.14233124951E+03  0.14434768419E+03  0.00000000000E+00 0.  1.
</event>
<event>
12    1  0.2625820E-002  0.3303264E+03  0.7818608E-02  0.1070993E+00
          2   -1    0    0  502    0  0.00000000000E+00  0.00000000000E+00  0.22401272530E+04  0.22401272530E+04  0.00000000000E+00 0.  1.
         -2   -1    0    0    0  501 -0.00000000000E+00 -0.00000000000E+00 -0.50166395087E+02  0.50166395087E+02  0.00000000000E+00 0. -1.
          6    2    1    2  502    0 -0.20997311429E+02 -0.27746761192E+03  0.13007210453E+04  0.13428556474E+04  0.18427395205E+03 0.  0.
         24    2    3    3    0    0  0.58061720032E+02 -0.18664270503E+03  0.75701187247E+03  0.78595238044E+03  0.80296367201E+02 0.  0.
         -6    2    1    2    0  501  0.20997311429E+02  0.27746761192E+03  0.88923981264E+03  0.94743800069E+03  0.17164544270E+03 0.  0.
        -24    2    5    5    0    0  0.11433897235E+02  0.11121685339E+03  0.58629263285E+03  0.60170709760E+03  0.76239474591E+02 0.  0.
          5    1    3    3  502    0 -0.79059031461E+02 -0.90824906895E+02  0.54370917282E+03  0.55690326699E+03  0.47000000000E+01 0. -1.
        -11    1    4    4    0    0  0.13565251168E+02 -0.13303107518E+03  0.59051140123E+03  0.60546263137E+03  0.00000000000E+00 0.  1.
         12    1    4    4    0    0  0.44496468863E+02 -0.53611629843E+02  0.16650047123E+03  0.18048974906E+03  0.00000000000E+00 0. -1.
         -5    1    5    5    0  501  0.95634141941E+01  0.16625075853E+03  0.30294717980E+03  0.34573090309E+03  0.47000000000E+01 0.  1.
         11    1    6    6    0    0  0.18935177724E+01  0.11053881882E+02  0.59279651466E+01  0.12685207329E+02  0.00000000000E+00 0. -1.
        -12    1    6    6    0    0  0.95403794624E+01  0.10016297151E+03  0.58036466770E+03  0.58902189027E+03  0.00000000000E+00 0.  1.
</event>
<event>
12    1  0.2625820E-002  0.1867325E+03  0.7818608E-02  0.1161442E+00
          2   -1    0    0  502    0  0.00000000000E+00  0.00000000000E+00  0.95901002756E+03  0.95901002756E+03  0.00000000000E+00 0. -1.
         -2   -1    0    0    0  501 -0.00000000000E+00 -0.00000000000E+00 -0.62684549700E+02  0.62684549700E+02  0.00000000000E+00 0.  1.
          6    2    1    2  502    0 -0.85270629139E+01 -0.57881061678E+02  0.11038177949E+03  0.21268649881E+03  0.17212925791E+03 0.  0.
         24    2    3    3    0    0  0.12926573151E+02  0.17415982975E+02  0.10519954870E+03  0.13408084412E+03  0.80251572917E+02 0.  0.
         -6    2    1    2    0  501  0.85270629139E+01  0.57881061678E+02  0.78594369837E+03  0.80900807844E+03  0.18265718131E+03 0.  0.
        -24    2    5    5    0    0  0.76005278542E+02  0.27163807691E+02  0.39150269463E+03  0.40763212662E+03  0.79843070668E+02 0.  0.
          5    1    3    3  502    0 -0.21453636065E+02 -0.75297044654E+02  0.51822307888E+01  0.78605654694E+02  0.47000000000E+01 0. -1.
        -11    1    4    4    0    0 -0.18204312232E+02  0.35637723183E+02  0.27913855162E+02  0.48791675596E+02  0.00000000000E+00 0.  1.
         12    1    4    4    0    0  0.31130885384E+02 -0.18221740207E+02  0.77285693542E+02  0.85289168522E+02  0.00000000000E+00 0. -1.
         -5    1    5    5    0  501 -0.67478215628E+02  0.30717253988E+02  0.39444100374E+03  0.40137595183E+03  0.47000000000E+01 0.  1.
         11    1    6    6    0    0  0.17431128061E+02  0.39256636314E+02  0.25513111291E+03  0.25872149601E+03  0.00000000000E+00 0. -1.
        -12    1    6    6    0    0  0.58574150481E+02 -0.12092828623E+02  0.13637158172E+03  0.14891063061E+03  0.00000000000E+00 0.  1.
</event>
<event>
12    1  0.2625820E-002  0.1781738E+03  0.7818608E-02  0.1169582E+00
          1   -1    0    0  502    0  0.00000000000E+00  0.00000000000E+00  0.33783597561E+03  0.33783597561E+03  0.00000000000E+00 0.  1.
         -1   -1    0    0    0  501 -0.00000000000E+00 -0.00000000000E+00 -0.94269005900E+02  0.94269005900E+02  0.00000000000E+00 0. -1.
          6    2    1    2  502    0  0.36677851934E+02 -0.24285342501E+02  0.13345022438E+03  0.22202217033E+03  0.17190066623E+03 0.  0.
         24    2    3    3    0    0 -0.54701176697E+01  0.26158270847E+02  0.13231688104E+03  0.15611022956E+03  0.78412176633E+02 0.  0.
         -6    2    1    2    0  501 -0.36677851934E+02  0.24285342501E+02  0.11011674533E+03  0.21008281118E+03  0.17341870507E+03 0.  0.
        -24    2    5    5    0    0  0.15662948516E+02  0.47631345996E+02  0.12053242838E+03  0.15164334057E+03  0.77159337550E+02 0.  0.
          5    1    3    3  502    0  0.42147969603E+02 -0.50443613348E+02  0.11333433382E+01  0.65911940773E+02  0.47000000000E+01 0. -1.
        -13    1    4    4    0    0  0.35794538512E+02  0.49704060819E+01  0.51238665430E+02  0.62700516417E+02  0.00000000000E+00 0.  1.
         14    1    4    4    0    0 -0.41264656182E+02  0.21187864765E+02  0.81078215611E+02  0.93409713145E+02  0.00000000000E+00 0. -1.
         -5    1    5    5    0  501 -0.52340800450E+02 -0.23346003494E+02 -0.10415683051E+02  0.58439470603E+02  0.47000000000E+01 0.  1.
         11    1    6    6    0    0  0.39099713861E+02  0.20800699041E+02  0.27768488056E+02  0.52273756643E+02  0.00000000000E+00 0. -1.
        -12    1    6    6    0    0 -0.23436765345E+02  0.26830646955E+02  0.92763940326E+02  0.99369583932E+02  0.00000000000E+00 0.  1.
</event>
<event>
12    1  0.2625820E-002  0.1801968E+03  0.7818608E-02  0.1167613E+00
         -2   -1    0    0    0  501 -0.00000000000E+00  0.00000000000E+00  0.18870270958E+02  0.18870270958E+02  0.00000000000E+00 0. -1.
          2   -1    0    0  502    0  0.00000000000E+00 -0.00000000000E+00 -0.17208740202E+04  0.17208740202E+04  0.00000000000E+00 0.  1.
          6    2    1    2  502    0 -0.89689307512E+01  0.58436924124E+02 -0.84504188277E+03  0.86372041179E+03  0.16858781180E+03 0.  0.
         24    2    3    3    0    0 -0.69140221937E+02  0.48132824959E+02 -0.61451903497E+03  0.62520493619E+03  0.78424669381E+02 0.  0.
         -6    2    1    2    0  501  0.89689307512E+01 -0.58436924124E+02 -0.85696186651E+03  0.87602387941E+03  0.17186878955E+03 0.  0.
        -24    2    5    5    0    0 -0.14980454481E+02 -0.22885741783E+02 -0.19316710100E+03  0.21082989241E+03  0.79922108529E+02 0.  0.
          5    1    3    3  502    0  0.60171291186E+02  0.10304099165E+02 -0.23052284780E+03  0.23851547560E+03  0.47000000000E+01 0. -1.
        -13    1    4    4    0    0 -0.45114022065E+01 -0.14986961488E+02 -0.21639336005E+03  0.21695863209E+03  0.00000000000E+00 0.  1.
         14    1    4    4    0    0 -0.64628819731E+02  0.63119786447E+02 -0.39812567492E+03  0.40824630410E+03  0.00000000000E+00 0. -1.
         -5    1    5    5    0  501  0.23949385232E+02 -0.35551182341E+02 -0.66379476551E+03  0.66519398700E+03  0.47000000000E+01 0.  1.
         11    1    6    6    0    0  0.32065517501E+02 -0.12144161707E+02 -0.58890080234E+02  0.68144842990E+02  0.00000000000E+00 0. -1.
        -12    1    6    6    0    0 -0.47045971982E+02 -0.10741580076E+02 -0.13427702077E+03  0.14268504942E+03  0.00000000000E+00 0.  1.
</event>
<event>
12    1  0.2625820E-002  0.2267121E+03  0.7818608E-02  0.1128976E+00
         -1   -1    0    0    0  501 -0.00000000000E+00  0.00000000000E+00  0.19872638857E+03  0.19872638857E+03  0.00000000000E+00 0. -1.
          1   -1    0    0  502    0  0.00000000000E+00 -0.00000000000E+00 -0.27521019916E+03  0.27521019916E+03  0.00000000000E+00 0.  1.
          6    2    1    2  502    0  0.14446330250E+03 -0.33983567424E+02 -0.96016689899E+02  0.24428591764E+03  0.16861754414E+03 0.  0.
         24    2    3    3    0    0  0.15822357259E+02 -0.47264620337E+02 -0.37150351384E+02  0.10211624798E+03  0.81014123272E+02 0.  0.
         -6    2    1    2    0  501 -0.14446330250E+03  0.33983567424E+02  0.19532879306E+02  0.22965067009E+03  0.17416477334E+03 0.  0.
        -24    2    5    5    0    0 -0.82926272863E+02 -0.36344368092E+02  0.50815655840E+02  0.13099203317E+03  0.79868655004E+02 0.  0.
          5    1    3    3  502    0  0.12864094524E+03  0.13281052913E+02 -0.58866338515E+02  0.14216966966E+03  0.47000000000E+01 0. -1.
        -13    1    4    4    0    0  0.95683535200E+01 -0.67237735668E+02 -0.11289094474E+02  0.68847005316E+02  0.00000000000E+00 0.  1.
         14    1    4    4    0    0  0.62540037387E+01  0.19973115331E+02 -0.25861256910E+02  0.33269242669E+02  0.00000000000E+00 0. -1.
         -5    1    5    5    0  501 -0.61537029639E+02  0.70327935516E+02 -0.31282776534E+02  0.98658636918E+02  0.47000000000E+01 0.  1.
         13    1    6    6    0    0 -0.43282442040E+02 -0.37566238656E+01  0.64603972098E+02  0.77853421394E+02  0.00000000000E+00 0. -1.
        -14    1    6    6    0    0 -0.39643830823E+02 -0.32587744227E+02 -0.13788316258E+02  0.53138611775E+02  0.00000000000E+00 0.  1.
</event>
<event>
12    1  0.2625820E-002  0.1851400E+03  0.7818608E-02  0.1162919E+00
          2   -1    0    0  502    0  0.00000000000E+00  0.00000000000E+00  0.86908278510E+02  0.86908278510E+02  0.00000000000E+00 0.  1.
         -2   -1    0    0    0  501 -0.00000000000E+00 -0.00000000000E+00 -0.42236175498E+03  0.42236175498E+03  0.00000000000E+00 0. -1.
          6    2    1    2  502    0  0.22088808186E+02 -0.65667810212E+02 -0.23397596718E+03  0.29891353911E+03  0.17263943321E+03 0.  0.
         24    2    3    3    0    0  0.19773029659E+01 -0.77193077276E+02 -0.24798073202E+03  0.27142667204E+03  0.78837262350E+02 0.  0.
         -6    2    1    2    0  501 -0.22088808186E+02  0.65667810212E+02 -0.10147750929E+03  0.21035649439E+03  0.17073954754E+03 0.  0.
        -24    2    5    5    0    0  0.16043518530E+02 -0.26255170822E+02 -0.56593660692E+02  0.10108363111E+03  0.77899483739E+02 0.  0.
          5    1    3    3  502    0  0.20111505220E+02  0.11525267065E+02  0.14004764837E+02  0.27486867069E+02  0.47000000000E+01 0. -1.
        -11    1    4    4    0    0 -0.86325175038E+01 -0.35450571312E+02 -0.21254235427E+03  0.21565137543E+03  0.00000000000E+00 0.  1.
         12    1    4    4    0    0  0.10609820470E+02 -0.41742505964E+02 -0.35438377747E+02  0.55775296610E+02  0.00000000000E+00 0. -1.
         -5    1    5    5    0  501 -0.38132326716E+02  0.91922981033E+02 -0.44883848600E+02  0.10927286327E+03  0.47000000000E+01 0.  1.
         11    1    6    6    0    0 -0.30199512575E+02  0.66848701536E+00 -0.18942393228E+02  0.35654897221E+02  0.00000000000E+00 0. -1.
        -12    1    6    6    0    0  0.46243031105E+02 -0.26923657837E+02 -0.37651267464E+02  0.65428733892E+02  0.00000000000E+00 0.  1.
</event>
<event>
12    1  0.2625820E-002  0.1905711E+03  0.7818608E-02  0.1157947E+00
         -3   -1    0    0    0  501 -0.00000000000E+00  0.00000000000E+00  0.55676265231E+02  0.55676265231E+02  0.00000000000E+00 0. -1.
          3   -1    0    0  502    0  0.00000000000E+00 -0.00000000000E+00 -0.65284600280E+03  0.65284600280E+03  0.00000000000E+00 0.  1.
          6    2    1    2  502    0  0.67379630138E+02 -0.36727810532E+02 -0.30764373712E+03  0.36150404269E+03  0.17364203773E+03 0.  0.
         24    2    3    3    0    0  0.71784616310E+02 -0.60485757505E+01 -0.87024921433E+02  0.13866919087E+03  0.80412630467E+02 0.  0.
         -6    2    1    2    0  501 -0.67379630138E+02  0.36727810532E+02 -0.28952600045E+03  0.34701822534E+03  0.17523526232E+03 0.  0.
        -24    2    5    5    0    0  0.17688082098E+01 -0.26629129400E+02 -0.72820602196E+02  0.11084259579E+03  0.79189656659E+02 0.  0.
          5    1    3    3  502    0 -0.44049861720E+01 -0.30679234782E+02 -0.22061881569E+03  0.22283485182E+03  0.47000000000E+01 0. -1.
        -13    1    4    4    0    0  0.42746500077E+02 -0.22159065073E+02 -0.93190324888E+02  0.10489387059E+03  0.00000000000E+00 0.  1.
         14    1    4    4    0    0  0.29038116232E+02  0.16110489323E+02  0.61654034544E+01  0.33775320284E+02  0.00000000000E+00 0. -1.
         -5    1    5    5    0  501 -0.69148438348E+02  0.63356939933E+02 -0.21670539825E+03  0.23617562956E+03  0.47000000000E+01 0.  1.
         13    1    6    6    0    0 -0.31260752158E+02 -0.27534380328E+02 -0.15055393727E+02  0.44294938829E+02  0.00000000000E+00 0. -1.
        -14    1    6    6    0    0  0.33029560368E+02  0.90525092770E+00 -0.57765208469E+02  0.66547656960E+02  0.00000000000E+00 0.  1.
</event>
<event>
12    1  0.2625820E-002  0.4301646E+03  0.7818608E-02  0.1033808E+00
         -2   -1    0    0    0  501 -0.00000000000E+00  0.00000000000E+00  0.44263889334E+03  0.44263889334E+03  0.00000000000E+00 0.  1.
          2   -1    0    0  502    0  0.00000000000E+00 -0.00000000000E+00 -0.10523782294E+04  0.10523782294E+04  0.00000000000E+00 0. -1.
          6    2    1    2  502    0 -0.38381798508E+03  0.91028533607E+02 -0.88523170046E+03  0.98423235916E+03  0.17168498392E+03 0.  0.
         24    2    3    3    0    0 -0.10183150029E+03  0.48953473684E+02 -0.37247801951E+03  0.39752534914E+03  0.80749186704E+02 0.  0.
         -6    2    1    2    0  501  0.38381798508E+03 -0.91028533607E+02  0.27549236444E+03  0.51078476354E+03  0.17147184081E+03 0.  0.
        -24    2    5    5    0    0  0.29520930302E+03 -0.12517222510E+03  0.21002609030E+03  0.39534987602E+03  0.96819147570E+02 0.  0.
          5    1    3    3  502    0 -0.28198648479E+03  0.42075059923E+02 -0.51275368096E+03  0.58670701002E+03  0.47000000000E+01 0. -1.
        -11    1    4    4    0    0 -0.40278419796E+02 -0.21189527671E+02 -0.11751100400E+03  0.12601659909E+03  0.00000000000E+00 0.  1.
         12    1    4    4    0    0 -0.61553080497E+02  0.70143001355E+02 -0.25496701551E+03  0.27150875005E+03  0.00000000000E+00 0. -1.
         -5    1    5    5    0  501  0.88608682060E+02  0.34143691493E+02  0.65466274148E+02  0.11543488752E+03  0.47000000000E+01 0.  1.
         13    1    6    6    0    0  0.66825014090E+02 -0.55269944127E+02  0.17256560256E+02  0.88420235828E+02  0.00000000000E+00 0. -1.
        -14    1    6    6    0    0  0.22838428893E+03 -0.69902280973E+02  0.19276953004E+03  0.30692964019E+03  0.00000000000E+00 0.  1.
</event>
<event>
12    1  0.2625820E-002  0.1905144E+03  0.7818608E-02  0.1157998E+00
         -1   -1    0    0    0  501 -0.00000000000E+00  0.00000000000E+00  0.16975624712E+02  0.16975624712E+02  0.00000000000E+00 0. -1.
          1   -1    0    0  502    0  0.00000000000E+00 -0.00000000000E+00 -0.21650584305E+04  0.21650584305E+04  0.00000000000E+00 0.  1.
          6    2    1    2  502    0  0.47111189436E+02 -0.58247883967E+02 -0.12153349897E+04  0.12307902163E+04  0.17942446651E+03 0.  0.
         24    2    3    3    0    0  0.12905408818E+02 -0.10533854375E+03 -0.71141537124E+03  0.72349874433E+03  0.77947701868E+02 0.  0.
         -6    2    1    2    0  501 -0.47111189436E+02  0.58247883967E+02 -0.93274781609E+03  0.95124383891E+03  0.17097974296E+03 0.  0.
        -24    2    5    5    0    0 -0.62287127955E+02  0.42576398895E+01 -0.81000900935E+03  0.81621732210E+03  0.78729332862E+02 0.  0.
          5    1    3    3  502    0  0.34205780618E+02  0.47090659781E+02 -0.50391961845E+03  0.50729147196E+03  0.47000000000E+01 0. -1.
        -11    1    4    4    0    0  0.13825793628E+02 -0.50698047895E+02 -0.56114150453E+03  0.56359669333E+03  0.00000000000E+00 0.  1.
         12    1    4    4    0    0 -0.92038481007E+00 -0.54640495853E+02 -0.15027386671E+03  0.15990205100E+03  0.00000000000E+00 0. -1.
         -5    1    5    5    0  501  0.15175938518E+02  0.53990244078E+02 -0.12273880673E+03  0.13502651682E+03  0.47000000000E+01 0.  1.
         11    1    6    6    0    0 -0.26562095709E+02  0.18418314148E+02 -0.98429938776E+02  0.10360131308E+03  0.00000000000E+00 0. -1.
        -12    1    6    6    0    0 -0.35725032245E+02 -0.14160674259E+02 -0.71157907058E+03  0.71261600902E+03  0.00000000000E+00 0.  1.
</event>
<event>
12    1  0.2625820E-002  0.2909230E+03  0.7818608E-02  0.1089868E+00
          1   -1    0    0  502    0  0.00000000000E+00  0.00000000000E+00  0.87837672287E+03  0.87837672287E+03  0.00000000000E+00 0. -1.
         -1   -1    0    0    0  501 -0.00000000000E+00 -0.00000000000E+00 -0.96401539910E+02  0.96401539910E+02  0.00000000000E+00 0.  1.
          6    2    1    2  502    0  0.18703158196E+03  0.14282894024E+03  0.37830951773E+03  0.47613476259E+03  0.16794434234E+03 0.  0.
         24    2    3    3    0    0  0.68451571523E+02  0.11378158095E+03  0.14196430976E+03  0.21007816094E+03  0.79668705581E+02 0.  0.
         -6    2    1    2    0  501 -0.18703158196E+03 -0.14282894024E+03  0.40366566523E+03  0.49864350019E+03  0.17412194627E+03 0.  0.
        -24    2    5    5    0    0 -0.21371175965E+03 -0.12927464336E+03  0.36893839863E+03  0.45256070631E+03  0.79441810723E+02 0.  0.
          5    1    3    3  502    0  0.11858001043E+03  0.29047359299E+02  0.23634520797E+03  0.26605660166E+03  0.47000000000E+01 0. -1.
        -13    1    4    4    0    0  0.18829847947E+02  0.15637331304E+02 -0.64938453159E+01  0.25323098764E+02  0.00000000000E+00 0.  1.
         14    1    4    4    0    0  0.49621723575E+02  0.98144249641E+02  0.14845815508E+03  0.18475506217E+03  0.00000000000E+00 0. -1.
         -5    1    5    5    0  501  0.26680177689E+02 -0.13554296882E+02  0.34727266604E+02  0.46082793874E+02  0.47000000000E+01 0.  1.
         13    1    6    6    0    0 -0.66812165497E+02 -0.58901400801E+02  0.19434500104E+03  0.21378311417E+03  0.00000000000E+00 0. -1.
        -14    1    6    6    0    0 -0.14689959415E+03 -0.70373242561E+02  0.17459339759E+03  0.23877759214E+03  0.00000000000E+00 0.  1.
</event>
<event>
12    1  0.2625820E-002  0.1785155E+03  0.7818608E-02  0.1169248E+00
          2   -1    0    0  502    0  0.00000000000E+00  0.00000000000E+00  0.86980135128E+03  0.86980135128E+03  0.00000000000E+00 0. -1.
         -2   -1    0    0    0  501 -0.00000000000E+00 -0.00000000000E+00 -0.38172597282E+02  0.38172597282E+02  0.00000000000E+00 0.  1.
          6    2    1    2  502    0  0.41197393419E+02  0.19130952903E+02  0.32706722068E+03  0.37309647097E+03  0.17368014056E+03 0.  0.
         24    2    3    3    0    0  0.47356932217E+02 -0.62984571450E+01  0.71248716898E+02  0.11590045294E+03  0.77937062690E+02 0.  0.
         -6    2    1    2    0  501 -0.41197393419E+02 -0.19130952903E+02  0.50456153331E+03  0.53487747759E+03  0.17160523461E+03 0.  0.
        -24    2    5    5    0    0 -0.75476733854E+02  0.17685341352E+02  0.43406549486E+03  0.44814631744E+03  0.80079706240E+02 0.  0.
          5    1    3    3  502    0 -0.61595387982E+01  0.25429410048E+02  0.25581850378E+03  0.25719601803E+03  0.47000000000E+01 0. -1.
        -11    1    4    4    0    0  0.43126363780E+02 -0.35057882831E+02  0.66131282888E+02  0.86384518161E+02  0.00000000000E+00 0.  1.
         12    1    4    4    0    0  0.42305684375E+01  0.28759425686E+02  0.51174340096E+01  0.29515934780E+02  0.00000000000E+00 0. -1.
         -5    1    5    5    0  501  0.34279340434E+02 -0.36816294256E+02  0.70496038452E+02  0.86731160149E+02  0.47000000000E+01 0.  1.
         11    1    6    6    0    0 -0.56667858026E+02 -0.11714219779E+02  0.37578776256E+03  0.38021692699E+03  0.00000000000E+00 0. -1.
        -12    1    6    6    0    0 -0.18808875828E+02  0.29399561131E+02  0.58277732298E+02  0.67929390446E+02  0.00000000000E+00 0.  1.
</event>
<event>
12    1  0.2625820E-002  0.1831593E+03  0.7818608E-02  0.1164780E+00
         -2   -1    0    0    0  501 -0.00000000000E+00  0.00000000000E+00  0.57880431732E+02  0.57880431732E+02  0.00000000000E+00 0.  1.
          2   -1    0    0  502    0  0.00000000000E+00 -0.00000000000E+00 -0.10620149367E+04  0.10620149367E+04  0.00000000000E+00 0. -1.
          6    2    1    2  502    0 -0.31233564766E+02  0.54406430449E+02 -0.12500365217E+03  0.22193216595E+03  0.17231476427E+03 0.  0.
         24    2    3    3    0    0 -0.40261795544E+02 -0.25082911126E+02 -0.29719761558E+02  0.97428454422E+02  0.79742553840E+02 0.  0.
         -6    2    1    2    0  501  0.31233564766E+02 -0.54406430449E+02 -0.87913085282E+03  0.89796320250E+03  0.17184662179E+03 0.  0.
        -24    2    5    5    0    0  0.38109235466E+02 -0.89857926300E+02 -0.44972362309E+03  0.46701454854E+03  0.79526666190E+02 0.  0.
          5    1    3    3  502    0  0.90282307784E+01  0.79489341575E+02 -0.95283890607E+02  0.12450371153E+03  0.47000000000E+01 0. -1.
        -13    1    4    4    0    0 -0.11028332150E+02  0.16519071740E+02  0.18653472168E+02  0.27248043326E+02  0.00000000000E+00 0.  1.
         14    1    4    4    0    0 -0.29233463394E+02 -0.41601982866E+02 -0.48373233726E+02  0.70180411095E+02  0.00000000000E+00 0. -1.
         -5    1    5    5    0  501 -0.68756706999E+01  0.35451495851E+02 -0.42940722973E+03  0.43094865396E+03  0.47000000000E+01 0.  1.
         11    1    6    6    0    0 -0.34387707213E+01 -0.83319123491E+01 -0.21346753843E+03  0.21365775406E+03  0.00000000000E+00 0. -1.
        -12    1    6    6    0    0  0.41548006187E+02 -0.81526013951E+02 -0.23625608466E+03  0.25335679448E+03  0.00000000000E+00 0.  1.
</event>
<event>
12    1  0.2625820E-002  0.2121045E+03  0.7818608E-02  0.1139910E+00
         -2   -1    0    0    0  501 -0.00000000000E+00  0.00000000000E+00  0.17231638310E+03  0.17231638310E+03  0.00000000000E+00 0.  1.
          2   -1    0    0  502    0  0.00000000000E+00 -0.00000000000E+00 -0.74392485932E+03  0.74392485932E+03  0.00000000000E+00 0. -1.
          6    2    1    2  502    0  0.88453793282E+01 -0.12368228634E+03 -0.65538534787E+03  0.68918419704E+03  0.17340517453E+03 0.  0.
         24    2    3    3    0    0  0.47170356569E+02 -0.14121238869E+03 -0.55333857854E+03  0.57867744837E+03  0.80734289503E+02 0.  0.
         -6    2    1    2    0  501 -0.88453793282E+01  0.12368228634E+03  0.83776871649E+02  0.22705704537E+03  0.17076530368E+03 0.  0.
        -24    2    5    5    0    0 -0.39862375207E+02  0.24765347197E+02 -0.24570685438E+01  0.92131149699E+02  0.79245064075E+02 0.  0.
          5    1    3    3  502    0 -0.38324977241E+02  0.17530102348E+02 -0.10204676933E+03  0.11050674866E+03  0.47000000000E+01 0. -1.
        -13    1    4    4    0    0  0.67224067576E+02 -0.91606694334E+02 -0.32981914581E+03  0.34884313187E+03  0.00000000000E+00 0.  1.
         14    1    4    4    0    0 -0.20053711006E+02 -0.49605694354E+02 -0.22351943273E+03  0.22983431651E+03  0.00000000000E+00 0. -1.
         -5    1    5    5    0  501  0.31016995878E+02  0.98916939142E+02  0.86233940192E+02  0.13492589567E+03  0.47000000000E+01 0.  1.
         11    1    6    6    0    0  0.74828074696E+01  0.40811749356E+02 -0.64112908695E+01  0.41984472650E+02  0.00000000000E+00 0. -1.
        -12    1    6    6    0    0 -0.47345182676E+02 -0.16046402159E+02  0.39542223257E+01  0.50146677049E+02  0.00000000000E+00 0.  1.
</event>
<event>
12    1  0.2625820E-002  0.2420357E+03  0.7818608E-02  0.1118444E+00
          1   -1    0    0  502    0  0.00000000000E+00  0.00000000000E+00  0.63590433120E+03  0.63590433120E+03  0.00000000000E+00 0.  1.
         -1   -1    0    0    0  501 -0.00000000000E+00 -0.00000000000E+00 -0.98327851882E+02  0.98327851882E+02  0.00000000000E+00 0. -1.
          6    2    1    2  502    0  0.16797062456E+03 -0.25687874331E+02  0.36100937800E+03  0.43463576553E+03  0.17235567896E+03 0.  0.
         24    2    3    3    0    0  0.12345953220E+03  0.43488618936E+02  0.27889683796E+03  0.31831214886E+03  0.80035378543E+02 0.  0.
         -6    2    1    2    0  501 -0.16797062456E+03  0.25687874331E+02  0.17656710132E+03  0.29959641755E+03  0.17236030443E+03 0.  0.
        -24    2    5    5    0    0 -0.68490116990E+02  0.61490000352E+02  0.43354278118E+02  0.12946144208E+03  0.80054701840E+02 0.  0.
          5    1    3    3  502    0  0.44511092352E+02 -0.69176493267E+02  0.82112540040E+02  0.11632361667E+03  0.47000000000E+01 0. -1.
        -13    1    4    4    0    0  0.29837343547E+02 -0.60346152711E+01  0.14200456675E+03  0.14523078402E+03  0.00000000000E+00 0.  1.
         14    1    4    4    0    0  0.93622188657E+02  0.49523234207E+02  0.13689227121E+03  0.17308136484E+03  0.00000000000E+00 0. -1.
         -5    1    5    5    0  501 -0.99480507566E+02 -0.35802126021E+02  0.13321282320E+03  0.17013497547E+03  0.47000000000E+01 0.  1.
         13    1    6    6    0    0 -0.48134168996E+02  0.64355821407E+01 -0.10631909404E+02  0.49712698981E+02  0.00000000000E+00 0. -1.
        -14    1    6    6    0    0 -0.20355947994E+02  0.55054418212E+02  0.53986187522E+02  0.79748743103E+02  0.00000000000E+00 0.  1.
</event>
<event>
12    1  0.2625820E-002  0.2004882E+03  0.7818608E-02  0.1149328E+00
          1   -1    0    0  502    0  0.00000000000E+00  0.00000000000E+00  0.10726670378E+03  0.10726670378E+03  0.00000000000E+00 0. -1.
         -1   -1    0    0    0  501 -0.00000000000E+00 -0.00000000000E+00 -0.37596751063E+03  0.37596751063E+03  0.00000000000E+00 0.  1.
          6    2    1    2  502    0 -0.10261281214E+03 -0.13213241102E+02 -0.14805013961E+03  0.24900279676E+03  0.17140469655E+03 0.  0.
         24    2    3    3    0    0 -0.27056334812E+02  0.52691200878E+02 -0.64284547899E+02  0.11827047063E+03  0.79668018816E+02 0.  0.
         -6    2    1    2    0  501  0.10261281214E+03  0.13213241102E+02 -0.12065066724E+03  0.23423141765E+03  0.17205753269E+03 0.  0.
        -24    2    5    5    0    0  0.99194883433E+02 -0.37096685236E+01 -0.15183791490E+03  0.19827586838E+03  0.80032374939E+02 0.  0.
          5    1    3    3  502    0 -0.75556477331E+02 -0.65904441979E+02 -0.83765591711E+02  0.13073232612E+03  0.47000000000E+01 0. -1.
        -11    1    4    4    0    0  0.58650878265E+01 -0.59515939483E+01 -0.48469124919E+02  0.49184111217E+02  0.00000000000E+00 0.  1.
         12    1    4    4    0    0 -0.32921422639E+02  0.58642794826E+02 -0.15815422980E+02  0.69086359418E+02  0.00000000000E+00 0. -1.
         -5    1    5    5    0  501  0.34179287108E+01  0.16922909625E+02  0.31187247667E+02  0.35955549278E+02  0.47000000000E+01 0.  1.
         13    1    6    6    0    0  0.66372652416E+02  0.28936492745E+02 -0.54949757076E+02  0.90896234266E+02  0.00000000000E+00 0. -1.
        -14    1    6    6    0    0  0.32822231017E+02 -0.32646161268E+02 -0.96888157826E+02  0.10737963411E+03  0.00000000000E+00 0.  1.
</event>
<event>
12    1  0.2625820E-002  0.1919838E+03  0.7818608E-02  0.1156684E+00
         -2   -1    0    0    0  501 -0.00000000000E+00  0.00000000000E+00  0.38063243839E+03  0.38063243839E+03  0.00000000000E+00 0. -1.
          2   -1    0    0  502    0  0.00000000000E+00 -0.00000000000E+00 -0.18970034009E+03  0.18970034009E+03  0.00000000000E+00 0.  1.
          6    2    1    2  502    0  0.74112986034E+02 -0.41105991369E+02  0.29493679012E+03  0.35180227616E+03  0.17203108475E+03 0.  0.
         24    2    3    3    0    0  0.81666890534E+02 -0.72617933076E+02  0.28860126322E+03  0.31845122154E+03  0.78598003481E+02 0.  0.
         -6    2    1    2    0  501 -0.74112986034E+02  0.41105991369E+02 -0.10400469182E+03  0.21853050232E+03  0.17249976028E+03 0.  0.
        -24    2    5    5    0    0 -0.10334509924E+03  0.71207541763E+02 -0.90832815078E+02  0.17430146077E+03  0.79872870182E+02 0.  0.
          5    1    3    3  502    0 -0.75539044997E+01  0.31511941707E+02  0.63355268955E+01  0.33351054622E+02  0.47000000000E+01 0. -1.
        -11    1    4    4    0    0  0.33909685807E+02 -0.11578371149E+02  0.24996069514E+02  0.43689002748E+02  0.00000000000E+00 0.  1.
         12    1    4    4    0    0  0.47757204727E+02 -0.61039561927E+02  0.26360519371E+03  0.27476221879E+03  0.00000000000E+00 0. -1.
         -5    1    5    5    0  501  0.29232113210E+02 -0.30101550394E+02 -0.13171876740E+02  0.44229041542E+02  0.47000000000E+01 0.  1.
         13    1    6    6    0    0  0.10481046288E+00  0.40989713056E+02 -0.24923449598E+02  0.47972345174E+02  0.00000000000E+00 0. -1.
        -14    1    6    6    0    0 -0.10344990971E+03  0.30217828707E+02 -0.65909365481E+02  0.12632911560E+03  0.00000000000E+00 0.  1.
</event>
<event>
12    1  0.2625820E-002  0.1974643E+03  0.7818608E-02  0.1151896E+00
         -2   -1    0    0    0  501 -0.00000000000E+00  0.00000000000E+00  0.33162446787E+03  0.33162446787E+03  0.00000000000E+00 0. -1.
          2   -1    0    0  502    0  0.00000000000E+00 -0.00000000000E+00 -0.12974432900E+03  0.12974432900E+03  0.00000000000E+00 0.  1.
          6    2    1    2  502    0 -0.60031106361E+02 -0.76355551371E+02  0.30258627496E+02  0.19967382163E+03  0.17181427924E+03 0.  0.
         24    2    3    3    0    0 -0.59853976366E+02 -0.10598762423E+03 -0.14771728001E+02  0.14556361896E+03  0.78451821135E+02 0.  0.
         -6    2    1    2    0  501  0.60031106361E+02  0.76355551371E+02  0.17162151137E+03  0.26169497524E+03  0.17203608037E+03 0.  0.
        -24    2    5    5    0    0 -0.12658495480E+02  0.17802619941E+02  0.23760040232E+02  0.86774054136E+02  0.80548284741E+02 0.  0.
          5    1    3    3  502    0 -0.17712999536E+00  0.29632072859E+02  0.45030355497E+02  0.54110202671E+02  0.47000000000E+01 0. -1.
        -11    1    4    4    0    0 -0.44078880132E+02 -0.19976616850E+02  0.18768422201E+02  0.51906324916E+02  0.00000000000E+00 0.  1.
         12    1    4    4    0    0 -0.15775096234E+02 -0.86011007380E+02 -0.33540150202E+02  0.93657294042E+02  0.00000000000E+00 0. -1.
         -5    1    5    5    0  501  0.72689601841E+02  0.58552931430E+02  0.14786147114E+03  0.17492092111E+03  0.47000000000E+01 0.  1.
         11    1    6    6    0    0  0.32949371705E+02  0.23306033657E+01 -0.88808712657E-01  0.33031813374E+02  0.00000000000E+00 0. -1.
        -12    1    6    6    0    0 -0.45607867185E+02  0.15472016575E+02  0.23848848944E+02  0.53742240761E+02  0.00000000000E+00 0.  1.
</event>
<event>
12    1  0.2625820E-002  0.1951338E+03  0.7818608E-02  0.1153911E+00
          2   -1    0    0  502    0  0.00000000000E+00  0.00000000000E+00  0.18297481450E+03  0.18297481450E+03  0.00000000000E+00 0.  1.
         -2   -1    0    0    0  501 -0.00000000000E+00 -0.00000000000E+00 -0.34946075048E+03  0.34946075048E+03  0.00000000000E+00 0. -1.
          6    2    1    2  502    0 -0.55019879147E+01 -0.92156762801E+02  0.86100741381E+02  0.21318945423E+03  0.17179425173E+03 0.  0.
         24    2    3    3    0    0 -0.92040613006E+01 -0.16785409073E+02  0.10711015555E+03  0.13471632638E+03  0.79431973847E+02 0.  0.
         -6    2    1    2    0  501  0.55019879147E+01  0.92156762801E+02 -0.25258667736E+03  0.31924611075E+03  0.17203170885E+03 0.  0.
        -24    2    5    5    0    0  0.18174676995E+02  0.23887214851E+02 -0.34962318263E+02  0.90764645641E+02  0.78198077233E+02 0.  0.
          5    1    3    3  502    0  0.37020733860E+01 -0.75371353727E+02 -0.21009414171E+02  0.78473127845E+02  0.47000000000E+01 0. -1.
        -11    1    4    4    0    0 -0.36047301912E+02  0.86442148797E+00  0.18633488740E+02  0.40587708759E+02  0.00000000000E+00 0.  1.
         12    1    4    4    0    0  0.26843240612E+02 -0.17649830561E+02  0.88476666812E+02  0.94128617622E+02  0.00000000000E+00 0. -1.
         -5    1    5    5    0  501 -0.12672689080E+02  0.68269547950E+02 -0.21762435910E+03  0.22848146511E+03  0.47000000000E+01 0.  1.
         13    1    6    6    0    0 -0.61135113410E+01 -0.15147545540E+02 -0.41246207084E+02  0.44362966037E+02  0.00000000000E+00 0. -1.
        -14    1    6    6    0    0  0.24288188336E+02  0.39034760391E+02  0.62838888204E+01  0.46401679604E+02  0.00000000000E+00 0.  1.
</event>
<event>
12    1  0.2625820E-002  0.1789521E+03  0.7818608E-02  0.1168821E+00
          2   -1    0    0  502    0  0.00000000000E+00  0.00000000000E+00  0.84838026121E+03  0.84838026121E+03  0.00000000000E+00 0. -1.
         -2   -1    0    0    0  501 -0.00000000000E+00 -0.00000000000E+00 -0.41060940966E+02  0.41060940966E+02  0.00000000000E+00 0.  1.
          6    2    1    2  502    0  0.72903259813E+01 -0.42903132848E+02  0.52526128119E+03  0.55419867460E+03  0.17129778093E+03 0.  0.
         24    2    3    3    0    0 -0.21017034231E+02  0.27433264529E+01  0.11948590041E+03  0.14485694018E+03  0.79103799876E+02 0.  0.
         -6    2    1    2    0  501 -0.72903259813E+01  0.42903132848E+02  0.28205803906E+03  0.33524252758E+03  0.17588913337E+03 0.  0.
        -24    2    5    5    0    0 -0.19909748389E+02  0.46076848216E+02  0.64583771365E+02  0.11732862394E+03  0.84115803800E+02 0.  0.
          5    1    3    3  502    0  0.28307360212E+02 -0.45646459301E+02  0.40577538078E+03  0.40934173442E+03  0.47000000000E+01 0. -1.
        -13    1    4    4    0    0 -0.48231992059E+02 -0.11504704810E+02  0.59417923721E+02  0.77389747060E+02  0.00000000000E+00 0.  1.
         14    1    4    4    0    0  0.27214957828E+02  0.14248031263E+02  0.60067976690E+02  0.67467193124E+02  0.00000000000E+00 0. -1.
         -5    1    5    5    0  501  0.12619422407E+02 -0.31737153685E+01  0.21747426769E+03  0.21791390364E+03  0.47000000000E+01 0.  1.
         13    1    6    6    0    0  0.28441820427E+02  0.56842165157E+01  0.40640500987E+02  0.49928927358E+02  0.00000000000E+00 0. -1.
        -14    1    6    6    0    0 -0.48351568816E+02  0.40392631701E+02  0.23943270378E+02  0.67399696580E+02  0.00000000000E+00 0.  1.
</event>
<event>
12    1  0.2625820E-002  0.1751104E+03  0.7818608E-02  0.1172621E+00
         -2   -1    0    0    0  501 -0.00000000000E+00  0.00000000000E+00  0.11825950101E+02  0.11825950101E+02  0.00000000000E+00 0.  1.
          2   -1    0    0  502    0  0.00000000000E+00 -0.00000000000E+00 -0.27045288851E+04  0.27045288851E+04  0.00000000000E+00 0. -1.
          6    2    1    2  502    0  0.29395064097E+02  0.89957838756E+01 -0.16232256940E+04  0.16326576621E+04  0.17252360470E+03 0.  0.
         24    2    3    3    0    0  0.69531451234E+02 -0.35370926331E+02 -0.12129277778E+04  0.12179941786E+04  0.78932248212E+02 0.  0.
         -6    2    1    2    0  501 -0.29395064097E+02 -0.89957838756E+01 -0.10694772410E+04  0.10836971731E+04  0.17225852650E+03 0.  0.
        -24    2    5    5    0    0 -0.35900892896E+02 -0.67732703070E+02 -0.81346564650E+03  0.82091137054E+03  0.79325450357E+02 0.  0.
          5    1    3    3  502    0 -0.40136387137E+02  0.44366710207E+02 -0.41029791624E+03  0.41466348359E+03  0.47000000000E+01 0. -1.
        -13    1    4    4    0    0 -0.10289276375E+02  0.13233254702E+02 -0.24168137717E+03  0.24226199931E+03  0.00000000000E+00 0.  1.
         14    1    4    4    0    0  0.79820727610E+02 -0.48604181034E+02 -0.97124640058E+03  0.97573217925E+03  0.00000000000E+00 0. -1.
         -5    1    5    5    0  501  0.65058287990E+01  0.58736919194E+02 -0.25601159451E+03  0.26278580253E+03  0.47000000000E+01 0.  1.
         11    1    6    6    0    0  0.18627059536E+02 -0.30197956375E+02 -0.14944310081E+03  0.15359727958E+03  0.00000000000E+00 0. -1.
        -12    1    6    6    0    0 -0.54527952431E+02 -0.37534746695E+02 -0.66402254570E+03  0.66731409096E+03  0.00000000000E+00 0.  1.
</event>
<event>
12    1  0.2625820E-002  0.2274009E+03  0.7818608E-02  0.1128483E+00
          1   -1    0    0  502    0  0.00000000000E+00  0.00000000000E+00  0.82156745509E+03  0.82156745509E+03  0.00000000000E+00 0. -1.
         -1   -1    0    0    0  501 -0.00000000000E+00 -0.00000000000E+00 -0.10708583874E+03  0.10708583874E+03  0.00000000000E+00 0.  1.
          6    2    1    2  502    0 -0.16566209754E+02  0.14775691912E+03  0.58670502172E+02  0.23437527174E+03  0.17141468352E+03 0.  0.
         24    2    3    3    0    0  0.30102000139E+02  0.15530862328E+03  0.32067038383E+02  0.17992543854E+03  0.79485656597E+02 0.  0.
         -6    2    1    2    0  501  0.16566209754E+02 -0.14775691912E+03  0.65581111418E+03  0.69427802209E+03  0.17270555295E+03 0.  0.
        -24    2    5    5    0    0 -0.16041103970E+02 -0.16061972651E+03  0.61191679157E+03  0.63790879041E+03  0.80183860693E+02 0.  0.
          5    1    3    3  502    0 -0.46668209893E+02 -0.75517041625E+01  0.26603463790E+02  0.54449833204E+02  0.47000000000E+01 0. -1.
        -13    1    4    4    0    0 -0.97526623634E+01  0.64840607262E+02 -0.19524586368E+02  0.68415117088E+02  0.00000000000E+00 0.  1.
         14    1    4    4    0    0  0.39854662502E+02  0.90468016020E+02  0.51591624750E+02  0.11151032145E+03  0.00000000000E+00 0. -1.
         -5    1    5    5    0  501  0.32607313725E+02  0.12862807395E+02  0.43894322608E+02  0.56369231675E+02  0.47000000000E+01 0.  1.
         13    1    6    6    0    0 -0.60849225099E+01 -0.70904791792E+02  0.41797165688E+03  0.42398681788E+03  0.00000000000E+00 0. -1.
        -14    1    6    6    0    0 -0.99561814606E+01 -0.89714934723E+02  0.19394513470E+03  0.21392197254E+03  0.00000000000E+00 0.  1.
</event>
<event>
12    1  0.2625820E-002  0.2040903E+03  0.7818608E-02  0.1146333E+00
         -4   -1    0    0    0  501 -0.00000000000E+00  0.00000000000E+00  0.30209778387E+03  0.30209778387E+03  0.00000000000E+00 0. -1.
          4   -1    0    0  502    0  0.00000000000E+00 -0.00000000000E+00 -0.14415900253E+03  0.14415900253E+03  0.00000000000E+00 0.  1.
          6    2    1    2  502    0  0.75588486919E+02 -0.80325823015E+02  0.12563041930E+03  0.23986494415E+03  0.17200677888E+03 0.  0.
         24    2    3    3    0    0  0.10036796031E+03 -0.10395958931E+03  0.80507526988E+02  0.18302532222E+03  0.78329324048E+02 0.  0.
         -6    2    1    2    0  501 -0.75588486919E+02  0.80325823015E+02  0.32308362047E+02  0.20639184225E+03  0.17142900890E+03 0.  0.
        -24    2    5    5    0    0  0.26496012742E+02  0.48245108896E+02  0.11970447573E+02  0.97368275744E+02  0.79420779917E+02 0.  0.
          5    1    3    3  502    0 -0.24779473392E+02  0.23633766294E+02  0.45122892309E+02  0.56839621930E+02  0.47000000000E+01 0. -1.
        -11    1    4    4    0    0  0.66955201295E+02 -0.90154117349E+02  0.91912995032E+02  0.14511637575E+03  0.00000000000E+00 0.  1.
         12    1    4    4    0    0  0.33412759016E+02 -0.13805471960E+02 -0.11405468044E+02  0.37908946469E+02  0.00000000000E+00 0. -1.
         -5    1    5    5    0  501 -0.10208449966E+03  0.32080714119E+02  0.20337914474E+02  0.10902356651E+03  0.47000000000E+01 0.  1.
         13    1    6    6    0    0  0.19714313935E+02  0.70049100709E+02  0.15099945048E+02  0.74320515502E+02  0.00000000000E+00 0. -1.
        -14    1    6    6    0    0  0.67816988068E+01 -0.21803991813E+02 -0.31294974747E+01  0.23047760241E+02  0.00000000000E+00 0.  1.
</event>
<event>
12    1  0.2625820E-002  0.1995031E+03  0.7818608E-02  0.1150159E+00
          1   -1    0    0  502    0  0.00000000000E+00  0.00000000000E+00  0.21376044597E+03  0.21376044597E+03  0.00000000000E+00 0. -1.
         -1   -1    0    0    0  501 -0.00000000000E+00 -0.00000000000E+00 -0.18719643875E+03  0.18719643875E+03  0.00000000000E+00 0.  1.
          6    2    1    2  502    0 -0.54231678793E+02 -0.84977064549E+02  0.27943312109E+02  0.20163344553E+03  0.17237471155E+03 0.  0.
         24    2    3    3    0    0 -0.99447851867E+02 -0.69223589951E+02  0.24440626125E+02  0.15339411429E+03  0.90832975552E+02 0.  0.
         -6    2    1    2    0  501  0.54231678793E+02  0.84977064549E+02 -0.13793048885E+01  0.19932343919E+03  0.17194695242E+03 0.  0.
        -24    2    5    5    0    0 -0.45209582831E+01  0.10381255149E+03 -0.25677522606E+02  0.13284681687E+03  0.78685809866E+02 0.  0.
          5    1    3    3  502    0  0.45216173075E+02 -0.15753474598E+02  0.35026859834E+01  0.48239331241E+02  0.47000000000E+01 0. -1.
        -13    1    4    4    0    0 -0.27221063059E+02 -0.54684693625E+01 -0.31500540412E+02  0.41990171201E+02  0.00000000000E+00 0.  1.
         14    1    4    4    0    0 -0.72226788809E+02 -0.63755120588E+02  0.55941166538E+02  0.11140394309E+03  0.00000000000E+00 0. -1.
         -5    1    5    5    0  501  0.58752637076E+02 -0.18835486941E+02  0.24298217717E+02  0.66476622326E+02  0.47000000000E+01 0.  1.
         13    1    6    6    0    0  0.43341222487E+01  0.95189815384E+02 -0.48478449386E+02  0.10691139146E+03  0.00000000000E+00 0. -1.
        -14    1    6    6    0    0 -0.88550805318E+01  0.86227361062E+01  0.22800926781E+02  0.25935425411E+02  0.00000000000E+00 0.  1.
</event>
<event>
12    1  0.2625820E-002  0.1823230E+03  0.7818608E-02  0.1165574E+00
          2   -1    0    0  502    0  0.00000000000E+00  0.00000000000E+00  0.22092091332E+03  0.22092091332E+03  0.00000000000E+00 0.  1.
         -2   -1    0    0    0  501 -0.00000000000E+00 -0.00000000000E+00 -0.25308413023E+03  0.25308413023E+03  0.00000000000E+00 0. -1.
          6    2    1    2  502    0  0.31523587738E+02  0.56415674944E+02  0.13492703318E+03  0.22499298257E+03  0.16804782938E+03 0.  0.
         24    2    3    3    0    0  0.24151699864E+02 -0.30226012370E+02  0.45491478565E+02  0.10016536087E+03  0.80415847104E+02 0.  0.
         -6    2    1    2    0  501 -0.31523587738E+02 -0.56415674944E+02 -0.16709025009E+03  0.24901206098E+03  0.17294909620E+03 0.  0.
        -24    2    5    5    0    0 -0.15692629648E+02 -0.10462465039E+03 -0.13609490009E+03  0.18936705893E+03  0.78393144365E+02 0.  0.
          5    1    3    3  502    0  0.73718878742E+01  0.86641687314E+02  0.89435554611E+02  0.12482762170E+03  0.47000000000E+01 0. -1.
        -11    1    4    4    0    0  0.12501020263E+02  0.27051716113E+02  0.22562517602E+02  0.37378309924E+02  0.00000000000E+00 0.  1.
         12    1    4    4    0    0  0.11650679601E+02 -0.57277728483E+02  0.22928960963E+02  0.62787050943E+02  0.00000000000E+00 0. -1.
         -5    1    5    5    0  501 -0.15830958091E+02  0.48208975451E+02 -0.30995350005E+02  0.59645002054E+02  0.47000000000E+01 0.  1.
         13    1    6    6    0    0 -0.30227804185E+02 -0.22853652073E+02 -0.81773005538E+02  0.90126766244E+02  0.00000000000E+00 0. -1.
        -14    1    6    6    0    0  0.14535174537E+02 -0.81770998322E+02 -0.54321894548E+02  0.99240292687E+02  0.00000000000E+00 0.  1.
</event>
<event>
12    1  0.2625820E-002  0.2516142E+03  0.7818608E-02  0.1112289E+00
          1   -1    0    0  502    0  0.00000000000E+00  0.00000000000E+00  0.76816953785E+03  0.76816953785E+03  0.00000000000E+00 0.  1.
         -1   -1    0    0    0  501 -0.00000000000E+00 -0.00000000000E+00 -0.17042796571E+03  0.17042796571E+03  0.00000000000E+00 0. -1.
          6    2    1    2  502    0  0.73377651028E+02  0.16753728377E+03  0.63616566885E+03  0.68414745173E+03  0.17291025524E+03 0.  0.
         24    2    3    3    0    0  0.36355030305E+02  0.18888749009E+03  0.50423945909E+03  0.54539183716E+03  0.78706110251E+02 0.  0.
         -6    2    1    2    0  501 -0.73377651028E+02 -0.16753728377E+03 -0.38424096713E+02  0.25445005182E+03  0.17267135414E+03 0.  0.
        -24    2    5    5    0    0 -0.47025143152E+02 -0.68740476639E+02 -0.82560616534E+02  0.14298083566E+03  0.81796373672E+02 0.  0.
          5    1    3    3  502    0  0.37022620724E+02 -0.21350206322E+02  0.13192620976E+03  0.13875561458E+03  0.47000000000E+01 0. -1.
        -11    1    4    4    0    0  0.25206714885E+02  0.19078674269E+02  0.13759186200E+03  0.14117682096E+03  0.00000000000E+00 0.  1.
         12    1    4    4    0    0  0.11148315420E+02  0.16980881582E+03  0.36664759709E+03  0.40421501620E+03  0.00000000000E+00 0. -1.
         -5    1    5    5    0  501 -0.26352507876E+02 -0.98796807132E+02  0.44136519821E+02  0.11146921617E+03  0.47000000000E+01 0.  1.
         11    1    6    6    0    0 -0.33478875634E+02 -0.45064730390E+02 -0.11474636446E+00  0.56139809454E+02  0.00000000000E+00 0. -1.
        -12    1    6    6    0    0 -0.13546267519E+02 -0.23675746249E+02 -0.82445870170E+02  0.86841026204E+02  0.00000000000E+00 0.  1.
</event>
<event>
12    1  0.2625820E-002  0.1917057E+03  0.7818608E-02  0.1156932E+00
          2   -1    0    0  502    0  0.00000000000E+00  0.00000000000E+00  0.64793790509E+03  0.64793790509E+03  0.00000000000E+00 0. -1.
         -2   -1    0    0    0  501 -0.00000000000E+00 -0.00000000000E+00 -0.61020847987E+02  0.61020847987E+02  0.00000000000E+00 0.  1.
          6    2    1    2  502    0 -0.12116731185E+02 -0.82563041931E+02  0.19761131960E+03  0.27445970817E+03  0.17121456336E+03 0.  0.
         24    2    3    3    0    0 -0.39272827945E+02 -0.10575800212E+02  0.17116478332E+03  0.19296660513E+03  0.79274996571E+02 0.  0.
         -6    2    1    2    0  501  0.12116731185E+02  0.82563041931E+02  0.38930573751E+03  0.43449904491E+03  0.17397411217E+03 0.  0.
        -24    2    5    5    0    0  0.18542218274E+02 -0.12371879327E+02  0.10533765256E+03  0.13497627545E+03  0.81398382235E+02 0.  0.
          5    1    3    3  502    0  0.27156096760E+02 -0.71987241719E+02  0.26446536277E+02  0.81493103037E+02  0.47000000000E+01 0. -1.
        -11    1    4    4    0    0 -0.94051845564E+01  0.28546806104E+02  0.26195978632E+02  0.39869874990E+02  0.00000000000E+00 0.  1.
         12    1    4    4    0    0 -0.29867643389E+02 -0.39122606316E+02  0.14496880469E+03  0.15309673014E+03  0.00000000000E+00 0. -1.
         -5    1    5    5    0  501 -0.64254870891E+01  0.94934921258E+02  0.28396808495E+03  0.29952276947E+03  0.47000000000E+01 0.  1.
         11    1    6    6    0    0  0.41466117179E+02 -0.19529094116E+02  0.10052829729E+03  0.11048422036E+03  0.00000000000E+00 0. -1.
        -12    1    6    6    0    0 -0.22923898905E+02  0.71572147886E+01  0.48093552650E+01  0.24492055091E+02  0.00000000000E+00 0.  1.
</event>
<event>
12    1  0.2625820E-002  0.1821013E+03  0.7818608E-02  0.1165785E+00
         -2   -1    0    0    0  501 -0.00000000000E+00  0.00000000000E+00  0.16109988117E+03  0.16109988117E+03  0.00000000000E+00 0. -1.
          2   -1    0    0  502    0  0.00000000000E+00 -0.00000000000E+00 -0.25352105386E+03  0.25352105386E+03  0.00000000000E+00 0.  1.
          6    2    1    2  502    0 -0.52052931003E+02  0.24982679006E+02 -0.13619613582E+03  0.22771620741E+03  0.17312319841E+03 0.  0.
         24    2    3    3    0    0 -0.20899033770E+02  0.66191505375E+02 -0.14002347755E+03  0.17570206291E+03  0.80290445563E+02 0.  0.
         -6    2    1    2    0  501  0.52052931003E+02 -0.24982679006E+02  0.43774963141E+02  0.18690472762E+03  0.17228896637E+03 0.  0.
        -24    2    5    5    0    0  0.50920360773E+01  0.12551752752E+01  0.86834701791E+02  0.11783967320E+03  0.79488482491E+02 0.  0.
          5    1    3    3  502    0 -0.31153897234E+02 -0.41208826368E+02  0.38273417251E+01  0.52014144501E+02  0.47000000000E+01 0. -1.
        -13    1    4    4    0    0  0.17286304742E+02 -0.70762930439E+01 -0.50675908311E+02  0.54008683913E+02  0.00000000000E+00 0.  1.
         14    1    4    4    0    0 -0.38185338511E+02  0.73267798419E+02 -0.89347569237E+02  0.12169337899E+03  0.00000000000E+00 0. -1.
         -5    1    5    5    0  501  0.46960894926E+02 -0.26237854282E+02 -0.43059738650E+02  0.69065054421E+02  0.47000000000E+01 0.  1.
         11    1    6    6    0    0 -0.38383274042E+01  0.34009731997E+02  0.74023293089E+02  0.81552697978E+02  0.00000000000E+00 0. -1.
        -12    1    6    6    0    0  0.89303634815E+01 -0.32754556722E+02  0.12811408702E+02  0.36286975223E+02  0.00000000000E+00 0.  1.
</event>
<event>
12    1  0.2625820E-002  0.1821520E+03  0.7818608E-02  0.1165736E+00
         -2   -1    0    0    0  501 -0.00000000000E+00  0.00000000000E+00  0.48206173980E+02  0.48206173980E+02  0.00000000000E+00 0. -1.
          2   -1    0    0  502    0  0.00000000000E+00 -0.00000000000E+00 -0.84888034621E+03  0.84888034621E+03  0.00000000000E+00 0.  1.
          6    2    1    2  502    0  0.41323264971E+02  0.48520620574E+02 -0.20244248234E+03  0.27127109986E+03  0.16894729389E+03 0.  0.
         24    2    3    3    0    0  0.91427197051E+02  0.31467298467E+02 -0.12785007756E+03  0.17968869622E+03  0.81198903837E+02 0.  0.
         -6    2    1    2    0  501 -0.41323264971E+02 -0.48520620574E+02 -0.59823168989E+03  0.62581542033E+03  0.17234245759E+03 0.  0.
        -24    2    5    5    0    0 -0.84200496535E+02 -0.21910368331E+00 -0.32578980776E+03  0.34578298889E+03  0.79605935349E+02 0.  0.
          5    1    3    3  502    0 -0.50103932080E+02  0.17053322107E+02 -0.74592404789E+02  0.91582403643E+02  0.47000000000E+01 0. -1.
        -11    1    4    4    0    0  0.61446948209E+02  0.58216009104E+02 -0.98841962823E+02  0.13013287354E+03  0.00000000000E+00 0.  1.
         12    1    4    4    0    0  0.29980248842E+02 -0.26748710636E+02 -0.29008114732E+02  0.49555822682E+02  0.00000000000E+00 0. -1.
         -5    1    5    5    0  501  0.42877231564E+02 -0.48301516891E+02 -0.27244188213E+03  0.28003243145E+03  0.47000000000E+01 0.  1.
         11    1    6    6    0    0 -0.32965740207E+02 -0.39251632781E+02 -0.13418333581E+03  0.14364051765E+03  0.00000000000E+00 0. -1.
        -12    1    6    6    0    0 -0.51234756328E+02  0.39032529098E+02 -0.19160647195E+03  0.20214247123E+03  0.00000000000E+00 0.  1.
</event>
<event>
12    1  0.2625820E-002  0.2199656E+03  0.7818608E-02  0.1133909E+00
         -2   -1    0    0    0  501 -0.00000000000E+00  0.00000000000E+00  0.19984564065E+02  0.19984564065E+02  0.00000000000E+00 0. -1.
          2   -1    0    0  502    0  0.00000000000E+00 -0.00000000000E+00 -0.27861665654E+04  0.27861665654E+04  0.00000000000E+00 0.  1.
          6    2    1    2  502    0  0.65287792147E+02 -0.11935365512E+03 -0.18952754587E+04  0.19080891330E+04  0.17385995542E+03 0.  0.
         24    2    3    3    0    0  0.10262859881E+03 -0.77151242890E+02 -0.10626376581E+04  0.10735334568E+04  0.82403562256E+02 0.  0.
         -6    2    1    2    0  501 -0.65287792147E+02  0.11935365512E+03 -0.87090654260E+03  0.89806199649E+03  0.17184106844E+03 0.  0.
        -24    2    5    5    0    0 -0.24782432551E+02  0.10260749877E+03 -0.82269534776E+03  0.83273568314E+03  0.74017666660E+02 0.  0.
          5    1    3    3  502    0 -0.37340806665E+02 -0.42202412225E+02 -0.83263780069E+03  0.83455567614E+03  0.47000000000E+01 0. -1.
        -11    1    4    4    0    0  0.33464773932E+02 -0.70624416624E+02 -0.69583237811E+03  0.70020739624E+03  0.00000000000E+00 0.  1.
         12    1    4    4    0    0  0.69163824879E+02 -0.65268262659E+01 -0.36680527995E+03  0.37332606061E+03  0.00000000000E+00 0. -1.
         -5    1    5    5    0  501 -0.40505359596E+02  0.16746156349E+02 -0.48211194840E+02  0.65326313353E+02  0.47000000000E+01 0.  1.
         11    1    6    6    0    0 -0.48375291553E+02  0.88340965000E+02 -0.67752406949E+03  0.68496945893E+03  0.00000000000E+00 0. -1.
        -12    1    6    6    0    0  0.23592859002E+02  0.14266533767E+02 -0.14517127827E+03  0.14776622420E+03  0.00000000000E+00 0.  1.
</event>
<event>
12    1  0.2625820E-002  0.3787197E+03  0.7818608E-02  0.1051408E+00
         -1   -1    0    0    0  501 -0.00000000000E+00  0.00000000000E+00  0.67853513058E+02  0.67853513058E+02  0.00000000000E+00 0.  1.
          1   -1    0    0  502    0  0.00000000000E+00 -0.00000000000E+00 -0.26922224570E+04  0.26922224570E+04  0.00000000000E+00 0. -1.
          6    2    1    2  502    0 -0.33738929093E+03  0.11937321927E+02 -0.19506955910E+04  0.19870377402E+04  0.17067999047E+03 0.  0.
         24    2    3    3    0    0 -0.25991648919E+03  0.20199612519E+02 -0.11259510333E+04  0.11586079146E+04  0.81498250591E+02 0.  0.
         -6    2    1    2    0  501  0.33738929093E+03 -0.11937321927E+02 -0.67367335296E+03  0.77303822983E+03  0.17256385772E+03 0.  0.
        -24    2    5    5    0    0  0.26943770593E+03  0.42604416917E+02 -0.57233061961E+03  0.63930469333E+03  0.82075203652E+02 0.  0.
          5    1    3    3  502    0 -0.77472801743E+02 -0.82622905920E+01 -0.82474455773E+03  0.82842982561E+03  0.47000000000E+01 0. -1.
        -13    1    4    4    0    0 -0.11215658529E+03  0.48834640809E+02 -0.53221932879E+03  0.54609645275E+03  0.00000000000E+00 0.  1.
         14    1    4    4    0    0 -0.14775990390E+03 -0.28635028290E+02 -0.59373170447E+03  0.61251146188E+03  0.00000000000E+00 0. -1.
         -5    1    5    5    0  501  0.67951584999E+02 -0.54541738844E+02 -0.10134273335E+03  0.13373353650E+03  0.47000000000E+01 0.  1.
         13    1    6    6    0    0  0.12648005374E+03  0.61358557277E+02 -0.27387013640E+03  0.30784237551E+03  0.00000000000E+00 0. -1.
        -14    1    6    6    0    0  0.14295765219E+03 -0.18754140360E+02 -0.29846048321E+03  0.33146231782E+03  0.00000000000E+00 0.  1.
</event>
<event>
12    1  0.2625820E-002  0.1788503E+03  0.7818608E-02  0.1168920E+00
         -2   -1    0    0    0  501 -0.00000000000E+00  0.00000000000E+00  0.17714361876E+02  0.17714361876E+02  0.00000000000E+00 0.  1.
          2   -1    0    0  502    0  0.00000000000E+00 -0.00000000000E+00 -0.18267492129E+04  0.18267492129E+04  0.00000000000E+00 0. -1.
          6    2    1    2  502    0  0.39630849500E+02 -0.28075805468E+02 -0.80383252244E+03  0.82341157595E+03  0.17175868009E+03 0.  0.
         24    2    3    3    0    0  0.90903520104E+02 -0.82627569241E+01 -0.55262908943E+03  0.56622157147E+03  0.82923063151E+02 0.  0.
         -6    2    1    2    0  501 -0.39630849500E+02  0.28075805468E+02 -0.10052023286E+04  0.10210519989E+04  0.17250103721E+03 0.  0.
        -24    2    5    5    0    0 -0.68386706301E+02 -0.32052683114E+02 -0.54829102452E+03  0.55928109868E+03  0.80425019010E+02 0.  0.
          5    1    3    3  502    0 -0.51272670604E+02 -0.19813048544E+02 -0.25120343301E+03  0.25719000447E+03  0.47000000000E+01 0. -1.
        -13    1    4    4    0    0  0.65034840080E+02  0.16220861016E+02 -0.48663367106E+03  0.49122802909E+03  0.00000000000E+00 0.  1.
         14    1    4    4    0    0  0.25868680024E+02 -0.24483617940E+02 -0.65995418369E+02  0.74993542384E+02  0.00000000000E+00 0. -1.
         -5    1    5    5    0  501  0.28755856801E+02  0.60128488583E+02 -0.45691130411E+03  0.46177090019E+03  0.47000000000E+01 0.  1.
         11    1    6    6    0    0 -0.68914225235E+02 -0.57241948435E+01 -0.49533656656E+03  0.50014023135E+03  0.00000000000E+00 0. -1.
        -12    1    6    6    0    0  0.52751893357E+00 -0.26328488271E+02 -0.52954457958E+02  0.59140867330E+02  0.00000000000E+00 0.  1.
</event>
<event>
12    1  0.2625820E-002  0.1839935E+03  0.7818608E-02  0.1163993E+00
         -2   -1    0    0    0  501 -0.00000000000E+00  0.00000000000E+00  0.44515875420E+03  0.44515875420E+03  0.00000000000E+00 0. -1.
          2   -1    0    0  502    0  0.00000000000E+00 -0.00000000000E+00 -0.14299035602E+04  0.14299035602E+04  0.00000000000E+00 0.  1.
          6    2    1    2  502    0 -0.19199141368E+02 -0.63836678528E+02 -0.14044863830E+04  0.14163562725E+04  0.17040939498E+03 0.  0.
         24    2    3    3    0    0  0.10039486327E+02 -0.70593485429E+00 -0.11435648685E+04  0.11462775527E+04  0.78168597601E+02 0.  0.
         -6    2    1    2    0  501  0.19199141368E+02  0.63836678528E+02  0.41974157702E+03  0.45870604192E+03  0.17258190189E+03 0.  0.
        -24    2    5    5    0    0  0.29317292051E+02  0.11028358127E+03  0.31442518941E+03  0.34306295632E+03  0.76203807997E+02 0.  0.
          5    1    3    3  502    0 -0.29238627695E+02 -0.63130743673E+02 -0.26092151451E+03  0.27007871978E+03  0.47000000000E+01 0. -1.
        -13    1    4    4    0    0 -0.22168385805E+02  0.23056681966E+02 -0.75022321851E+03  0.75090473797E+03  0.00000000000E+00 0.  1.
         14    1    4    4    0    0  0.32207872132E+02 -0.23762616821E+02 -0.39334165000E+03  0.39537281470E+03  0.00000000000E+00 0. -1.
         -5    1    5    5    0  501 -0.10118150684E+02 -0.46446902743E+02  0.10531638761E+03  0.11564308560E+03  0.47000000000E+01 0.  1.
         11    1    6    6    0    0  0.51865893920E+02  0.52726253093E+02  0.19568374604E+03  0.20919430485E+03  0.00000000000E+00 0. -1.
        -12    1    6    6    0    0 -0.22548601868E+02  0.57557328178E+02  0.11874144337E+03  0.13386865147E+03  0.00000000000E+00 0.  1.
</event>
<event>
12    1  0.2625820E-002  0.2316492E+03  0.7818608E-02  0.1125484E+00
         -1   -1    0    0    0  501 -0.00000000000E+00  0.00000000000E+00  0.66092553679E+02  0.66092553679E+02  0.00000000000E+00 0. -1.
          1   -1    0    0  502    0  0.00000000000E+00 -0.00000000000E+00 -0.91579925547E+03  0.91579925547E+03  0.00000000000E+00 0.  1.
          6    2    1    2  502    0  0.15499396722E+03  0.61711304336E+01 -0.26087290183E+03  0.34943679402E+03  0.17317675762E+03 0.  0.
         24    2    3    3    0    0  0.12608390748E+03 -0.58216667512E+02 -0.19746298792E+03  0.25443949269E+03  0.80383404617E+02 0.  0.
         -6    2    1    2    0  501 -0.15499396722E+03 -0.61711304336E+01 -0.58883379997E+03  0.63245501513E+03  0.17091778567E+03 0.  0.
        -24    2    5    5    0    0 -0.45459695821E+02  0.49793217963E+02 -0.29343928707E+03  0.31243974495E+03  0.83462749340E+02 0.  0.
          5    1    3    3  502    0  0.28910059745E+02  0.64387797946E+02 -0.63409913904E+02  0.94997301331E+02  0.47000000000E+01 0. -1.
        -13    1    4    4    0    0  0.12313003309E+02 -0.22471974939E+02 -0.23022569706E+01  0.25727419134E+02  0.00000000000E+00 0.  1.
         14    1    4    4    0    0  0.11377090417E+03 -0.35744692573E+02 -0.19516073095E+03  0.22871207355E+03  0.00000000000E+00 0. -1.
         -5    1    5    5    0  501 -0.10953427140E+03 -0.55964348397E+02 -0.29539451289E+03  0.32001527018E+03  0.47000000000E+01 0.  1.
         13    1    6    6    0    0 -0.32426589758E+02  0.28846326362E+01 -0.29132678811E+02  0.43686586082E+02  0.00000000000E+00 0. -1.
        -14    1    6    6    0    0 -0.13033106063E+02  0.46908585327E+02 -0.26430660826E+03  0.26875315887E+03  0.00000000000E+00 0.  1.
</event>
<event>
12    1  0.2625820E-002  0.1740111E+03  0.7818608E-02  0.1173728E+00
          4   -1    0    0  502    0  0.00000000000E+00  0.00000000000E+00  0.94368871184E+02  0.94368871184E+02  0.00000000000E+00 0. -1.
         -4   -1    0    0    0  501 -0.00000000000E+00 -0.00000000000E+00 -0.53015926109E+03  0.53015926109E+03  0.00000000000E+00 0.  1.
          6    2    1    2  502    0 -0.29152646906E+02 -0.15549950485E+02 -0.20652599139E+02  0.17385205007E+03  0.16942941799E+03 0.  0.
         24    2    3    3    0    0 -0.37209633620E+02  0.37849100856E+02  0.28406150739E+02  0.10074100673E+03  0.80775799392E+02 0.  0.
         -6    2    1    2    0  501  0.29152646906E+02  0.15549950485E+02 -0.41513779077E+03  0.45067608220E+03  0.17227265588E+03 0.  0.
        -24    2    5    5    0    0  0.68964825229E+02 -0.55212632253E+01 -0.37850538694E+03  0.39242637319E+03  0.77107061704E+02 0.  0.
          5    1    3    3  502    0  0.80569867137E+01 -0.53399051341E+02 -0.49058749878E+02  0.73111043342E+02  0.47000000000E+01 0. -1.
        -13    1    4    4    0    0 -0.22696530995E+02 -0.14065952922E+02 -0.15801072696E+02  0.31026721534E+02  0.00000000000E+00 0.  1.
         14    1    4    4    0    0 -0.14513102625E+02  0.51915053778E+02  0.44207223435E+02  0.69714285196E+02  0.00000000000E+00 0. -1.
         -5    1    5    5    0  501 -0.39812178323E+02  0.21071213710E+02 -0.36632403828E+02  0.58249709015E+02  0.47000000000E+01 0.  1.
         11    1    6    6    0    0  0.65536471159E+02  0.20903657411E+02 -0.19044816440E+03  0.20249072884E+03  0.00000000000E+00 0. -1.
        -12    1    6    6    0    0  0.34283540700E+01 -0.26424920636E+02 -0.18805722254E+03  0.18993564434E+03  0.00000000000E+00 0.  1.
</event>
<event>
12    1  0.2625820E-002  0.1736603E+03  0.7818608E-02  0.1174084E+00
          1   -1    0    0  502    0  0.00000000000E+00  0.00000000000E+00  0.36738935985E+02  0.36738935985E+02  0.00000000000E+00 0. -1.
         -1   -1    0    0    0  501 -0.00000000000E+00 -0.00000000000E+00 -0.82649075954E+03  0.82649075954E+03  0.00000000000E+00 0.  1.
          6    2    1    2  502    0  0.68604016627E+01  0.31273779257E+02 -0.35549580461E+03  0.39486152888E+03  0.16885865544E+03 0.  0.
         24    2    3    3    0    0  0.67320958024E+02  0.21799986604E+02 -0.18359182963E+03  0.21232852300E+03  0.79812849638E+02 0.  0.
         -6    2    1    2    0  501 -0.68604016627E+01 -0.31273779257E+02 -0.43425601895E+03  0.46836816665E+03  0.17252633177E+03 0.  0.
        -24    2    5    5    0    0 -0.74112513503E+01 -0.82064307260E+02 -0.21722814278E+03  0.24542608851E+03  0.79097545673E+02 0.  0.
          5    1    3    3  502    0 -0.60460556362E+02  0.94737926527E+01 -0.17190397498E+03  0.18253300588E+03  0.47000000000E+01 0. -1.
        -13    1    4    4    0    0  0.16150849509E+02 -0.26571529066E+02 -0.89904400428E+02  0.95129897052E+02  0.00000000000E+00 0.  1.
         14    1    4    4    0    0  0.51170108515E+02  0.48371515670E+02 -0.93687429200E+02  0.11719862595E+03  0.00000000000E+00 0. -1.
         -5    1    5    5    0  501  0.55084968757E+00  0.50790528003E+02 -0.21702787617E+03  0.22294207814E+03  0.47000000000E+01 0.  1.
         11    1    6    6    0    0 -0.35107271925E+02 -0.17881614557E+02 -0.46533547423E+02  0.60972483277E+02  0.00000000000E+00 0. -1.
        -12    1    6    6    0    0  0.27696020574E+02 -0.64182692702E+02 -0.17069459536E+03  0.18445360523E+03  0.00000000000E+00 0.  1.
</event>
<event>
12    1  0.2625820E-002  0.2918221E+03  0.7818608E-02  0.1089402E+00
         -2   -1    0    0    0  501 -0.00000000000E+00  0.00000000000E+00  0.13058009024E+03  0.13058009024E+03  0.00000000000E+00 0.  1.
          2   -1    0    0  502    0  0.00000000000E+00 -0.00000000000E+00 -0.96967470962E+03  0.96967470962E+03  0.00000000000E+00 0. -1.
          6    2    1    2  502    0  0.20342604038E+03 -0.11681483857E+03 -0.10471298232E+03  0.31000123578E+03  0.17351684963E+03 0.  0.
         24    2    3    3    0    0  0.14694648930E+03 -0.74380626445E+01 -0.43688395438E+02  0.17252647808E+03  0.78791587432E+02 0.  0.
         -6    2    1    2    0  501 -0.20342604038E+03  0.11681483857E+03 -0.73438163706E+03  0.79025356408E+03  0.17365611499E+03 0.  0.
        -24    2    5    5    0    0 -0.51006902715E+02  0.10531728873E+03 -0.37172481835E+03  0.39667276509E+03  0.74003422570E+02 0.  0.
          5    1    3    3  502    0  0.56479551087E+02 -0.10937677592E+03 -0.61024586877E+02  0.13747475770E+03  0.47000000000E+01 0. -1.
        -11    1    4    4    0    0  0.71776046175E+02 -0.14520720880E+02 -0.60716227512E+02  0.95126822835E+02  0.00000000000E+00 0.  1.
         12    1    4    4    0    0  0.75170443123E+02  0.70826582357E+01  0.17027832074E+02  0.77399655245E+02  0.00000000000E+00 0. -1.
         -5    1    5    5    0  501 -0.15241913767E+03  0.11497549832E+02 -0.36265681871E+03  0.39358079899E+03  0.47000000000E+01 0.  1.
         11    1    6    6    0    0 -0.51536207264E+02  0.59703056113E+02 -0.31027157702E+03  0.32013885593E+03  0.00000000000E+00 0. -1.
        -12    1    6    6    0    0  0.52930454856E+00  0.45614232621E+02 -0.61453241328E+02  0.76533909156E+02  0.00000000000E+00 0.  1.
</event>
<event>
12    1  0.2625820E-002  0.3070678E+03  0.7818608E-02  0.1081760E+00
          2   -1    0    0  502    0  0.00000000000E+00  0.00000000000E+00  0.16850833557E+04  0.16850833557E+04  0.00000000000E+00 0. -1.
         -2   -1    0    0    0  501 -0.00000000000E+00 -0.00000000000E+00 -0.76366345170E+02  0.76366345170E+02  0.00000000000E+00 0.  1.
          6    2    1    2  502    0  0.21298664430E+03 -0.13173455104E+03  0.12585607082E+04  0.12953419162E+04  0.17668707142E+03 0.  0.
         24    2    3    3    0    0  0.30440527904E+02 -0.13860906496E+02  0.42278647502E+03  0.43176914021E+03  0.80978000154E+02 0.  0.
         -6    2    1    2    0  501 -0.21298664430E+03  0.13173455104E+03  0.35015630239E+03  0.46610778467E+03  0.17868891471E+03 0.  0.
        -24    2    5    5    0    0 -0.21940039978E+03  0.10095917988E+03  0.34348149799E+03  0.43362851832E+03  0.10828139735E+03 0.  0.
          5    1    3    3  502    0  0.18254611640E+03 -0.11787364454E+03  0.83577423317E+03  0.86357277604E+03  0.47000000000E+01 0. -1.
        -11    1    4    4    0    0 -0.23238231848E+01 -0.27359416965E+02  0.34724797685E+03  0.34833187519E+03  0.00000000000E+00 0.  1.
         12    1    4    4    0    0  0.32764351089E+02  0.13498510469E+02  0.75538498170E+02  0.83437265014E+02  0.00000000000E+00 0. -1.
         -5    1    5    5    0  501  0.64137554778E+01  0.30775371154E+02  0.66748044006E+01  0.32479266352E+02  0.47000000000E+01 0.  1.
         13    1    6    6    0    0 -0.45991391046E+02  0.65935059741E+02  0.15818651357E+03  0.17744185872E+03  0.00000000000E+00 0. -1.
        -14    1    6    6    0    0 -0.17340900873E+03  0.35024120140E+02  0.18529498442E+03  0.25618665959E+03  0.00000000000E+00 0.  1.
</event>
<event>
12    1  0.2625820E-002  0.1748397E+03  0.7818608E-02  0.1172893E+00
          3   -1    0    0  502    0  0.00000000000E+00  0.00000000000E+00  0.15496286640E+04  0.15496286640E+04  0.00000000000E+00 0.  1.
         -3   -1    0    0    0  501 -0.00000000000E+00 -0.00000000000E+00 -0.20334588135E+02  0.20334588135E+02  0.00000000000E+00 0. -1.
          6    2    1    2  502    0 -0.78822134630E+01  0.33301774835E+02  0.89691789124E+03  0.91364688713E+03  0.17063936603E+03 0.  0.
         24    2    3    3    0    0 -0.50706934641E+01  0.80584029970E+02  0.76109287698E+03  0.76972315457E+03  0.81803847542E+02 0.  0.
         -6    2    1    2    0  501  0.78822134630E+01 -0.33301774835E+02  0.63237618464E+03  0.65631636502E+03  0.17227998896E+03 0.  0.
        -24    2    5    5    0    0  0.50288652946E+02 -0.57752008497E+02  0.49592091343E+03  0.51127067885E+03  0.97958723825E+02 0.  0.
          5    1    3    3  502    0 -0.28115199989E+01 -0.47282255135E+02  0.13582501426E+03  0.14392373256E+03  0.47000000000E+01 0. -1.
        -11    1    4    4    0    0 -0.33659567594E+02  0.74132126604E+02  0.63880363172E+03  0.64397097651E+03  0.00000000000E+00 0.  1.
         12    1    4    4    0    0  0.28588874130E+02  0.64519033656E+01  0.12228924525E+03  0.12575217806E+03  0.00000000000E+00 0. -1.
         -5    1    5    5    0  501 -0.42406439483E+02  0.24450233662E+02  0.13645527122E+03  0.14504568618E+03  0.47000000000E+01 0.  1.
         13    1    6    6    0    0 -0.28507958037E+02 -0.62384241416E+01  0.91678545101E+02  0.96211107670E+02  0.00000000000E+00 0. -1.
        -14    1    6    6    0    0  0.78796610983E+02 -0.51513584356E+02  0.40424236833E+03  0.41505957118E+03  0.00000000000E+00 0.  1.
</event>
<event>
12    1  0.2625820E-002  0.1735723E+03  0.7818608E-02  0.1174173E+00
          2   -1    0    0  502    0  0.00000000000E+00  0.00000000000E+00  0.41282260410E+03  0.41282260410E+03  0.00000000000E+00 0.  1.
         -2   -1    0    0    0  501 -0.00000000000E+00 -0.00000000000E+00 -0.98862549914E+02  0.98862549914E+02  0.00000000000E+00 0. -1.
          6    2    1    2  502    0 -0.31094511355E+02 -0.20714169261E+02  0.27840504379E+02  0.17835122300E+03  0.17215725259E+03 0.  0.
         24    2    3    3    0    0 -0.47596442176E+02  0.44448209709E+02  0.33992476082E+02  0.11068745050E+03  0.82795885242E+02 0.  0.
         -6    2    1    2    0  501  0.31094511355E+02  0.20714169261E+02  0.28611954981E+03  0.33333393101E+03  0.16688669011E+03 0.  0.
        -24    2    5    5    0    0  0.70942791122E+02 -0.10294218207E+02  0.12860031332E+03  0.16785340237E+03  0.80609388800E+02 0.  0.
          5    1    3    3  502    0  0.16501930821E+02 -0.65162378970E+02 -0.61519717029E+01  0.67663772506E+02  0.47000000000E+01 0. -1.
        -13    1    4    4    0    0  0.10944214211E+02 -0.16608769916E+02  0.12216351783E+02  0.23342371639E+02  0.00000000000E+00 0.  1.
         14    1    4    4    0    0 -0.58540656387E+02  0.61056979626E+02  0.21776124298E+02  0.87345078858E+02  0.00000000000E+00 0. -1.
         -5    1    5    5    0  501 -0.39848279766E+02  0.31008387468E+02  0.15751923649E+03  0.16548052864E+03  0.47000000000E+01 0.  1.
         11    1    6    6    0    0  0.21696755236E+02  0.41933435186E+01 -0.67415203958E+01  0.23103709981E+02  0.00000000000E+00 0. -1.
        -12    1    6    6    0    0  0.49246035886E+02 -0.14487561726E+02  0.13534183371E+03  0.14474969239E+03  0.00000000000E+00 0.  1.
</event>
<event>
12    1  0.2625820E-002  0.1746841E+03  0.7818608E-02  0.1173049E+00
         -2   -1    0    0    0  501 -0.00000000000E+00  0.00000000000E+00  0.68790247052E+02  0.68790247052E+02  0.00000000000E+00 0. -1.
          2   -1    0    0  502    0  0.00000000000E+00 -0.00000000000E+00 -0.44367037243E+03  0.44367037243E+03  0.00000000000E+00 0.  1.
          6    2    1    2  502    0  0.31710298747E+02 -0.34091117469E+01 -0.19161422111E+03  0.25986491796E+03  0.17261691912E+03 0.  0.
         24    2    3    3    0    0 -0.37555176910E+02  0.32197724072E+02 -0.73487366360E+02  0.11829657161E+03  0.78400262067E+02 0.  0.
         -6    2    1    2    0  501 -0.31710298747E+02  0.34091117469E+01 -0.18326590427E+03  0.25259570152E+03  0.17088309358E+03 0.  0.
        -24    2    5    5    0    0 -0.44711962373E+01  0.40864263806E+02 -0.18496894309E+03  0.20601408002E+03  0.80860445249E+02 0.  0.
          5    1    3    3  502    0  0.69265475657E+02 -0.35606835819E+02 -0.11812685475E+03  0.14156834635E+03  0.47000000000E+01 0. -1.
        -13    1    4    4    0    0 -0.16488207343E+02  0.29695587579E+02 -0.86828343261E+02  0.93235455147E+02  0.00000000000E+00 0.  1.
         14    1    4    4    0    0 -0.21066969567E+02  0.25021364927E+01  0.13340976901E+02  0.25061116464E+02  0.00000000000E+00 0. -1.
         -5    1    5    5    0  501 -0.27239102509E+02 -0.37455152059E+02  0.17030388150E+01  0.46581621510E+02  0.47000000000E+01 0.  1.
         11    1    6    6    0    0  0.14615146350E+02  0.26011857369E+02 -0.13328573312E+02  0.32678281674E+02  0.00000000000E+00 0. -1.
        -12    1    6    6    0    0 -0.19086342587E+02  0.14852406437E+02 -0.17164036977E+03  0.17333579834E+03  0.00000000000E+00 0.  1.
</event>
<event>
12    1  0.2625820E-002  0.1761650E+03  0.7818608E-02  0.1171567E+00
          1   -1    0    0  502    0  0.00000000000E+00  0.00000000000E+00  0.83001544988E+03  0.83001544988E+03  0.00000000000E+00 0. -1.
         -1   -1    0    0    0  501 -0.00000000000E+00 -0.00000000000E+00 -0.37495422836E+02  0.37495422836E+02  0.00000000000E+00 0.  1.
          6    2    1    2  502    0  0.77852418500E+01 -0.40835782553E+02  0.37577628929E+03  0.41547488913E+03  0.17228869022E+03 0.  0.
         24    2    3    3    0    0  0.21574989379E+02  0.37327944419E+02  0.14202274505E+03  0.16856896616E+03  0.79913582329E+02 0.  0.
         -6    2    1    2    0  501 -0.77852418500E+01  0.40835782553E+02  0.41674373776E+03  0.45203598359E+03  0.17009707926E+03 0.  0.
        -24    2    5    5    0    0 -0.14203472701E+02 -0.25319791047E+02  0.34110959189E+03  0.35123733466E+03  0.78543498270E+02 0.  0.
          5    1    3    3  502    0 -0.13789747529E+02 -0.78163726973E+02  0.23375354425E+03  0.24690592297E+03  0.47000000000E+01 0. -1.
        -11    1    4    4    0    0 -0.19899083085E+02  0.35909293752E+02  0.10579754035E+03  0.11348378928E+03  0.00000000000E+00 0.  1.
         12    1    4    4    0    0  0.41474072464E+02  0.14186506672E+01  0.36225204692E+02  0.55085176876E+02  0.00000000000E+00 0. -1.
         -5    1    5    5    0  501  0.64182308510E+01  0.66155573600E+02  0.75634145861E+02  0.10079864893E+03  0.47000000000E+01 0.  1.
         13    1    6    6    0    0 -0.44328295701E+02  0.23890769012E-01  0.18615675939E+03  0.19136179723E+03  0.00000000000E+00 0. -1.
        -14    1    6    6    0    0  0.30124823000E+02 -0.25343681816E+02  0.15495283250E+03  0.15987553743E+03  0.00000000000E+00 0.  1.
</event>
<event>
12    1  0.2625820E-002  0.2472559E+03  0.7818608E-02  0.1115051E+00
         -1   -1    0    0    0  501 -0.00000000000E+00  0.00000000000E+00  0.34251027491E+03  0.34251027491E+03  0.00000000000E+00 0.  1.
          1   -1    0    0  502    0  0.00000000000E+00 -0.00000000000E+00 -0.21977142704E+03  0.21977142704E+03  0.00000000000E+00 0. -1.
          6    2    1    2  502    0 -0.13145183681E+03  0.11949413027E+03  0.18308738420E+03  0.30717013136E+03  0.17109665915E+03 0.  0.
         24    2    3    3    0    0 -0.79115736411E+02  0.64448002231E+02  0.27834868245E+02  0.13426964747E+03  0.82708606581E+02 0.  0.
         -6    2    1    2    0  501  0.13145183681E+03 -0.11949413027E+03 -0.60348536324E+02  0.25511157060E+03  0.17286276362E+03 0.  0.
        -24    2    5    5    0    0  0.10512184918E+03 -0.14282701473E+03 -0.84630341144E+02  0.21210706164E+03  0.79855817829E+02 0.  0.
          5    1    3    3  502    0 -0.52336100404E+02  0.55046128038E+02  0.15525251595E+03  0.17290048388E+03  0.47000000000E+01 0. -1.
        -13    1    4    4    0    0 -0.28052861777E+02 -0.43121192477E+01  0.38640194555E+02  0.47943947079E+02  0.00000000000E+00 0.  1.
         14    1    4    4    0    0 -0.51062874634E+02  0.68760121479E+02 -0.10805326310E+02  0.86325700393E+02  0.00000000000E+00 0. -1.
         -5    1    5    5    0  501  0.26329987631E+02  0.23332884461E+02  0.24281804820E+02  0.43004508964E+02  0.47000000000E+01 0.  1.
         11    1    6    6    0    0  0.98559451882E+02 -0.91215875477E+02 -0.87027366981E+02  0.16002519832E+03  0.00000000000E+00 0. -1.
        -12    1    6    6    0    0  0.65623973010E+01 -0.51611139253E+02  0.23970258375E+01  0.52081863314E+02  0.00000000000E+00 0.  1.
</event>
<event>
12    1  0.2625820E-002  0.1998141E+03  0.7818608E-02  0.1149896E+00
          1   -1    0    0  502    0  0.00000000000E+00  0.00000000000E+00  0.17789460813E+04  0.17789460813E+04  0.00000000000E+00 0. -1.
         -1   -1    0    0    0  501 -0.00000000000E+00 -0.00000000000E+00 -0.33612191450E+02  0.33612191450E+02  0.00000000000E+00 0.  1.
          6    2    1    2  502    0  0.61120908209E+02  0.82490851904E+02  0.13926844991E+04  0.14068298195E+04  0.17046853357E+03 0.  0.
         24    2    3    3    0    0 -0.29201446561E+01  0.60760198518E+02  0.11617034086E+04  0.11661062604E+04  0.80923865294E+02 0.  0.
         -6    2    1    2    0  501 -0.61120908209E+02 -0.82490851904E+02  0.35264939076E+03  0.40572845326E+03  0.17237598125E+03 0.  0.
        -24    2    5    5    0    0 -0.31922276476E+02 -0.32632305045E+02  0.66734538112E+02  0.11399599405E+03  0.80359747478E+02 0.  0.
          5    1    3    3  502    0  0.64041052865E+02  0.21730653387E+02  0.23098109053E+03  0.24072355915E+03  0.47000000000E+01 0. -1.
        -13    1    4    4    0    0  0.20963178478E+02  0.33683042770E+01  0.85063250044E+02  0.87673010862E+02  0.00000000000E+00 0.  1.
         14    1    4    4    0    0 -0.23883323134E+02  0.57391894241E+02  0.10766401585E+04  0.10784332495E+04  0.00000000000E+00 0. -1.
         -5    1    5    5    0  501 -0.29198631732E+02 -0.49858546859E+02  0.28591485265E+03  0.29173245921E+03  0.47000000000E+01 0.  1.
         11    1    6    6    0    0  0.22264328580E+02 -0.30783117719E+02  0.23725641765E+02  0.44790699267E+02  0.00000000000E+00 0. -1.
        -12    1    6    6    0    0 -0.54186605056E+02 -0.18491873262E+01  0.43008896346E+02  0.69205294784E+02  0.00000000000E+00 0.  1.
</event>
<event>
12    1  0.2625820E-002  0.1737111E+03  0.7818608E-02  0.1174032E+00
          2   -1    0    0  502    0  0.00000000000E+00  0.00000000000E+00  0.65419519559E+03  0.65419519559E+03  0.00000000000E+00 0. -1.
         -2   -1    0    0    0  501 -0.00000000000E+00 -0.00000000000E+00 -0.47274903380E+02  0.47274903380E+02  0.00000000000E+00 0.  1.
          6    2    1    2  502    0  0.30459551302E+02 -0.54066098924E+01  0.25068897717E+03  0.30561628661E+03  0.17204457467E+03 0.  0.
         24    2    3    3    0    0  0.84777430956E+02  0.58029449593E+01  0.14381788450E+03  0.18511895628E+03  0.79778174339E+02 0.  0.
         -6    2    1    2    0  501 -0.30459551302E+02  0.54066098924E+01  0.35623131504E+03  0.39585381236E+03  0.16983072527E+03 0.  0.
        -24    2    5    5    0    0  0.35493843430E+02 -0.25009659310E+02  0.26107741742E+03  0.27605667574E+03  0.78489326375E+02 0.  0.
          5    1    3    3  502    0 -0.54317879655E+02 -0.11209554852E+02  0.10687109266E+03  0.12049733033E+03  0.47000000000E+01 0. -1.
        -13    1    4    4    0    0  0.61654950886E+00 -0.21036270816E+02  0.68434424476E+01  0.22130014181E+02  0.00000000000E+00 0.  1.
         14    1    4    4    0    0  0.84160881448E+02  0.26839215775E+02  0.13697444206E+03  0.16298894210E+03  0.00000000000E+00 0. -1.
         -5    1    5    5    0  501 -0.65953394732E+02  0.30416269202E+02  0.95153897625E+02  0.11979713662E+03  0.47000000000E+01 0.  1.
         13    1    6    6    0    0  0.91409901630E+01  0.22522475176E+02  0.15471985174E+03  0.15661753450E+03  0.00000000000E+00 0. -1.
        -14    1    6    6    0    0  0.26352853267E+02 -0.47532134486E+02  0.10635756568E+03  0.11943914124E+03  0.00000000000E+00 0.  1.
</event>
<event>
12    1  0.2625820E-002  0.1969164E+03  0.7818608E-02  0.1152367E+00
         -1   -1    0    0    0  501 -0.00000000000E+00  0.00000000000E+00  0.77154514814E+02  0.77154514814E+02  0.00000000000E+00 0. -1.
          1   -1    0    0  502    0  0.00000000000E+00 -0.00000000000E+00 -0.50283520804E+03  0.50283520804E+03  0.00000000000E+00 0.  1.
          6    2    1    2  502    0 -0.69256433467E+02 -0.68964376770E+02 -0.20589181673E+03  0.28464741328E+03  0.17052909093E+03 0.  0.
         24    2    3    3    0    0  0.26372164464E+01  0.19254554228E+02 -0.90794468042E+02  0.12271913793E+03  0.80241252597E+02 0.  0.
         -6    2    1    2    0  501  0.69256433467E+02  0.68964376770E+02 -0.21978887650E+03  0.29534230958E+03  0.17136916511E+03 0.  0.
        -24    2    5    5    0    0 -0.22520750828E+02  0.38135055574E+02 -0.63534561659E+02  0.11146463418E+03  0.80163941180E+02 0.  0.
          5    1    3    3  502    0 -0.71893649913E+02 -0.88218930998E+02 -0.11509734868E+03  0.16192827535E+03  0.47000000000E+01 0. -1.
        -13    1    4    4    0    0 -0.15408231812E+02 -0.28001783063E+02 -0.36316920048E+02  0.48378013023E+02  0.00000000000E+00 0.  1.
         14    1    4    4    0    0  0.18045448259E+02  0.47256337292E+02 -0.54477547994E+02  0.74341124908E+02  0.00000000000E+00 0. -1.
         -5    1    5    5    0  501  0.91777184295E+02  0.30829321196E+02 -0.15625431485E+03  0.18387767540E+03  0.47000000000E+01 0.  1.
         11    1    6    6    0    0  0.27770873398E+02  0.21541469136E+02 -0.10897241632E+02  0.36796822920E+02  0.00000000000E+00 0. -1.
        -12    1    6    6    0    0 -0.50291624227E+02  0.16593586438E+02 -0.52637320027E+02  0.74667811256E+02  0.00000000000E+00 0.  1.
</event>
<event>
12    1  0.2625820E-002  0.1765470E+03  0.7818608E-02  0.1171187E+00
         -1   -1    0    0    0  501 -0.00000000000E+00  0.00000000000E+00  0.21594444270E+02  0.21594444270E+02  0.00000000000E+00 0. -1.
          1   -1    0    0  502    0  0.00000000000E+00 -0.00000000000E+00 -0.17781123441E+04  0.17781123441E+04  0.00000000000E+00 0.  1.
          6    2    1    2  502    0  0.14442513205E+02  0.34262148721E+02 -0.48740729909E+03  0.51836089039E+03  0.17248088723E+03 0.  0.
         24    2    3    3    0    0  0.28483622198E+02 -0.36162428709E+02 -0.36514967555E+03  0.37649549517E+03  0.79344403361E+02 0.  0.
         -6    2    1    2    0  501 -0.14442513205E+02 -0.34262148721E+02 -0.12691106007E+04  0.12813458980E+04  0.17269369512E+03 0.  0.
        -24    2    5    5    0    0  0.50366797796E+02 -0.92850081777E+01 -0.95108049369E+03  0.95578585232E+03  0.79683525966E+02 0.  0.
          5    1    3    3  502    0 -0.14041108993E+02  0.70424577430E+02 -0.12225762354E+03  0.14186539522E+03  0.47000000000E+01 0. -1.
        -13    1    4    4    0    0 -0.23350577595E+02 -0.16966490377E+02 -0.62543913875E+02  0.68882889258E+02  0.00000000000E+00 0.  1.
         14    1    4    4    0    0  0.51834199792E+02 -0.19195938332E+02 -0.30260576167E+03  0.30761260591E+03  0.00000000000E+00 0. -1.
         -5    1    5    5    0  501 -0.64809311001E+02 -0.24977140544E+02 -0.31803010702E+03  0.32556004563E+03  0.47000000000E+01 0.  1.
         13    1    6    6    0    0 -0.18619536365E+02 -0.50887692808E+01 -0.96278602869E+02  0.98194460524E+02  0.00000000000E+00 0. -1.
        -14    1    6    6    0    0  0.68986334162E+02 -0.41962388969E+01 -0.85480189083E+03  0.85759139179E+03  0.00000000000E+00 0.  1.
</event>
<event>
12    1  0.2625820E-002  0.1827972E+03  0.7818608E-02  0.1165123E+00
          2   -1    0    0  502    0  0.00000000000E+00  0.00000000000E+00  0.20922326592E+04  0.20922326592E+04  0.00000000000E+00 0.  1.
         -2   -1    0    0    0  501 -0.00000000000E+00 -0.00000000000E+00 -0.15985782758E+02  0.15985782758E+02  0.00000000000E+00 0. -1.
          6    2    1    2  502    0 -0.37626711285E+02  0.46890114919E+02  0.10654487342E+04  0.10808818683E+04  0.17178520257E+03 0.  0.
         24    2    3    3    0    0 -0.59258788983E+02  0.81231077536E+02  0.61160254299E+03  0.62520028678E+03  0.81900158533E+02 0.  0.
         -6    2    1    2    0  501  0.37626711285E+02 -0.46890114919E+02  0.10107981422E+04  0.10273365736E+04  0.17347362581E+03 0.  0.
        -24    2    5    5    0    0 -0.30345802268E+02 -0.55068967123E+02  0.78019981844E+03  0.78674390298E+03  0.79377284751E+02 0.  0.
          5    1    3    3  502    0  0.21632077698E+02 -0.34340962617E+02  0.45384619120E+03  0.45568158156E+03  0.47000000000E+01 0. -1.
        -11    1    4    4    0    0 -0.26727939911E+02  0.88257621703E+02  0.51046572710E+03  0.51872829989E+03  0.00000000000E+00 0.  1.
         12    1    4    4    0    0 -0.32530849072E+02 -0.70265441672E+01  0.10113681589E+03  0.10647198689E+03  0.00000000000E+00 0. -1.
         -5    1    5    5    0  501  0.67972513553E+02  0.81788522035E+01  0.23059832381E+03  0.24059267064E+03  0.47000000000E+01 0.  1.
         11    1    6    6    0    0 -0.49877265944E+01 -0.85463019691E+01  0.79897547568E+01  0.12718210369E+02  0.00000000000E+00 0. -1.
        -12    1    6    6    0    0 -0.25358075673E+02 -0.46522665154E+02  0.77221006368E+03  0.77402569261E+03  0.00000000000E+00 0.  1.
</event>
<event>
12    1  0.2625820E-002  0.2456934E+03  0.7818608E-02  0.1116057E+00
         -1   -1    0    0    0  501 -0.00000000000E+00  0.00000000000E+00  0.38178933452E+02  0.38178933452E+02  0.00000000000E+00 0. -1.
          1   -1    0    0  502    0  0.00000000000E+00 -0.00000000000E+00 -0.21030013128E+04  0.21030013128E+04  0.00000000000E+00 0.  1.
          6    2    1    2  502    0 -0.13669507165E+03  0.10838937534E+03 -0.15621952916E+04  0.15812255927E+04  0.17142475439E+03 0.  0.
         24    2    3    3    0    0 -0.11635574078E+03  0.14365238684E+03 -0.13684526438E+04  0.13831966252E+04  0.79972489289E+02 0.  0.
         -6    2    1    2    0  501  0.13669507165E+03 -0.10838937534E+03 -0.50262708767E+03  0.55995465353E+03  0.17458930510E+03 0.  0.
        -24    2    5    5    0    0  0.60467684226E+02 -0.12127233287E+03 -0.41006998229E+03  0.43926706948E+03  0.80217506817E+02 0.  0.
          5    1    3    3  502    0 -0.20339330870E+02 -0.35263011498E+02 -0.19374264783E+03  0.19802896745E+03  0.47000000000E+01 0. -1.
        -11    1    4    4    0    0 -0.50080344652E+02  0.28337050493E+02 -0.64957022615E+03  0.65211387660E+03  0.00000000000E+00 0.  1.
         12    1    4    4    0    0 -0.66275396129E+02  0.11531533634E+03 -0.71888241767E+03  0.73108274864E+03  0.00000000000E+00 0. -1.
         -5    1    5    5    0  501  0.76227387425E+02  0.12882957532E+02 -0.92557105376E+02  0.12068758405E+03  0.47000000000E+01 0.  1.
         11    1    6    6    0    0  0.62741271335E+01 -0.65494042723E+02 -0.10082563248E+03  0.12039369780E+03  0.00000000000E+00 0. -1.
        -12    1    6    6    0    0  0.54193557093E+02 -0.55778290146E+02 -0.30924434981E+03  0.31887337168E+03  0.00000000000E+00 0.  1.
</event>
<event>
12    1  0.2625820E-002  0.1916374E+03  0.7818608E-02  0.1156993E+00
         -1   -1    0    0    0  501 -0.00000000000E+00  0.00000000000E+00  0.91633475417E+03  0.91633475417E+03  0.00000000000E+00 0. -1.
          1   -1    0    0  502    0  0.00000000000E+00 -0.00000000000E+00 -0.66576338512E+02  0.66576338512E+02  0.00000000000E+00 0.  1.
          6    2    1    2  502    0  0.76856617934E+02  0.36829615353E+02  0.73613732824E+03  0.76090301029E+03  0.17266112689E+03 0.  0.
         24    2    3    3    0    0 -0.30446923232E+02  0.18533957014E+02  0.41258931431E+03  0.41950267581E+03  0.66947965087E+02 0.  0.
         -6    2    1    2    0  501 -0.76856617934E+02 -0.36829615353E+02  0.11362108741E+03  0.22200808240E+03  0.17062964824E+03 0.  0.
        -24    2    5    5    0    0 -0.73768147493E+02 -0.41851819092E+02  0.14717017479E+03  0.18762214859E+03  0.79684979439E+02 0.  0.
          5    1    3    3  502    0  0.10730354117E+03  0.18295658339E+02  0.32354801393E+03  0.34140033448E+03  0.47000000000E+01 0. -1.
        -13    1    4    4    0    0 -0.11612658503E+02 -0.18086207741E+02  0.47966594008E+02  0.52561952863E+02  0.00000000000E+00 0.  1.
         14    1    4    4    0    0 -0.18834264729E+02  0.36620164755E+02  0.36462272030E+03  0.36694072295E+03  0.00000000000E+00 0. -1.
         -5    1    5    5    0  501 -0.30884704415E+01  0.50222037387E+01 -0.33549087375E+02  0.34385933807E+02  0.47000000000E+01 0.  1.
         11    1    6    6    0    0 -0.73759944531E+02 -0.15549752987E+02  0.59330990179E+02  0.95929612898E+02  0.00000000000E+00 0. -1.
        -12    1    6    6    0    0 -0.82029620725E-02 -0.26302066105E+02  0.87839184609E+02  0.91692535691E+02  0.00000000000E+00 0.  1.
</event>
<event>
12    1  0.2625820E-002  0.1845075E+03  0.7818608E-02  0.1163511E+00
         -2   -1    0    0    0  501 -0.00000000000E+00  0.00000000000E+00  0.16712604741E+02  0.16712604741E+02  0.00000000000E+00 0. -1.
          2   -1    0    0  502    0  0.00000000000E+00 -0.00000000000E+00 -0.21879167978E+04  0.21879167978E+04  0.00000000000E+00 0.  1.
          6    2    1    2  502    0  0.58200048609E+02  0.38026645763E+02 -0.79476163317E+03  0.81584389091E+03  0.17065148500E+03 0.  0.
         24    2    3    3    0    0  0.44719188517E+02 -0.23880746893E+02 -0.25992748659E+03  0.27724950438E+03  0.82066396901E+02 0.  0.
         -6    2    1    2    0  501 -0.58200048609E+02 -0.38026645763E+02 -0.13764425599E+04  0.13887855116E+04  0.17116601647E+03 0.  0.
        -24    2    5    5    0    0  0.18858509675E+02 -0.19763191895E+02 -0.38773075399E+03  0.39689605192E+03  0.80281450547E+02 0.  0.
          5    1    3    3  502    0  0.13480860093E+02  0.61907392655E+02 -0.53483414659E+03  0.53859438654E+03  0.47000000000E+01 0. -1.
        -11    1    4    4    0    0 -0.21126630488E+02  0.34201306014E+00 -0.28877802660E+02  0.35782383587E+02  0.00000000000E+00 0.  1.
         12    1    4    4    0    0  0.65845819004E+02 -0.24222759953E+02 -0.23104968392E+03  0.24146712079E+03  0.00000000000E+00 0. -1.
         -5    1    5    5    0  501 -0.77058558284E+02 -0.18263453868E+02 -0.98871180591E+03  0.99188945972E+03  0.47000000000E+01 0.  1.
         13    1    6    6    0    0  0.22610380343E+02 -0.92065249159E+01 -0.28650003072E+02  0.37640564240E+02  0.00000000000E+00 0. -1.
        -14    1    6    6    0    0 -0.37518706680E+01 -0.10556666979E+02 -0.35908075091E+03  0.35925548768E+03  0.00000000000E+00 0.  1.
</event>
<event>
12    1  0.2625820E-002  0.2431618E+03  0.7818608E-02  0.1117704E+00
          1   -1    0    0  502    0  0.00000000000E+00  0.00000000000E+00  0.11042565246E+04  0.11042565246E+04  0.00000000000E+00 0.  1.
         -1   -1    0    0    0  501 -0.00000000000E+00 -0.00000000000E+00 -0.54993765479E+02  0.54993765479E+02  0.00000000000E+00 0. -1.
          6    2    1    2  502    0 -0.98754931603E+02  0.14318626646E+03  0.42686341910E+03  0.49037538872E+03  0.16733439537E+03 0.  0.
         24    2    3    3    0    0 -0.18468108039E+01  0.64419706470E+01  0.11131695702E+03  0.13304942262E+03  0.72565654713E+02 0.  0.
         -6    2    1    2    0  501  0.98754931603E+02 -0.14318626646E+03  0.62239934003E+03  0.66887490137E+03  0.17250464283E+03 0.  0.
        -24    2    5    5    0    0  0.23710403843E+02 -0.17206069447E+02  0.13631796523E+03  0.16113492450E+03  0.80769079315E+02 0.  0.
          5    1    3    3  502    0 -0.96908120799E+02  0.13674429581E+03  0.31554646208E+03  0.35732596609E+03  0.47000000000E+01 0. -1.
        -13    1    4    4    0    0 -0.26655789056E+02 -0.12669878254E+02  0.17887744202E+02  0.34511277835E+02  0.00000000000E+00 0.  1.
         14    1    4    4    0    0  0.24808978252E+02  0.19111848901E+02  0.93429212820E+02  0.98538144789E+02  0.00000000000E+00 0. -1.
         -5    1    5    5    0  501  0.75044527760E+02 -0.12598019701E+03  0.48608137480E+03  0.50773997687E+03  0.47000000000E+01 0.  1.
         13    1    6    6    0    0  0.32147020014E+02 -0.23586348412E+02  0.20496367279E+02  0.44831326088E+02  0.00000000000E+00 0. -1.
        -14    1    6    6    0    0 -0.84366161707E+01  0.63802789642E+01  0.11582159795E+03  0.11630359841E+03  0.00000000000E+00 0.  1.
</event>
<event>
12    1  0.2625820E-002  0.2015448E+03  0.7818608E-02  0.1148442E+00
          2   -1    0    0  502    0  0.00000000000E+00  0.00000000000E+00  0.10922292143E+04  0.10922292143E+04  0.00000000000E+00 0. -1.
         -2   -1    0    0    0  501 -0.00000000000E+00 -0.00000000000E+00 -0.77381580184E+02  0.77381580184E+02  0.00000000000E+00 0.  1.
          6    2    1    2  502    0  0.10460112842E+03  0.64497731440E+01  0.92830504551E+03  0.94983054204E+03  0.17159488756E+03 0.  0.
         24    2    3    3    0    0  0.52505905847E+02 -0.13638515758E+02  0.23183144567E+03  0.25110669327E+03  0.79786420800E+02 0.  0.
         -6    2    1    2    0  501 -0.10460112842E+03 -0.64497731440E+01  0.86542588627E+02  0.21978025246E+03  0.17271578991E+03 0.  0.
        -24    2    5    5    0    0  0.11223583993E+02 -0.14396725404E+02  0.26997688604E+02  0.89219143491E+02  0.83053873091E+02 0.  0.
          5    1    3    3  502    0  0.52095222578E+02  0.20088288902E+02  0.69647359984E+03  0.69872384877E+03  0.47000000000E+01 0. -1.
        -13    1    4    4    0    0  0.56963460610E+01 -0.15215618910E+01 -0.59986752007E+01  0.84111600388E+01  0.00000000000E+00 0.  1.
         14    1    4    4    0    0  0.46809559786E+02 -0.12116953867E+02  0.23783012087E+03  0.24269553323E+03  0.00000000000E+00 0. -1.
         -5    1    5    5    0  501 -0.11582471242E+03  0.79469522602E+01  0.59544900024E+02  0.13056110897E+03  0.47000000000E+01 0.  1.
         13    1    6    6    0    0 -0.29758721423E+02 -0.21992289561E+02  0.29704622626E+02  0.47451100158E+02  0.00000000000E+00 0. -1.
        -14    1    6    6    0    0  0.40982305416E+02  0.75955641570E+01 -0.27069340220E+01  0.41768043333E+02  0.00000000000E+00 0.  1.
</event>
<event>
12    1  0.2625820E-002  0.2908716E+03  0.7818608E-02  0.1089895E+00
         -2   -1    0    0    0  501 -0.00000000000E+00  0.00000000000E+00  0.68157710978E+02  0.68157710978E+02  0.00000000000E+00 0.  1.
          2   -1    0    0  502    0  0.00000000000E+00 -0.00000000000E+00 -0.12717940737E+04  0.12717940737E+04  0.00000000000E+00 0. -1.
          6    2    1    2  502    0 -0.17311193374E+03  0.15727717232E+03 -0.70625940760E+03  0.76395440931E+03  0.17355154322E+03 0.  0.
         24    2    3    3    0    0 -0.17803884587E+03  0.76805523088E+02 -0.50343489279E+03  0.54564308436E+03  0.81748181770E+02 0.  0.
         -6    2    1    2    0  501  0.17311193374E+03 -0.15727717232E+03 -0.49737695511E+03  0.57599737535E+03  0.17229419723E+03 0.  0.
        -24    2    5    5    0    0  0.14259167704E+02 -0.67993664459E+02 -0.15788687961E+03  0.19066460044E+03  0.81229679550E+02 0.  0.
          5    1    3    3  502    0  0.49269121323E+01  0.80471649236E+02 -0.20282451481E+03  0.21831132495E+03  0.47000000000E+01 0. -1.
        -13    1    4    4    0    0 -0.38948139988E+00  0.23605551378E+02 -0.79288982901E+02  0.82729175996E+02  0.00000000000E+00 0.  1.
         14    1    4    4    0    0 -0.17764936447E+03  0.53199971710E+02 -0.42414590989E+03  0.46291390837E+03  0.00000000000E+00 0. -1.
         -5    1    5    5    0  501  0.15885276603E+03 -0.89283507865E+02 -0.33949007550E+03  0.38533277490E+03  0.47000000000E+01 0.  1.
         13    1    6    6    0    0  0.54327531614E+01 -0.93214980010E+00 -0.10410034752E+03  0.10424618009E+03  0.00000000000E+00 0. -1.
        -14    1    6    6    0    0  0.88264145424E+01 -0.67061514658E+02 -0.53786532091E+02  0.86418420353E+02  0.00000000000E+00 0.  1.
</event>
<event>
12    1  0.2625820E-002  0.2247920E+03  0.7818608E-02  0.1130360E+00
         -1   -1    0    0    0  501 -0.00000000000E+00  0.00000000000E+00  0.55103909563E+03  0.55103909563E+03  0.00000000000E+00 0. -1.
          1   -1    0    0  502    0  0.00000000000E+00 -0.00000000000E+00 -0.14036621008E+03  0.14036621008E+03  0.00000000000E+00 0.  1.
          6    2    1    2  502    0 -0.11843706668E+03 -0.78070510251E+02  0.29586873071E+01  0.22675553443E+03  0.17688124612E+03 0.  0.
         24    2    3    3    0    0 -0.33752874104E+02 -0.78439580958E+02  0.51897910264E+02  0.12883369708E+03  0.81318534433E+02 0.  0.
         -6    2    1    2    0  501  0.11843706668E+03  0.78070510251E+02  0.40771419824E+03  0.46464977128E+03  0.17189007874E+03 0.  0.
        -24    2    5    5    0    0  0.10394128954E+03  0.60121691826E+02  0.41561042356E+03  0.43981576209E+03  0.79293574198E+02 0.  0.
          5    1    3    3  502    0 -0.84684192580E+02  0.36907070669E+00 -0.48939222957E+02  0.97921837349E+02  0.47000000000E+01 0. -1.
        -13    1    4    4    0    0 -0.32440541936E+02 -0.13488096942E+02 -0.12566620283E+02  0.37312698450E+02  0.00000000000E+00 0.  1.
         14    1    4    4    0    0 -0.13123321672E+01 -0.64951484015E+02  0.64464530547E+02  0.91520998629E+02  0.00000000000E+00 0. -1.
         -5    1    5    5    0  501  0.14495777148E+02  0.17948818425E+02 -0.78962253262E+01  0.24834009188E+02  0.47000000000E+01 0.  1.
         11    1    6    6    0    0  0.11320180743E+03  0.39477890243E+02  0.32451329198E+03  0.34595090648E+03  0.00000000000E+00 0. -1.
        -12    1    6    6    0    0 -0.92605178954E+01  0.20643801583E+02  0.91097131587E+02  0.93864855611E+02  0.00000000000E+00 0.  1.
</event>
<event>
12    1  0.2625820E-002  0.2231949E+03  0.7818608E-02  0.1131523E+00
         -2   -1    0    0    0  501 -0.00000000000E+00  0.00000000000E+00  0.48155810244E+03  0.48155810244E+03  0.00000000000E+00 0. -1.
          2   -1    0    0  502    0  0.00000000000E+00 -0.00000000000E+00 -0.13957834396E+03  0.13957834396E+03  0.00000000000E+00 0.  1.
          6    2    1    2  502    0 -0.39894472908E+02 -0.14173608987E+03  0.10619425291E+02  0.21914990872E+03  0.16196673164E+03 0.  0.
         24    2    3    3    0    0  0.13115971624E+02 -0.14849259509E+03 -0.77956326270E+00  0.16430663628E+03  0.69094019263E+02 0.  0.
         -6    2    1    2    0  501  0.39894472908E+02  0.14173608987E+03  0.33136033319E+03  0.40198653768E+03  0.17353045245E+03 0.  0.
        -24    2    5    5    0    0  0.49669281332E+02  0.10122348460E+03  0.10863170169E+03  0.17534375409E+03  0.78938926665E+02 0.  0.
          5    1    3    3  502    0 -0.53010444532E+02  0.67565052198E+01  0.11398988554E+02  0.54843272444E+02  0.47000000000E+01 0. -1.
        -11    1    4    4    0    0  0.18765450004E+02 -0.11476495360E+03 -0.29134224535E+02  0.11988302519E+03  0.00000000000E+00 0.  1.
         12    1    4    4    0    0 -0.56494783803E+01 -0.33727641487E+02  0.28354661273E+02  0.44423611088E+02  0.00000000000E+00 0. -1.
         -5    1    5    5    0  501 -0.97748084240E+01  0.40512605267E+02  0.22272863150E+03  0.22664278359E+03  0.47000000000E+01 0.  1.
         11    1    6    6    0    0  0.19201319544E+02 -0.70509433627E+01  0.36142071894E+02  0.41528975852E+02  0.00000000000E+00 0. -1.
        -12    1    6    6    0    0  0.30467961788E+02  0.10827442797E+03  0.72489629796E+02  0.13381477824E+03  0.00000000000E+00 0.  1.
</event>
<event>
12    1  0.2625820E-002  0.2174168E+03  0.7818608E-02  0.1135824E+00
          1   -1    0    0  502    0  0.00000000000E+00  0.00000000000E+00  0.24840496222E+03  0.24840496222E+03  0.00000000000E+00 0.  1.
         -1   -1    0    0    0  501 -0.00000000000E+00 -0.00000000000E+00 -0.20003350804E+03  0.20003350804E+03  0.00000000000E+00 0. -1.
          6    2    1    2  502    0  0.12607030417E+03  0.25109844136E+02  0.73424264318E+02  0.22771414237E+03  0.17302711399E+03 0.  0.
         24    2    3    3    0    0  0.70469081730E+02 -0.53870394197E+02  0.36516578636E+02  0.12420742159E+03  0.78905717231E+02 0.  0.
         -6    2    1    2    0  501 -0.12607030417E+03 -0.25109844136E+02 -0.25052810139E+02  0.22072432790E+03  0.17767205679E+03 0.  0.
        -24    2    5    5    0    0 -0.39431864762E+02  0.50789427438E+02 -0.72886050543E+00  0.10290810179E+03  0.80343688475E+02 0.  0.
          5    1    3    3  502    0  0.55601222441E+02  0.78980238332E+02  0.36907685682E+02  0.10350672078E+03  0.47000000000E+01 0. -1.
        -13    1    4    4    0    0  0.70679872490E+02 -0.62022391602E+02  0.78018935701E+01  0.94357251860E+02  0.00000000000E+00 0.  1.
         14    1    4    4    0    0 -0.21079075915E+00  0.81519974057E+01  0.28714685066E+02  0.29850169729E+02  0.00000000000E+00 0. -1.
         -5    1    5    5    0  501 -0.86638439410E+02 -0.75899271573E+02 -0.24323949633E+02  0.11781622611E+03  0.47000000000E+01 0.  1.
         13    1    6    6    0    0 -0.63795030328E+02  0.40285844779E+02 -0.65896597081E+01  0.75737565311E+02  0.00000000000E+00 0. -1.
        -14    1    6    6    0    0  0.24363165567E+02  0.10503582658E+02  0.58607992026E+01  0.27170536476E+02  0.00000000000E+00 0.  1.
</event>
<event>
12    1  0.2625820E-002  0.2006108E+03  0.7818608E-02  0.1149225E+00
         -2   -1    0    0    0  501 -0.00000000000E+00  0.00000000000E+00  0.26479280133E+02  0.26479280133E+02  0.00000000000E+00 0.  1.
          2   -1    0    0  502    0  0.00000000000E+00 -0.00000000000E+00 -0.24495570146E+04  0.24495570146E+04  0.00000000000E+00 0. -1.
          6    2    1    2  502    0  0.38723606082E+01 -0.92460092166E+02 -0.19950840770E+04  0.20057364501E+04  0.18453825847E+03 0.  0.
         24    2    3    3    0    0 -0.65233483792E+02 -0.80151083958E+02 -0.14775439653E+04  0.14834367404E+04  0.82272655411E+02 0.  0.
         -6    2    1    2    0  501 -0.38723606082E+01  0.92460092166E+02 -0.42799365744E+03  0.47029984468E+03  0.17157945471E+03 0.  0.
        -24    2    5    5    0    0 -0.57790192234E+02  0.22331833805E+02 -0.16806003487E+03  0.19568614631E+03  0.78806569646E+02 0.  0.
          5    1    3    3  502    0  0.69105844400E+02 -0.12309008209E+02 -0.51754011175E+03  0.52229970963E+03  0.47000000000E+01 0. -1.
        -13    1    4    4    0    0 -0.10032914737E+01  0.79849426093E+01 -0.16807303222E+02  0.18634681211E+02  0.00000000000E+00 0.  1.
         14    1    4    4    0    0 -0.64230192318E+02 -0.88136026567E+02 -0.14607366621E+04  0.14648020592E+04  0.00000000000E+00 0. -1.
         -5    1    5    5    0  501  0.53917831626E+02  0.70128258361E+02 -0.25993362257E+03  0.27461369837E+03  0.47000000000E+01 0.  1.
         11    1    6    6    0    0 -0.30756129262E+02 -0.49926130915E+01 -0.15002694290E+03  0.15322842187E+03  0.00000000000E+00 0. -1.
        -12    1    6    6    0    0 -0.27034062972E+02  0.27324446896E+02 -0.18033091968E+02  0.42457724443E+02  0.00000000000E+00 0.  1.
</event>
<event>
12    1  0.2625820E-002  0.2065757E+03  0.7818608E-02  0.1144307E+00
          1   -1    0    0  502    0  0.00000000000E+00  0.00000000000E+00  0.74528570326E+02  0.74528570326E+02  0.00000000000E+00 0. -1.
         -1   -1    0    0    0  501 -0.00000000000E+00 -0.00000000000E+00 -0.61828847275E+03  0.61828847275E+03  0.00000000000E+00 0.  1.
          6    2    1    2  502    0 -0.85448202175E+02  0.72474486838E+02 -0.36677955805E+03  0.42124164941E+03  0.17425078622E+03 0.  0.
         24    2    3    3    0    0 -0.35707309691E+02  0.27754153314E+02 -0.66290561969E+02  0.11336214152E+03  0.80070166304E+02 0.  0.
         -6    2    1    2    0  501  0.85448202175E+02 -0.72474486838E+02 -0.17698034438E+03  0.27157539366E+03  0.17285024053E+03 0.  0.
        -24    2    5    5    0    0  0.30537383914E+01 -0.43039682836E+02 -0.22097273291E+02  0.93625650597E+02  0.80098273053E+02 0.  0.
          5    1    3    3  502    0 -0.49740892485E+02  0.44720333525E+02 -0.30048899608E+03  0.30787950789E+03  0.47000000000E+01 0. -1.
        -11    1    4    4    0    0 -0.49483991045E+02 -0.46092547470E+01 -0.16430063551E+02  0.52343648969E+02  0.00000000000E+00 0.  1.
         12    1    4    4    0    0  0.13776681355E+02  0.32363408061E+02 -0.49860498419E+02  0.61018492549E+02  0.00000000000E+00 0. -1.
         -5    1    5    5    0  501  0.82394463784E+02 -0.29434804002E+02 -0.15488307108E+03  0.17794974307E+03  0.47000000000E+01 0.  1.
         13    1    6    6    0    0 -0.32739297661E+02 -0.66373321735E+01  0.80170282445E+01  0.34353872148E+02  0.00000000000E+00 0. -1.
        -14    1    6    6    0    0  0.35793036052E+02 -0.36402350662E+02 -0.30114301536E+02  0.59271778449E+02  0.00000000000E+00 0.  1.
</event>
<event>
12    1  0.2625820E-002  0.1720689E+03  0.7818608E-02  0.1175707E+00
          1   -1    0    0  502    0  0.00000000000E+00  0.00000000000E+00  0.12383747395E+04  0.12383747395E+04  0.00000000000E+00 0. -1.
         -1   -1    0    0    0  501 -0.00000000000E+00 -0.00000000000E+00 -0.25925773002E+02  0.25925773002E+02  0.00000000000E+00 0.  1.
          6    2    1    2  502    0  0.28410757057E+01  0.72502637054E-01  0.78502401933E+03  0.80382529414E+03  0.17281294977E+03 0.  0.
         24    2    3    3    0    0 -0.59052656209E+02  0.24539242342E+02  0.40429867216E+03  0.41729801777E+03  0.81183918991E+02 0.  0.
         -6    2    1    2    0  501 -0.28410757057E+01 -0.72502637054E-01  0.42742494717E+03  0.46047521836E+03  0.17128124327E+03 0.  0.
        -24    2    5    5    0    0 -0.64655065333E+02  0.17811812311E+02  0.21593328745E+03  0.23936070015E+03  0.78541848815E+02 0.  0.
          5    1    3    3  502    0  0.61893731914E+02 -0.24466739704E+02  0.38072534718E+03  0.38652727638E+03  0.47000000000E+01 0. -1.
        -13    1    4    4    0    0  0.43806259512E-01  0.18734224721E+01 -0.38441596899E+01  0.42765867779E+01  0.00000000000E+00 0.  1.
         14    1    4    4    0    0 -0.59096462468E+02  0.22665819869E+02  0.40814283185E+03  0.41302143099E+03  0.00000000000E+00 0. -1.
         -5    1    5    5    0  501  0.61813989627E+02 -0.17884314948E+02  0.21149165972E+03  0.22111451821E+03  0.47000000000E+01 0.  1.
         13    1    6    6    0    0 -0.17728499835E+02  0.44662939510E+02  0.11960555328E+03  0.12889750288E+03  0.00000000000E+00 0. -1.
        -14    1    6    6    0    0 -0.46926565498E+02 -0.26851127199E+02  0.96327734170E+02  0.11046319727E+03  0.00000000000E+00 0.  1.
</event>
<event>
12    1  0.2625820E-002  0.2205053E+03  0.7818608E-02  0.1133507E+00
         -1   -1    0    0    0  501 -0.00000000000E+00  0.00000000000E+00  0.32096818759E+03  0.32096818759E+03  0.00000000000E+00 0.  1.
          1   -1    0    0  502    0  0.00000000000E+00 -0.00000000000E+00 -0.15238706599E+03  0.15238706599E+03  0.00000000000E+00 0. -1.
          6    2    1    2  502    0 -0.12765871333E+03  0.51409692914E+02  0.10249567485E+03  0.24320590386E+03  0.17234861385E+03 0.  0.
         24    2    3    3    0    0 -0.11778172820E+03  0.25952138089E+02  0.13679562281E+03  0.19911261228E+03  0.79917088168E+02 0.  0.
         -6    2    1    2    0  501  0.12765871333E+03 -0.51409692914E+02  0.66085446742E+02  0.23014934972E+03  0.17222582062E+03 0.  0.
        -24    2    5    5    0    0  0.25687467313E+02 -0.77314184153E+02  0.39354986314E+02  0.12149491955E+03  0.81085581211E+02 0.  0.
          5    1    3    3  502    0 -0.98769851318E+01  0.25457554825E+02 -0.34299947956E+02  0.44093291584E+02  0.47000000000E+01 0. -1.
        -11    1    4    4    0    0 -0.33937481321E+02 -0.21197357214E+02  0.12454740597E+02  0.41907053757E+02  0.00000000000E+00 0.  1.
         12    1    4    4    0    0 -0.83844246876E+02  0.47149495303E+02  0.12434088221E+03  0.15720555852E+03  0.00000000000E+00 0. -1.
         -5    1    5    5    0  501  0.10197124602E+03  0.25904491239E+02  0.26730460428E+02  0.10865443017E+03  0.47000000000E+01 0.  1.
         11    1    6    6    0    0 -0.14648749548E+02  0.40293195994E+01  0.25451690452E+02  0.29641353319E+02  0.00000000000E+00 0. -1.
        -12    1    6    6    0    0  0.40336216861E+02 -0.81343503752E+02  0.13903295862E+02  0.91853566230E+02  0.00000000000E+00 0.  1.
</event>
<event>
12    1  0.2625820E-002  0.1910924E+03  0.7818608E-02  0.1157480E+00
         -4   -1    0    0    0  501 -0.00000000000E+00  0.00000000000E+00  0.41588923793E+02  0.41588923793E+02  0.00000000000E+00 0.  1.
          4   -1    0    0  502    0  0.00000000000E+00 -0.00000000000E+00 -0.89051491079E+03  0.89051491079E+03  0.00000000000E+00 0. -1.
          6    2    1    2  502    0  0.31141535805E+01  0.77465477527E+02 -0.37148992807E+03  0.41821008117E+03  0.17573931594E+03 0.  0.
         24    2    3    3    0    0  0.28177262056E+02  0.81079915117E+02 -0.13000296334E+03  0.17535360564E+03  0.80499725486E+02 0.  0.
         -6    2    1    2    0  501 -0.31141535805E+01 -0.77465477527E+02 -0.47743605892E+03  0.51389375341E+03  0.17358283694E+03 0.  0.
        -24    2    5    5    0    0 -0.11274370197E+02 -0.12177884531E+03 -0.37529436523E+03  0.40215620695E+03  0.76984125810E+02 0.  0.
          5    1    3    3  502    0 -0.25063108476E+02 -0.36144375907E+01 -0.24148696474E+03  0.24285647552E+03  0.47000000000E+01 0. -1.
        -13    1    4    4    0    0 -0.73700037943E+01  0.78841748129E+02 -0.10637195047E+03  0.13260969064E+03  0.00000000000E+00 0.  1.
         14    1    4    4    0    0  0.35547265850E+02  0.22381669880E+01 -0.23631012864E+02  0.42743915004E+02  0.00000000000E+00 0. -1.
         -5    1    5    5    0  501  0.81602166167E+01  0.44313367784E+02 -0.10214169369E+03  0.11173754646E+03  0.47000000000E+01 0.  1.
         11    1    6    6    0    0 -0.33366006154E+02 -0.65403592174E+02 -0.27822889864E+03  0.28775378412E+03  0.00000000000E+00 0. -1.
        -12    1    6    6    0    0  0.22091635956E+02 -0.56375253137E+02 -0.97065466586E+02  0.11440242283E+03  0.00000000000E+00 0.  1.
</event>
<event>
12    1  0.2625820E-002  0.1765486E+03  0.7818608E-02  0.1171186E+00
         -2   -1    0    0    0  501 -0.00000000000E+00  0.00000000000E+00  0.83167693756E+02  0.83167693756E+02  0.00000000000E+00 0. -1.
          2   -1    0    0  502    0  0.00000000000E+00 -0.00000000000E+00 -0.37490113855E+03  0.37490113855E+03  0.00000000000E+00 0.  1.
          6    2    1    2  502    0  0.29994153017E+02  0.10610366652E+01 -0.14139130454E+03  0.22584561017E+03  0.17353375354E+03 0.  0.
         24    2    3    3    0    0  0.49136765515E+02  0.42330581076E+02 -0.14755177541E+03  0.17969741074E+03  0.79456486069E+02 0.  0.
         -6    2    1    2    0  501 -0.29994153017E+02 -0.10610366652E+01 -0.15034214026E+03  0.23222322214E+03  0.17442502903E+03 0.  0.
        -24    2    5    5    0    0 -0.51152453348E+02 -0.61267005869E+02 -0.95450016224E+02  0.14791623737E+03  0.79989300460E+02 0.  0.
          5    1    3    3  502    0 -0.19142612498E+02 -0.41269544411E+02  0.61604708767E+01  0.46148199430E+02  0.47000000000E+01 0. -1.
        -13    1    4    4    0    0  0.69472362127E+02  0.19870570201E+02 -0.10502487177E+03  0.12748126274E+03  0.00000000000E+00 0.  1.
         14    1    4    4    0    0 -0.20335596612E+02  0.22460010875E+02 -0.42526903645E+02  0.52216147998E+02  0.00000000000E+00 0. -1.
         -5    1    5    5    0  501  0.21158300332E+02  0.60205969204E+02 -0.54892124037E+02  0.84306984776E+02  0.47000000000E+01 0.  1.
         11    1    6    6    0    0 -0.37857243704E+02  0.80111106365E+01 -0.16569373187E+02  0.42093858487E+02  0.00000000000E+00 0. -1.
        -12    1    6    6    0    0 -0.13295209644E+02 -0.69278116506E+02 -0.78880643037E+02  0.10582237888E+03  0.00000000000E+00 0.  1.
</event>
<event>
12    1  0.2625820E-002  0.1941173E+03  0.7818608E-02  0.1154799E+00
          2   -1    0    0  502    0  0.00000000000E+00  0.00000000000E+00  0.98189380926E+03  0.98189380926E+03  0.00000000000E+00 0. -1.
         -2   -1    0    0    0  501 -0.00000000000E+00 -0.00000000000E+00 -0.38414066620E+02  0.38414066620E+02  0.00000000000E+00 0.  1.
          6    2    1    2  502    0  0.30963418406E+01 -0.84958025423E+02  0.48087511310E+03  0.51771802482E+03  0.17194076135E+03 0.  0.
         24    2    3    3    0    0 -0.12281045474E+02 -0.28742001148E+02  0.43758365849E+03  0.44496539279E+03  0.74416502841E+02 0.  0.
         -6    2    1    2    0  501 -0.30963418406E+01  0.84958025423E+02  0.46260462954E+03  0.50258985105E+03  0.17710466310E+03 0.  0.
        -24    2    5    5    0    0  0.72659598256E+01  0.98482419660E+02  0.18647340444E+03  0.22589357351E+03  0.80647348575E+02 0.  0.
          5    1    3    3  502    0  0.15377387315E+02 -0.56216024274E+02  0.43291454605E+02  0.72752632033E+02  0.47000000000E+01 0. -1.
        -11    1    4    4    0    0  0.58658261305E+01 -0.34480654152E+02  0.85632503034E+02  0.92499994610E+02  0.00000000000E+00 0.  1.
         12    1    4    4    0    0 -0.18146871605E+02  0.57386530037E+01  0.35195115546E+03  0.35246539818E+03  0.00000000000E+00 0. -1.
         -5    1    5    5    0  501 -0.10362301666E+02 -0.13524394237E+02  0.27613122510E+03  0.27669627755E+03  0.47000000000E+01 0.  1.
         13    1    6    6    0    0 -0.11522406397E+02  0.63270297224E+02  0.17167820010E+03  0.18332839591E+03  0.00000000000E+00 0. -1.
        -14    1    6    6    0    0  0.18788366223E+02  0.35212122436E+02  0.14795204347E+02  0.42565177592E+02  0.00000000000E+00 0.  1.
</event>
<event>
12    1  0.2625820E-002  0.3665999E+03  0.7818608E-02  0.1056001E+00
         -1   -1    0    0    0  501 -0.00000000000E+00  0.00000000000E+00  0.36074754422E+03  0.36074754422E+03  0.00000000000E+00 0. -1.
          1   -1    0    0  502    0  0.00000000000E+00 -0.00000000000E+00 -0.44053520295E+03  0.44053520295E+03  0.00000000000E+00 0.  1.
          6    2    1    2  502    0 -0.22831301251E+03 -0.22989044292E+03  0.11761363589E+03  0.38373986954E+03  0.16866200729E+03 0.  0.
         24    2    3    3    0    0 -0.81078901974E+02 -0.58089759028E+02  0.93101594044E+02  0.15610795507E+03  0.75852345867E+02 0.  0.
         -6    2    1    2    0  501  0.22831301251E+03  0.22989044292E+03 -0.19740129463E+03  0.41754287763E+03  0.17435118615E+03 0.  0.
        -24    2    5    5    0    0  0.77673616673E+02  0.56126292786E+02 -0.18512963719E+02  0.12615081805E+03  0.79924637010E+02 0.  0.
          5    1    3    3  502    0 -0.14723411053E+03 -0.17180068389E+03  0.24512041850E+02  0.22763191447E+03  0.47000000000E+01 0. -1.
        -11    1    4    4    0    0  0.75892219386E+01  0.10659061843E+02  0.88074460801E+01  0.15772856288E+02  0.00000000000E+00 0.  1.
         12    1    4    4    0    0 -0.88668123913E+02 -0.68748820871E+02  0.84294147964E+02  0.14033509878E+03  0.00000000000E+00 0. -1.
         -5    1    5    5    0  501  0.15063939583E+03  0.17376415014E+03 -0.17888833091E+03  0.29139205958E+03  0.47000000000E+01 0.  1.
         11    1    6    6    0    0  0.37137915285E+02  0.65629499052E+02 -0.32661034091E+02  0.82177850090E+02  0.00000000000E+00 0. -1.
        -12    1    6    6    0    0  0.40535701388E+02 -0.95032062655E+01  0.14148070372E+02  0.43972967964E+02  0.00000000000E+00 0.  1.
</event>
<event>
12    1  0.2625820E-002  0.1887836E+03  0.7818608E-02  0.1159563E+00
         -1   -1    0    0    0  501 -0.00000000000E+00  0.00000000000E+00  0.17392500948E+03  0.17392500948E+03  0.00000000000E+00 0.  1.
          1   -1    0    0  502    0  0.00000000000E+00 -0.00000000000E+00 -0.20744411247E+03  0.20744411247E+03  0.00000000000E+00 0. -1.
          6    2    1    2  502    0 -0.47828244324E+02  0.51055372532E+02  0.43675244376E+01  0.18612148401E+03  0.17241792111E+03 0.  0.
         24    2    3    3    0    0 -0.26868711104E+02  0.96081291502E+02 -0.21094704705E+02  0.13011210511E+03  0.80812320318E+02 0.  0.
         -6    2    1    2    0  501  0.47828244324E+02 -0.51055372532E+02 -0.37886627431E+02  0.19524763794E+03  0.17830325730E+03 0.  0.
        -24    2    5    5    0    0  0.56265104984E+02 -0.67231746266E+02 -0.84349260309E+02  0.14511060633E+03  0.79097538583E+02 0.  0.
          5    1    3    3  502    0 -0.20959533220E+02 -0.45025918970E+02  0.25462229143E+02  0.56009378900E+02  0.47000000000E+01 0. -1.
        -13    1    4    4    0    0  0.16668321250E+02  0.20446117436E+02  0.20526338531E+02  0.33424649961E+02  0.00000000000E+00 0.  1.
         14    1    4    4    0    0 -0.43537032355E+02  0.75635174065E+02 -0.41621043236E+02  0.96687455144E+02  0.00000000000E+00 0. -1.
         -5    1    5    5    0  501 -0.84368606593E+01  0.16176373734E+02  0.46462632878E+02  0.50137031613E+02  0.47000000000E+01 0.  1.
         11    1    6    6    0    0 -0.11399737036E+02 -0.45471165968E+02 -0.30321732214E+02  0.55829995374E+02  0.00000000000E+00 0. -1.
        -12    1    6    6    0    0  0.67664842020E+02 -0.21760580297E+02 -0.54027528095E+02  0.89280610955E+02  0.00000000000E+00 0.  1.
</event>
<event>
12    1  0.2625820E-002  0.2062281E+03  0.7818608E-02  0.1144588E+00
          1   -1    0    0  502    0  0.00000000000E+00  0.00000000000E+00  0.90417741082E+03  0.90417741082E+03  0.00000000000E+00 0. -1.
         -1   -1    0    0    0  501 -0.00000000000E+00 -0.00000000000E+00 -0.90782042691E+02  0.90782042691E+02  0.00000000000E+00 0.  1.
          6    2    1    2  502    0 -0.17465346228E+02  0.11334884351E+03  0.75188870188E+03  0.77962121093E+03  0.17122971083E+03 0.  0.
         24    2    3    3    0    0 -0.15157808812E+02  0.91930694782E+02  0.25910578613E+03  0.28634527002E+03  0.78592578823E+02 0.  0.
         -6    2    1    2    0  501  0.17465346228E+02 -0.11334884351E+03  0.61506666247E+02  0.21533824258E+03  0.17156482763E+03 0.  0.
        -24    2    5    5    0    0  0.54490342752E+02 -0.10579999695E+03  0.89015630551E+02  0.16836305158E+03  0.79116988367E+02 0.  0.
          5    1    3    3  502    0 -0.23075374158E+01  0.21418148733E+02  0.49278291575E+03  0.49327594091E+03  0.47000000000E+01 0. -1.
        -13    1    4    4    0    0 -0.11494899416E+02  0.14517739543E+02  0.29857255655E+01  0.18756652984E+02  0.00000000000E+00 0.  1.
         14    1    4    4    0    0 -0.36629093966E+01  0.77412955239E+02  0.25612006056E+03  0.26758861704E+03  0.00000000000E+00 0. -1.
         -5    1    5    5    0  501 -0.37024996524E+02 -0.75488465669E+01 -0.27508964304E+02  0.46975190997E+02  0.47000000000E+01 0.  1.
         13    1    6    6    0    0 -0.15966985571E+02 -0.58725683653E+00  0.13591660997E+02  0.20976719178E+02  0.00000000000E+00 0. -1.
        -14    1    6    6    0    0  0.70457328324E+02 -0.10521274011E+03  0.75423969554E+02  0.14738633240E+03  0.00000000000E+00 0.  1.
</event>
<event>
12    1  0.2625820E-002  0.1762684E+03  0.7818608E-02  0.1171464E+00
          1   -1    0    0  502    0  0.00000000000E+00  0.00000000000E+00  0.77574321876E+03  0.77574321876E+03  0.00000000000E+00 0. -1.
         -1   -1    0    0    0  501 -0.00000000000E+00 -0.00000000000E+00 -0.40427915146E+02  0.40427915146E+02  0.00000000000E+00 0.  1.
          6    2    1    2  502    0 -0.40287240334E+02 -0.13300017011E+02  0.40900791449E+03  0.44577889610E+03  0.17213772946E+03 0.  0.
         24    2    3    3    0    0  0.16026934937E+02 -0.60180878909E+02  0.19964608775E+03  0.22391505036E+03  0.80004928569E+02 0.  0.
         -6    2    1    2    0  501  0.40287240334E+02  0.13300017011E+02  0.32630738912E+03  0.37039223780E+03  0.17004101107E+03 0.  0.
        -24    2    5    5    0    0  0.85685190896E+02  0.11022205510E+02  0.28786728291E+03  0.31067712995E+03  0.78671885399E+02 0.  0.
          5    1    3    3  502    0 -0.56314175271E+02  0.46880861898E+02  0.20936182674E+03  0.22186384574E+03  0.47000000000E+01 0. -1.
        -13    1    4    4    0    0  0.13672916199E+02 -0.12611238446E+01 -0.19530211368E+01  0.13869151462E+02  0.00000000000E+00 0.  1.
         14    1    4    4    0    0  0.23540187385E+01 -0.58919755064E+02  0.20159910888E+03  0.21004589890E+03  0.00000000000E+00 0. -1.
         -5    1    5    5    0  501 -0.45397950561E+02  0.22778115010E+01  0.38440106214E+02  0.59715107855E+02  0.47000000000E+01 0.  1.
         13    1    6    6    0    0  0.87456460357E+02  0.33909505723E+02  0.23595144558E+03  0.25391252767E+03  0.00000000000E+00 0. -1.
        -14    1    6    6    0    0 -0.17712694618E+01 -0.22887300213E+02  0.51915837329E+02  0.56764602281E+02  0.00000000000E+00 0.  1.
</event>
<event>
12    1  0.2625820E-002  0.3070910E+03  0.7818608E-02  0.1081749E+00
         -1   -1    0    0    0  501 -0.00000000000E+00  0.00000000000E+00  0.16555315439E+03  0.16555315439E+03  0.00000000000E+00 0.  1.
          1   -1    0    0  502    0  0.00000000000E+00 -0.00000000000E+00 -0.57763971012E+03  0.57763971012E+03  0.00000000000E+00 0. -1.
          6    2    1    2  502    0  0.25113970852E+03 -0.39724164067E+02 -0.24976330740E+03  0.39580892968E+03  0.17214481311E+03 0.  0.
         24    2    3    3    0    0  0.14277706802E+03  0.29746016251E+02 -0.93981378879E+02  0.19367366045E+03  0.86063177626E+02 0.  0.
         -6    2    1    2    0  501 -0.25113970852E+03  0.39724164067E+02 -0.16232324833E+03  0.34738393483E+03  0.17227187473E+03 0.  0.
        -24    2    5    5    0    0 -0.12598198878E+03  0.52579003226E+02 -0.15457494579E+03  0.22124184078E+03  0.80115698621E+02 0.  0.
          5    1    3    3  502    0  0.10836264050E+03 -0.69470180318E+02 -0.15578192852E+03  0.20213526922E+03  0.47000000000E+01 0. -1.
        -11    1    4    4    0    0  0.67023298935E+02 -0.26573416858E+02 -0.23375707505E+02  0.75793751623E+02  0.00000000000E+00 0.  1.
         12    1    4    4    0    0  0.75753769083E+02  0.56319433109E+02 -0.70605671374E+02  0.11787990883E+03  0.00000000000E+00 0. -1.
         -5    1    5    5    0  501 -0.12515771974E+03 -0.12854839159E+02 -0.77483025388E+01  0.12614209405E+03  0.47000000000E+01 0.  1.
         11    1    6    6    0    0  0.76583237396E+01  0.11264102211E+02 -0.33780148897E+02  0.36422910106E+02  0.00000000000E+00 0. -1.
        -12    1    6    6    0    0 -0.13364031252E+03  0.41314901015E+02 -0.12079479689E+03  0.18481893067E+03  0.00000000000E+00 0.  1.
</event>
<event>
12    1  0.2625820E-002  0.1765572E+03  0.7818608E-02  0.1171177E+00
         -2   -1    0    0    0  501 -0.00000000000E+00  0.00000000000E+00  0.28400228399E+02  0.28400228399E+02  0.00000000000E+00 0. -1.
          2   -1    0    0  502    0  0.00000000000E+00 -0.00000000000E+00 -0.11352001660E+04  0.11352001660E+04  0.00000000000E+00 0.  1.
          6    2    1    2  502    0 -0.36464201400E+02 -0.87863307524E+01 -0.65494403673E+03  0.67796462351E+03  0.17110669740E+03 0.  0.
         24    2    3    3    0    0 -0.61751262987E+02 -0.44989951594E+02 -0.58219082100E+03  0.59272814045E+03  0.80889938804E+02 0.  0.
         -6    2    1    2    0  501  0.36464201400E+02  0.87863307524E+01 -0.45185590084E+03  0.48563577086E+03  0.17395835484E+03 0.  0.
        -24    2    5    5    0    0  0.70834466419E+01  0.71645161468E+02 -0.24523209174E+03  0.26762212487E+03  0.79370136216E+02 0.  0.
          5    1    3    3  502    0  0.25287061586E+02  0.36203620842E+02 -0.72753215725E+02  0.85236483058E+02  0.47000000000E+01 0. -1.
        -11    1    4    4    0    0 -0.71439999153E+02 -0.25684391702E+02 -0.54018948647E+03  0.54549797685E+03  0.00000000000E+00 0.  1.
         12    1    4    4    0    0  0.96887361666E+01 -0.19305559892E+02 -0.42001334530E+02  0.47230163599E+02  0.00000000000E+00 0. -1.
         -5    1    5    5    0  501  0.29380754758E+02 -0.62858830716E+02 -0.20662380910E+03  0.21801364599E+03  0.47000000000E+01 0.  1.
         11    1    6    6    0    0  0.17152695556E+02 -0.50387647285E+01 -0.11092599778E+02  0.21039246295E+02  0.00000000000E+00 0. -1.
        -12    1    6    6    0    0 -0.10069248914E+02  0.76683926197E+02 -0.23413949196E+03  0.24658287858E+03  0.00000000000E+00 0.  1.
</event>
<event>
12    1  0.2625820E-002  0.2264433E+03  0.7818608E-02  0.1129168E+00
         -2   -1    0    0    0  501 -0.00000000000E+00  0.00000000000E+00  0.49184417931E+02  0.49184417931E+02  0.00000000000E+00 0. -1.
          2   -1    0    0  502    0  0.00000000000E+00 -0.00000000000E+00 -0.10440813310E+04  0.10440813310E+04  0.00000000000E+00 0.  1.
          6    2    1    2  502    0 -0.65960332735E+02  0.13175403541E+03 -0.47641140607E+03  0.52748617620E+03  0.17194169625E+03 0.  0.
         24    2    3    3    0    0 -0.19361787224E+02  0.14929305910E+03 -0.31244196985E+03  0.35605949272E+03  0.80592068671E+02 0.  0.
         -6    2    1    2    0  501  0.65960332735E+02 -0.13175403541E+03 -0.51848550702E+03  0.56577957275E+03  0.17195758957E+03 0.  0.
        -24    2    5    5    0    0  0.81909626196E+02 -0.14737407015E+03 -0.35886297151E+03  0.40453500915E+03  0.80234891991E+02 0.  0.
          5    1    3    3  502    0 -0.46598545511E+02 -0.17539023690E+02 -0.16396943621E+03  0.17142668348E+03  0.47000000000E+01 0. -1.
        -11    1    4    4    0    0 -0.37169798680E+02  0.52131530920E+02 -0.17847971085E+03  0.18961618506E+03  0.00000000000E+00 0.  1.
         12    1    4    4    0    0  0.17808011456E+02  0.97161528176E+02 -0.13396225900E+03  0.16644330767E+03  0.00000000000E+00 0. -1.
         -5    1    5    5    0  501 -0.15949293461E+02  0.15620034744E+02 -0.15962253552E+03  0.16124456360E+03  0.47000000000E+01 0.  1.
         13    1    6    6    0    0  0.58188964013E+02 -0.66894741176E+02 -0.26089837598E+03  0.27555185450E+03  0.00000000000E+00 0. -1.
        -14    1    6    6    0    0  0.23720662183E+02 -0.80479328975E+02 -0.97964595530E+02  0.12898315465E+03  0.00000000000E+00 0.  1.
</event>
<event>
12    1  0.2625820E-002  0.4210731E+03  0.7818608E-02  0.1036718E+00
          2   -1    0    0  502    0  0.00000000000E+00  0.00000000000E+00  0.11349784611E+04  0.11349784611E+04  0.00000000000E+00 0.  1.
         -2   -1    0    0    0  501 -0.00000000000E+00 -0.00000000000E+00 -0.28210113797E+03  0.28210113797E+03  0.00000000000E+00 0. -1.
          6    2    1    2  502    0 -0.17569211712E+03  0.34278032829E+03  0.90020626518E+03  0.99416353691E+03  0.17211549835E+03 0.  0.
         24    2    3    3    0    0 -0.55122503461E+02  0.23614152920E+03  0.65081515274E+03  0.69730181460E+03  0.62194416184E+02 0.  0.
         -6    2    1    2    0  501  0.17569211712E+03 -0.34278032829E+03 -0.47328942081E+02  0.42291606213E+03  0.16808299547E+03 0.  0.
        -24    2    5    5    0    0  0.12780632561E+03 -0.13652821008E+03 -0.54807924609E+02  0.21099388190E+03  0.80870888359E+02 0.  0.
          5    1    3    3  502    0 -0.12056961366E+03  0.10663879910E+03  0.24939111243E+03  0.29686172231E+03  0.47000000000E+01 0. -1.
        -13    1    4    4    0    0 -0.59890502379E+02  0.14171239932E+03  0.44398997359E+03  0.46988974563E+03  0.00000000000E+00 0.  1.
         14    1    4    4    0    0  0.47679989175E+01  0.94429129877E+02  0.20682517915E+03  0.22741206897E+03  0.00000000000E+00 0. -1.
         -5    1    5    5    0  501  0.47885791516E+02 -0.20625211821E+03  0.74789825287E+01  0.21192218023E+03  0.47000000000E+01 0.  1.
         11    1    6    6    0    0  0.62839309076E+02 -0.11618490629E+03 -0.54563905691E+02  0.14291581794E+03  0.00000000000E+00 0. -1.
        -12    1    6    6    0    0  0.64967016532E+02 -0.20343303795E+02 -0.24401891816E+00  0.68078063953E+02  0.00000000000E+00 0.  1.
</event>
<event>
12    1  0.2625820E-002  0.2459612E+03  0.7818608E-02  0.1115884E+00
         -1   -1    0    0    0  501 -0.00000000000E+00  0.00000000000E+00  0.54108540939E+02  0.54108540939E+02  0.00000000000E+00 0.  1.
          1   -1    0    0  502    0  0.00000000000E+00 -0.00000000000E+00 -0.11316215255E+04  0.11316215255E+04  0.00000000000E+00 0. -1.
          6    2    1    2  502    0 -0.15500221346E+03  0.88052410153E+02 -0.47042734568E+03  0.53008935262E+03  0.16707459737E+03 0.  0.
         24    2    3    3    0    0 -0.86211514613E+02  0.12057475548E+03 -0.32656575679E+03  0.36727623904E+03  0.79220864349E+02 0.  0.
         -6    2    1    2    0  501  0.15500221346E+03 -0.88052410153E+02 -0.60708563890E+03  0.65564071384E+03  0.17185127167E+03 0.  0.
        -24    2    5    5    0    0  0.70067577075E+02  0.30771774152E+01 -0.15675051301E+03  0.18836958291E+03  0.77417324026E+02 0.  0.
          5    1    3    3  502    0 -0.68790698848E+02 -0.32522345328E+02 -0.14386158889E+03  0.16281311358E+03  0.47000000000E+01 0. -1.
        -11    1    4    4    0    0 -0.23528139494E+02  0.11777842031E+01 -0.15394929907E+02  0.28141861888E+02  0.00000000000E+00 0.  1.
         12    1    4    4    0    0 -0.62683375119E+02  0.11939697128E+03 -0.31117082688E+03  0.33913437715E+03  0.00000000000E+00 0. -1.
         -5    1    5    5    0  501  0.84934636386E+02 -0.91129587568E+02 -0.45033512588E+03  0.46727113092E+03  0.47000000000E+01 0.  1.
         11    1    6    6    0    0  0.48909817213E+02  0.57014162771E+01 -0.15944939277E+03  0.16687955304E+03  0.00000000000E+00 0. -1.
        -12    1    6    6    0    0  0.21157759862E+02 -0.26242388619E+01  0.26988797604E+01  0.21490029873E+02  0.00000000000E+00 0.  1.
</event>
<event>
12    1  0.2625820E-002  0.1822793E+03  0.7818608E-02  0.1165615E+00
         -2   -1    0    0    0  501 -0.00000000000E+00  0.00000000000E+00  0.13968934731E+02  0.13968934731E+02  0.00000000000E+00 0.  1.
          2   -1    0    0  502    0  0.00000000000E+00 -0.00000000000E+00 -0.23812414767E+04  0.23812414767E+04  0.00000000000E+00 0. -1.
          6    2    1    2  502    0 -0.52195890620E+02  0.26806997061E+02 -0.11398497296E+04  0.11542434554E+04  0.17198116788E+03 0.  0.
         24    2    3    3    0    0  0.13017419473E+02  0.16383837342E+02 -0.93433162462E+03  0.93832402701E+03  0.83895837517E+02 0.  0.
         -6    2    1    2    0  501  0.52195890620E+02 -0.26806997061E+02 -0.12274228123E+04  0.12409669560E+04  0.17317389994E+03 0.  0.
        -24    2    5    5    0    0  0.73783491370E+02 -0.41658906853E+02 -0.11860923604E+04  0.11918049789E+04  0.80028447491E+02 0.  0.
          5    1    3    3  502    0 -0.65213310093E+02  0.10423159719E+02 -0.20551810501E+03  0.21591942840E+03  0.47000000000E+01 0. -1.
        -13    1    4    4    0    0 -0.64605288916E+01  0.40626633703E+02 -0.25636308938E+03  0.25964263016E+03  0.00000000000E+00 0.  1.
         14    1    4    4    0    0  0.19477948365E+02 -0.24242796361E+02 -0.67796853525E+03  0.67868139685E+03  0.00000000000E+00 0. -1.
         -5    1    5    5    0  501 -0.21587600751E+02  0.14851909792E+02 -0.41330451990E+02  0.49161977099E+02  0.47000000000E+01 0.  1.
         13    1    6    6    0    0  0.34308188321E+02  0.19099666138E+02 -0.59386724645E+03  0.59516397358E+03  0.00000000000E+00 0. -1.
        -14    1    6    6    0    0  0.39475303049E+02 -0.60758572991E+02 -0.59222511390E+03  0.59664100536E+03  0.00000000000E+00 0.  1.
</event>
<event>
12    1  0.2625820E-002  0.2417409E+03  0.7818608E-02  0.1118639E+00
          1   -1    0    0  502    0  0.00000000000E+00  0.00000000000E+00  0.86974348846E+03  0.86974348846E+03  0.00000000000E+00 0. -1.
         -1   -1    0    0    0  501 -0.00000000000E+00 -0.00000000000E+00 -0.11235111194E+03  0.11235111194E+03  0.00000000000E+00 0.  1.
          6    2    1    2  502    0  0.16371990015E+03 -0.45865893440E+02  0.66479699806E+02  0.24979438843E+03  0.17049868069E+03 0.  0.
         24    2    3    3    0    0  0.14846299629E+02  0.19948987056E+02  0.14808075234E+02  0.78952373067E+02  0.73456268784E+02 0.  0.
         -6    2    1    2    0  501 -0.16371990015E+03  0.45865893440E+02  0.69091267671E+03  0.73230021197E+03  0.17319176578E+03 0.  0.
        -24    2    5    5    0    0 -0.10614393535E+03  0.57422445759E+02  0.63420902415E+03  0.65053261547E+03  0.80048267853E+02 0.  0.
          5    1    3    3  502    0  0.14887360052E+03 -0.65814880496E+02  0.51671624572E+02  0.17084201536E+03  0.47000000000E+01 0. -1.
        -13    1    4    4    0    0  0.28307456103E+02  0.31711677772E+02  0.32722669574E+02  0.53644344363E+02  0.00000000000E+00 0.  1.
         14    1    4    4    0    0 -0.13461156474E+02 -0.11762690716E+02 -0.17914594340E+02  0.25308028704E+02  0.00000000000E+00 0. -1.
         -5    1    5    5    0  501 -0.57575964801E+02 -0.11556552320E+02  0.56703652552E+02  0.81767596498E+02  0.47000000000E+01 0.  1.
         13    1    6    6    0    0 -0.48452477450E+01  0.25395782631E+02  0.26742526330E+03  0.26867209317E+03  0.00000000000E+00 0. -1.
        -14    1    6    6    0    0 -0.10129868760E+03  0.32026663129E+02  0.36678376086E+03  0.38186052230E+03  0.00000000000E+00 0.  1.
</event>
<event>
12    1  0.2625820E-002  0.2091494E+03  0.7818608E-02  0.1142241E+00
         -1   -1    0    0    0  501 -0.00000000000E+00  0.00000000000E+00  0.31778841514E+02  0.31778841514E+02  0.00000000000E+00 0. -1.
          1   -1    0    0  502    0  0.00000000000E+00 -0.00000000000E+00 -0.14088225071E+04  0.14088225071E+04  0.00000000000E+00 0.  1.
          6    2    1    2  502    0 -0.38546576487E+02  0.11277732869E+03 -0.79047866129E+03  0.81713626905E+03  0.16926489243E+03 0.  0.
         24    2    3    3    0    0 -0.86773422025E+02  0.10476150197E+03 -0.62141393547E+03  0.64108214775E+03  0.79538933259E+02 0.  0.
         -6    2    1    2    0  501  0.38546576487E+02 -0.11277732869E+03 -0.58656500431E+03  0.62346507958E+03  0.17448678102E+03 0.  0.
        -24    2    5    5    0    0 -0.27144367734E+02 -0.58894634022E+02 -0.45781782936E+03  0.46913889906E+03  0.79301621113E+02 0.  0.
          5    1    3    3  502    0  0.48226845538E+02  0.80158267261E+01 -0.16906472582E+03  0.17605412129E+03  0.47000000000E+01 0. -1.
        -13    1    4    4    0    0 -0.43136190525E+02  0.72470188395E+02 -0.51246005514E+03  0.51935341267E+03  0.00000000000E+00 0.  1.
         14    1    4    4    0    0 -0.43637231500E+02  0.32291313573E+02 -0.10895388033E+03  0.12172873508E+03  0.00000000000E+00 0. -1.
         -5    1    5    5    0  501  0.65690944221E+02 -0.53882694672E+02 -0.12874717495E+03  0.15432618052E+03  0.47000000000E+01 0.  1.
         11    1    6    6    0    0 -0.11059833490E+02 -0.52438749801E+02 -0.12670648693E+03  0.13757425714E+03  0.00000000000E+00 0. -1.
        -12    1    6    6    0    0 -0.16084534244E+02 -0.64558842210E+01 -0.33111134243E+03  0.33156464192E+03  0.00000000000E+00 0.  1.
</event>
<event>
12    1  0.2625820E-002  0.1729038E+03  0.7818608E-02  0.1174853E+00
          1   -1    0    0  502    0  0.00000000000E+00  0.00000000000E+00  0.15816126336E+04  0.15816126336E+04  0.00000000000E+00 0.  1.
         -1   -1    0    0    0  501 -0.00000000000E+00 -0.00000000000E+00 -0.26346820139E+02  0.26346820139E+02  0.00000000000E+00 0. -1.
          6    2    1    2  502    0 -0.14132718368E+02 -0.80421739229E+01  0.34950117229E+03  0.38982741415E+03  0.17190093978E+03 0.  0.
         24    2    3    3    0    0  0.45779311407E+02 -0.44863256136E+02  0.20642505577E+03  0.23033412738E+03  0.79586741858E+02 0.  0.
         -6    2    1    2    0  501  0.14132718368E+02  0.80421739229E+01  0.12057646411E+04  0.12181320396E+04  0.17237426053E+03 0.  0.
        -24    2    5    5    0    0  0.20634555116E+02  0.69243864033E+02  0.60851183542E+03  0.61769809258E+03  0.77741765829E+02 0.  0.
          5    1    3    3  502    0 -0.59912029775E+02  0.36821082213E+02  0.14307611652E+03  0.15949328677E+03  0.47000000000E+01 0. -1.
        -11    1    4    4    0    0 -0.21428043524E+02 -0.23131168567E+02  0.61430713089E+02  0.69050304266E+02  0.00000000000E+00 0.  1.
         12    1    4    4    0    0  0.67207354931E+02 -0.21732087568E+02  0.14499434268E+03  0.16128382311E+03  0.00000000000E+00 0. -1.
         -5    1    5    5    0  501 -0.65018367484E+01 -0.61201690110E+02  0.59725280572E+03  0.60043394699E+03  0.47000000000E+01 0.  1.
         13    1    6    6    0    0  0.36876492149E+02  0.60900979435E+02  0.28810709957E+03  0.29677349240E+03  0.00000000000E+00 0. -1.
        -14    1    6    6    0    0 -0.16241937033E+02  0.83428845980E+01  0.32040473585E+03  0.32092460017E+03  0.00000000000E+00 0.  1.
</event>
<event>
12    1  0.2625820E-002  0.1747234E+03  0.7818608E-02  0.1173010E+00
         -1   -1    0    0    0  501 -0.00000000000E+00  0.00000000000E+00  0.24640619114E+02  0.24640619114E+02  0.00000000000E+00 0.  1.
          1   -1    0    0  502    0  0.00000000000E+00 -0.00000000000E+00 -0.13240364755E+04  0.13240364755E+04  0.00000000000E+00 0. -1.
          6    2    1    2  502    0  0.32270054607E+02  0.71683555432E+01 -0.47657339673E+03  0.50737720551E+03  0.17092888713E+03 0.  0.
         24    2    3    3    0    0 -0.12531010260E+01  0.20244855400E+02 -0.10026814760E+03  0.12932624686E+03  0.79121124055E+02 0.  0.
         -6    2    1    2    0  501 -0.32270054607E+02 -0.71683555432E+01 -0.82282245968E+03  0.84129988913E+03  0.17220906349E+03 0.  0.
        -24    2    5    5    0    0 -0.10461433508E+02 -0.66465954451E+02 -0.36471179687E+03  0.37882903537E+03  0.77263047929E+02 0.  0.
          5    1    3    3  502    0  0.33523155633E+02 -0.13076499857E+02 -0.37630524913E+03  0.37805095865E+03  0.47000000000E+01 0. -1.
        -11    1    4    4    0    0  0.62338909948E+01  0.48979750854E+02 -0.77567484932E+02  0.91948855944E+02  0.00000000000E+00 0.  1.
         12    1    4    4    0    0 -0.74869920208E+01 -0.28734895454E+02 -0.22700662668E+02  0.37377390918E+02  0.00000000000E+00 0. -1.
         -5    1    5    5    0  501 -0.21808621100E+02  0.59297598908E+02 -0.45811066282E+03  0.46247085376E+03  0.47000000000E+01 0.  1.
         11    1    6    6    0    0 -0.41369659609E+02 -0.26491200273E+02 -0.22388897259E+03  0.22921497437E+03  0.00000000000E+00 0. -1.
        -12    1    6    6    0    0  0.30908226102E+02 -0.39974754178E+02 -0.14082282428E+03  0.14961406101E+03  0.00000000000E+00 0.  1.
</event>
<event>
12    1  0.2625820E-002  0.1764337E+03  0.7818608E-02  0.1171300E+00
          1   -1    0    0  502    0  0.00000000000E+00  0.00000000000E+00  0.68569302235E+02  0.68569302235E+02  0.00000000000E+00 0. -1.
         -1   -1    0    0    0  501 -0.00000000000E+00 -0.00000000000E+00 -0.49293394858E+03  0.49293394858E+03  0.00000000000E+00 0.  1.
          6    2    1    2  502    0  0.49763516601E+01 -0.37213870516E+02 -0.29110838288E+03  0.34040086571E+03  0.17239206061E+03 0.  0.
         24    2    3    3    0    0 -0.11992930193E+02  0.12091591986E+02 -0.46896750007E+02  0.90640186683E+02  0.75672328558E+02 0.  0.
         -6    2    1    2    0  501 -0.49763516601E+01  0.37213870516E+02 -0.13325626347E+03  0.22110238511E+03  0.17239314578E+03 0.  0.
        -24    2    5    5    0    0 -0.51866610467E+02  0.59878636097E+02 -0.34172250337E+02  0.10906614263E+03  0.66723941975E+02 0.  0.
          5    1    3    3  502    0  0.16969281853E+02 -0.49305462502E+02 -0.24421163287E+03  0.24976067903E+03  0.47000000000E+01 0. -1.
        -11    1    4    4    0    0  0.93606339138E+01  0.36849773636E+01 -0.62231565207E+02  0.63039418094E+02  0.00000000000E+00 0.  1.
         12    1    4    4    0    0 -0.21353564107E+02  0.84066146227E+01  0.15334815201E+02  0.27600768589E+02  0.00000000000E+00 0. -1.
         -5    1    5    5    0  501  0.46890258807E+02 -0.22664765581E+02 -0.99084013133E+02  0.11203624248E+03  0.47000000000E+01 0.  1.
         11    1    6    6    0    0  0.48360183597E+01  0.40619555855E+02 -0.26385819441E+02  0.48677991526E+02  0.00000000000E+00 0. -1.
        -12    1    6    6    0    0 -0.56702628826E+02  0.19259080243E+02 -0.77864308967E+01  0.60388151104E+02  0.00000000000E+00 0.  1.
</event>
<event>
12    1  0.2625820E-002  0.1933021E+03  0.7818608E-02  0.1155516E+00
          2   -1    0    0  502    0  0.00000000000E+00  0.00000000000E+00  0.36851123009E+03  0.36851123009E+03  0.00000000000E+00 0. -1.
         -2   -1    0    0    0  501 -0.00000000000E+00 -0.00000000000E+00 -0.14135717413E+03  0.14135717413E+03  0.00000000000E+00 0.  1.
          6    2    1    2  502    0  0.41017323883E+02  0.82451176612E+02 -0.22463371468E+02  0.19342137115E+03  0.16860191688E+03 0.  0.
         24    2    3    3    0    0  0.81491261153E+02  0.53303551858E+02  0.21791754677E+02  0.12657580423E+03  0.77874638739E+02 0.  0.
         -6    2    1    2    0  501 -0.41017323883E+02 -0.82451176612E+02  0.24961742743E+03  0.31644703307E+03  0.17131622012E+03 0.  0.
        -24    2    5    5    0    0 -0.21286101237E+02 -0.11918200663E+03  0.22512768477E+03  0.26786398544E+03  0.80069915915E+02 0.  0.
          5    1    3    3  502    0 -0.40473937270E+02  0.29147624754E+02 -0.44255126146E+02  0.66845566922E+02  0.47000000000E+01 0. -1.
        -11    1    4    4    0    0  0.11777070681E+02  0.39836842400E+02 -0.17897839981E+02  0.45232798744E+02  0.00000000000E+00 0.  1.
         12    1    4    4    0    0  0.69714190472E+02  0.13466709458E+02  0.39689594659E+02  0.81343005482E+02  0.00000000000E+00 0. -1.
         -5    1    5    5    0  501 -0.19731222646E+02  0.36730830023E+02  0.24489742661E+02  0.48583047629E+02  0.47000000000E+01 0.  1.
         13    1    6    6    0    0  0.14568147114E+02 -0.17822138322E+01  0.61979593978E+02  0.63693620294E+02  0.00000000000E+00 0. -1.
        -14    1    6    6    0    0 -0.35854248351E+02 -0.11739979280E+03  0.16314809080E+03  0.20417036515E+03  0.00000000000E+00 0.  1.
</event>
<event>
12    1  0.2625820E-002  0.2589337E+03  0.7818608E-02  0.1107786E+00
         -4   -1    0    0    0  501 -0.00000000000E+00  0.00000000000E+00  0.25343900546E+03  0.25343900546E+03  0.00000000000E+00 0.  1.
          4   -1    0    0  502    0  0.00000000000E+00 -0.00000000000E+00 -0.38740768344E+03  0.38740768344E+03  0.00000000000E+00 0. -1.
          6    2    1    2  502    0 -0.18663257379E+03 -0.48164632542E+02 -0.24751898861E+03  0.35857723585E+03  0.17366759895E+03 0.  0.
         24    2    3    3    0    0 -0.10280039230E+03  0.22121581065E+02 -0.69846392175E+02  0.14987259288E+03  0.80783603473E+02 0.  0.
         -6    2    1    2    0  501  0.18663257379E+03  0.48164632542E+02  0.11355031063E+03  0.28226945305E+03  0.17213605565E+03 0.  0.
        -24    2    5    5    0    0  0.59304754302E+02  0.50740976193E+02  0.10532674226E+03  0.15456382186E+03  0.81881327808E+02 0.  0.
          5    1    3    3  502    0 -0.83832181483E+02 -0.70286213607E+02 -0.17767259643E+03  0.20870464297E+03  0.47000000000E+01 0. -1.
        -11    1    4    4    0    0 -0.48031482190E+02 -0.25819567434E+02 -0.95643448078E+01  0.55363797156E+02  0.00000000000E+00 0.  1.
         12    1    4    4    0    0 -0.54768910113E+02  0.47941148499E+02 -0.60282047367E+02  0.94508795724E+02  0.00000000000E+00 0. -1.
         -5    1    5    5    0  501  0.12732781948E+03 -0.25763436505E+01  0.82235683661E+01  0.12770563119E+03  0.47000000000E+01 0.  1.
         11    1    6    6    0    0 -0.18847211054E+02  0.23998674644E+02  0.27772019427E+02  0.41260620599E+02  0.00000000000E+00 0. -1.
        -12    1    6    6    0    0  0.78151965356E+02  0.26742301548E+02  0.77554722834E+02  0.11330320126E+03  0.00000000000E+00 0.  1.
</event>
<event>
12    1  0.2625820E-002  0.2595704E+03  0.7818608E-02  0.1107402E+00
         -2   -1    0    0    0  501 -0.00000000000E+00  0.00000000000E+00  0.70784640234E+03  0.70784640234E+03  0.00000000000E+00 0. -1.
          2   -1    0    0  502    0  0.00000000000E+00 -0.00000000000E+00 -0.95428086001E+02  0.95428086001E+02  0.00000000000E+00 0.  1.
          6    2    1    2  502    0 -0.18560833163E+03  0.55714257619E+02  0.28669147953E+03  0.38714502211E+03  0.17359358409E+03 0.  0.
         24    2    3    3    0    0 -0.16691311511E+03  0.69713555627E+02  0.14945364297E+03  0.24785465902E+03  0.79847183853E+02 0.  0.
         -6    2    1    2    0  501  0.18560833163E+03 -0.55714257619E+02  0.32572683681E+03  0.41612946624E+03  0.17178832667E+03 0.  0.
        -24    2    5    5    0    0  0.16292207235E+03 -0.48343503299E+02  0.33969660086E+03  0.38808951818E+03  0.79617821605E+02 0.  0.
          5    1    3    3  502    0 -0.18695216519E+02 -0.13999298008E+02  0.13723783656E+03  0.13929036308E+03  0.47000000000E+01 0. -1.
        -13    1    4    4    0    0 -0.13324034259E+03  0.67116735163E+02  0.15324104291E+03  0.21387019957E+03  0.00000000000E+00 0.  1.
         14    1    4    4    0    0 -0.33672772522E+02  0.25968204643E+01 -0.37873999449E+01  0.33984459451E+02  0.00000000000E+00 0. -1.
         -5    1    5    5    0  501  0.22686259279E+02 -0.73707543200E+01 -0.13969764048E+02  0.28039948054E+02  0.47000000000E+01 0.  1.
         11    1    6    6    0    0  0.57566398517E+02  0.17895521301E+02  0.80551978292E+02  0.10061193333E+03  0.00000000000E+00 0. -1.
        -12    1    6    6    0    0  0.10535567383E+03 -0.66239024599E+02  0.25914462257E+03  0.28747758486E+03  0.00000000000E+00 0.  1.
</event>
<event>
12    1  0.2625820E-002  0.2567301E+03  0.7818608E-02  0.1109124E+00
         -1   -1    0    0    0  501 -0.00000000000E+00  0.00000000000E+00  0.10156121623E+03  0.10156121623E+03  0.00000000000E+00 0. -1.
          1   -1    0    0  502    0  0.00000000000E+00 -0.00000000000E+00 -0.76930346236E+03  0.76930346236E+03  0.00000000000E+00 0.  1.
          6    2    1    2  502    0 -0.54351868575E+02 -0.18282675588E+03 -0.16208599165E+03  0.30394324258E+03  0.17242354171E+03 0.  0.
         24    2    3    3    0    0  0.35784385114E+02 -0.67854772038E+02 -0.62116723163E+02  0.12685838738E+03  0.79685449400E+02 0.  0.
         -6    2    1    2    0  501  0.54351868575E+02  0.18282675588E+03 -0.50565625448E+03  0.56692143602E+03  0.17126563764E+03 0.  0.
        -24    2    5    5    0    0  0.50041635587E+02  0.13985297154E+03 -0.21562053553E+03  0.27365000455E+03  0.79555582497E+02 0.  0.
          5    1    3    3  502    0 -0.90136253689E+02 -0.11497198385E+03 -0.99969268484E+02  0.17708485520E+03  0.47000000000E+01 0. -1.
        -13    1    4    4    0    0 -0.64733381935E+01  0.35612213732E+01 -0.40416505589E+02  0.41086254746E+02  0.00000000000E+00 0.  1.
         14    1    4    4    0    0  0.42257723308E+02 -0.71415993411E+02 -0.21700217575E+02  0.85772132635E+02  0.00000000000E+00 0. -1.
         -5    1    5    5    0  501  0.43102329883E+01  0.42973784349E+02 -0.29003571895E+03  0.29327143147E+03  0.47000000000E+01 0.  1.
         11    1    6    6    0    0  0.22695359088E+02  0.33882086811E+02 -0.12047500958E+02  0.42523139702E+02  0.00000000000E+00 0. -1.
        -12    1    6    6    0    0  0.27346276498E+02  0.10597088472E+03 -0.20357303457E+03  0.23112686484E+03  0.00000000000E+00 0.  1.
</event>
<event>
12    1  0.2625820E-002  0.2571813E+03  0.7818608E-02  0.1108849E+00
         -2   -1    0    0    0  501 -0.00000000000E+00  0.00000000000E+00  0.37501720631E+02  0.37501720631E+02  0.00000000000E+00 0.  1.
          2   -1    0    0  502    0  0.00000000000E+00 -0.00000000000E+00 -0.17970232611E+04  0.17970232611E+04  0.00000000000E+00 0. -1.
          6    2    1    2  502    0 -0.91737211978E+02  0.16772736238E+03 -0.10028940527E+04  0.10352162717E+04  0.17125438476E+03 0.  0.
         24    2    3    3    0    0 -0.12707585294E+03  0.13727789154E+03 -0.89059874005E+03  0.91352684308E+03  0.79822837158E+02 0.  0.
         -6    2    1    2    0  501  0.91737211978E+02 -0.16772736238E+03 -0.75662748779E+03  0.79930870996E+03  0.17280357166E+03 0.  0.
        -24    2    5    5    0    0  0.10426130546E+03 -0.55250829790E+02 -0.45092651143E+03  0.47329797356E+03  0.82177728438E+02 0.  0.
          5    1    3    3  502    0  0.35338640962E+02  0.30449470836E+02 -0.11229531260E+03  0.12168942867E+03  0.47000000000E+01 0. -1.
        -13    1    4    4    0    0 -0.79405347729E+02  0.34150848082E+02 -0.46841277727E+03  0.47632134067E+03  0.00000000000E+00 0.  1.
         14    1    4    4    0    0 -0.47670505211E+02  0.10312704346E+03 -0.42218596278E+03  0.43720550240E+03  0.00000000000E+00 0. -1.
         -5    1    5    5    0  501 -0.12524093487E+02 -0.11247653259E+03 -0.30570097636E+03  0.32601073640E+03  0.47000000000E+01 0.  1.
         11    1    6    6    0    0  0.38468998408E+02  0.22992942602E-01 -0.27312561440E+03  0.27582143790E+03  0.00000000000E+00 0. -1.
        -12    1    6    6    0    0  0.65792307057E+02 -0.55273822733E+02 -0.17780089703E+03  0.19747653565E+03  0.00000000000E+00 0.  1.
</event>
<event>
12    1  0.2625820E-002  0.2179383E+03  0.7818608E-02  0.1135430E+00
         -2   -1    0    0    0  501 -0.00000000000E+00  0.00000000000E+00  0.45991678539E+03  0.45991678539E+03  0.00000000000E+00 0. -1.
          2   -1    0    0  502    0  0.00000000000E+00 -0.00000000000E+00 -0.12093989112E+03  0.12093989112E+03  0.00000000000E+00 0.  1.
          6    2    1    2  502    0  0.78906508328E+02  0.10867912311E+03  0.59116691700E+02  0.22672192701E+03  0.17283130530E+03 0.  0.
         24    2    3    3    0    0  0.73754948868E+02  0.13380871259E+03  0.83977921450E+02  0.19069130701E+03  0.77241952537E+02 0.  0.
         -6    2    1    2    0  501 -0.78906508328E+02 -0.10867912311E+03  0.27986020257E+03  0.35413474950E+03  0.17044734954E+03 0.  0.
        -24    2    5    5    0    0 -0.62922698338E+02 -0.72806836759E+02  0.28776549517E+03  0.31380006516E+03  0.80008744774E+02 0.  0.
          5    1    3    3  502    0  0.51515594603E+01 -0.25129589484E+02 -0.24861229749E+02  0.36030619994E+02  0.47000000000E+01 0. -1.
        -11    1    4    4    0    0  0.14697971068E+02  0.94189882094E+02  0.25662325546E+02  0.98723448050E+02  0.00000000000E+00 0.  1.
         12    1    4    4    0    0  0.59056977800E+02  0.39618830496E+02  0.58315595903E+02  0.91967858963E+02  0.00000000000E+00 0. -1.
         -5    1    5    5    0  501 -0.15983809990E+02 -0.35872286346E+02 -0.79052926017E+01  0.40334684338E+02  0.47000000000E+01 0.  1.
         11    1    6    6    0    0  0.60699433804E+01 -0.29990662457E+02  0.15640116552E+03  0.15936627191E+03  0.00000000000E+00 0. -1.
        -12    1    6    6    0    0 -0.68992641719E+02 -0.42816174302E+02  0.13136432965E+03  0.15443379325E+03  0.00000000000E+00 0.  1.
</event>
<event>
12    1  0.2625820E-002  0.2027207E+03  0.7818608E-02  0.1147464E+00
         -2   -1    0    0    0  501 -0.00000000000E+00  0.00000000000E+00  0.11404633803E+03  0.11404633803E+03  0.00000000000E+00 0.  1.
          2   -1    0    0  502    0  0.00000000000E+00 -0.00000000000E+00 -0.36139604252E+03  0.36139604252E+03  0.00000000000E+00 0. -1.
          6    2    1    2  502    0  0.10285379017E+03  0.21460197205E+02 -0.13550215336E+03  0.24262059777E+03  0.17165220266E+03 0.  0.
         24    2    3    3    0    0  0.11226559959E+03 -0.35115905197E+02 -0.10923169308E+03  0.17936188609E+03  0.80015197060E+02 0.  0.
         -6    2    1    2    0  501 -0.10285379017E+03 -0.21460197205E+02 -0.11184755113E+03  0.23282178279E+03  0.17509044985E+03 0.  0.
        -24    2    5    5    0    0 -0.74436100300E+02 -0.12430169793E+02 -0.14872212580E+03  0.18516749914E+03  0.80458000774E+02 0.  0.
          5    1    3    3  502    0 -0.94118094187E+01  0.56576102402E+02 -0.26270460284E+02  0.63258711677E+02  0.47000000000E+01 0. -1.
        -11    1    4    4    0    0  0.57839200564E+02 -0.43546030797E+02 -0.21055474177E+02  0.75398693045E+02  0.00000000000E+00 0.  1.
         12    1    4    4    0    0  0.54426399022E+02  0.84301255998E+01 -0.88176218904E+02  0.10396319305E+03  0.00000000000E+00 0. -1.
         -5    1    5    5    0  501 -0.28417689867E+02 -0.90300274120E+01  0.36874574669E+02  0.47654283642E+02  0.47000000000E+01 0.  1.
         13    1    6    6    0    0 -0.57852145325E+02  0.28283053890E+02 -0.10494468590E+03  0.12312671910E+03  0.00000000000E+00 0. -1.
        -14    1    6    6    0    0 -0.16583954975E+02 -0.40713223683E+02 -0.43777439892E+02  0.62040780046E+02  0.00000000000E+00 0.  1.
</event>
<event>
12    1  0.2625820E-002  0.2935880E+03  0.7818608E-02  0.1088491E+00
         -1   -1    0    0    0  501 -0.00000000000E+00  0.00000000000E+00  0.10243686302E+04  0.10243686302E+04  0.00000000000E+00 0. -1.
          1   -1    0    0  502    0  0.00000000000E+00 -0.00000000000E+00 -0.92309179254E+02  0.92309179254E+02  0.00000000000E+00 0.  1.
          6    2    1    2  502    0 -0.21949849131E+03 -0.88313476180E+02  0.63077168695E+03  0.69536742918E+03  0.17229069256E+03 0.  0.
         24    2    3    3    0    0 -0.15720675256E+03 -0.11549840895E+03  0.37069721296E+03  0.42651783683E+03  0.80294432650E+02 0.  0.
         -6    2    1    2    0  501  0.21949849131E+03  0.88313476180E+02  0.30128776402E+03  0.42131038030E+03  0.17535467499E+03 0.  0.
        -24    2    5    5    0    0  0.15358985997E+03  0.21730442645E+02  0.10465070209E+03  0.20344465982E+03  0.79849251317E+02 0.  0.
          5    1    3    3  502    0 -0.62291738748E+02  0.27184932771E+02  0.26007447399E+03  0.26884959235E+03  0.47000000000E+01 0. -1.
        -11    1    4    4    0    0 -0.57145141835E+02 -0.90306451493E+02  0.16889276972E+03  0.19986392891E+03  0.00000000000E+00 0.  1.
         12    1    4    4    0    0 -0.10006161072E+03 -0.25191957458E+02  0.20180444325E+03  0.22665390792E+03  0.00000000000E+00 0. -1.
         -5    1    5    5    0  501  0.65908631338E+02  0.66583033535E+02  0.19663706193E+03  0.21786572049E+03  0.47000000000E+01 0.  1.
         13    1    6    6    0    0 -0.90303128254E+01 -0.26502043490E+01  0.20764993974E+01  0.96375298995E+01  0.00000000000E+00 0. -1.
        -14    1    6    6    0    0  0.16262017279E+03  0.24380646994E+02  0.10257420270E+03  0.19380712992E+03  0.00000000000E+00 0.  1.
</event>
<event>
12    1  0.2625820E-002  0.1820816E+03  0.7818608E-02  0.1165804E+00
         -1   -1    0    0    0  501 -0.00000000000E+00  0.00000000000E+00  0.14764637375E+03  0.14764637375E+03  0.00000000000E+00 0.  1.
          1   -1    0    0  502    0  0.00000000000E+00 -0.00000000000E+00 -0.11173429432E+04  0.11173429432E+04  0.00000000000E+00 0. -1.
          6    2    1    2  502    0 -0.46171483859E+02  0.39069927704E+02 -0.10503120093E+04  0.10660051521E+04  0.17191103009E+03 0.  0.
         24    2    3    3    0    0 -0.13223678758E+02  0.63022360606E+02 -0.97360398783E+03  0.97902534146E+03  0.80244691247E+02 0.  0.
         -6    2    1    2    0  501  0.46171483859E+02 -0.39069927704E+02  0.80615439791E+02  0.19898416491E+03  0.17157384293E+03 0.  0.
        -24    2    5    5    0    0 -0.25701204333E+02 -0.41756116093E+02  0.83111694597E+02  0.12686467930E+03  0.82358775737E+02 0.  0.
          5    1    3    3  502    0 -0.32947805101E+02 -0.23952432902E+02 -0.76708021431E+02  0.86979810616E+02  0.47000000000E+01 0. -1.
        -13    1    4    4    0    0 -0.19508873146E+02  0.72665574744E+02 -0.53439468861E+03  0.53966523429E+03  0.00000000000E+00 0.  1.
         14    1    4    4    0    0  0.62851943878E+01 -0.96432141374E+01 -0.43920929922E+03  0.43936010717E+03  0.00000000000E+00 0. -1.
         -5    1    5    5    0  501  0.71872688191E+02  0.26861883887E+01 -0.24962548059E+01  0.72119485605E+02  0.47000000000E+01 0.  1.
         11    1    6    6    0    0 -0.51066030659E+01 -0.38216485321E+02 -0.25987799107E+01  0.38643638573E+02  0.00000000000E+00 0. -1.
        -12    1    6    6    0    0 -0.20594601267E+02 -0.35396307722E+01  0.85710474508E+02  0.88221040731E+02  0.00000000000E+00 0.  1.
</event>
<event>
12    1  0.2625820E-002  0.1789248E+03  0.7818608E-02  0.1168848E+00
         -1   -1    0    0    0  501 -0.00000000000E+00  0.00000000000E+00  0.24246188358E+03  0.24246188358E+03  0.00000000000E+00 0. -1.
          1   -1    0    0  502    0  0.00000000000E+00 -0.00000000000E+00 -0.23580015716E+03  0.23580015716E+03  0.00000000000E+00 0.  1.
          6    2    1    2  502    0 -0.24537018237E+02 -0.38189132483E+02  0.16195452544E+03  0.24098750813E+03  0.17258399596E+03 0.  0.
         24    2    3    3    0    0  0.26758239294E+02 -0.54790351219E+02  0.42108324862E+02  0.10948843703E+03  0.80601618241E+02 0.  0.
         -6    2    1    2    0  501  0.24537018237E+02  0.38189132483E+02 -0.15529279902E+03  0.23727453260E+03  0.17355942870E+03 0.  0.
        -24    2    5    5    0    0 -0.50979644306E+02  0.32606001551E+02 -0.58978691145E+02  0.11466770144E+03  0.77512065338E+02 0.  0.
          5    1    3    3  502    0 -0.51295257530E+02  0.16601218737E+02  0.11984620058E+03  0.13149907111E+03  0.47000000000E+01 0. -1.
        -11    1    4    4    0    0  0.34791789525E+02  0.87766213799E+01  0.74655760276E+01  0.36650136789E+02  0.00000000000E+00 0.  1.
         12    1    4    4    0    0 -0.80335502317E+01 -0.63566972599E+02  0.34642748835E+02  0.72838300238E+02  0.00000000000E+00 0. -1.
         -5    1    5    5    0  501  0.75516662542E+02  0.55831309314E+01 -0.96314107874E+02  0.12260683116E+03  0.47000000000E+01 0.  1.
         11    1    6    6    0    0 -0.32514549856E+02 -0.22282380619E+02 -0.15954086828E+02  0.42523326833E+02  0.00000000000E+00 0. -1.
        -12    1    6    6    0    0 -0.18465094450E+02  0.54888382171E+02 -0.43024604317E+02  0.72144374604E+02  0.00000000000E+00 0.  1.
</event>
<event>
12    1  0.2625820E-002  0.2186641E+03  0.7818608E-02  0.1134883E+00
          2   -1    0    0  502    0  0.00000000000E+00  0.00000000000E+00  0.47730873852E+02  0.47730873852E+02  0.00000000000E+00 0. -1.
         -2   -1    0    0    0  501 -0.00000000000E+00 -0.00000000000E+00 -0.10306067914E+04  0.10306067914E+04  0.00000000000E+00 0.  1.
          6    2    1    2  502    0 -0.43513684045E+02 -0.12871219522E+03 -0.40290111384E+03  0.45878127256E+03  0.17230983321E+03 0.  0.
         24    2    3    3    0    0 -0.21662987108E+02 -0.60250011027E+02 -0.36195714440E+03  0.37593791281E+03  0.78847898288E+02 0.  0.
         -6    2    1    2    0  501  0.43513684045E+02  0.12871219522E+03 -0.57997480376E+03  0.61955639274E+03  0.17034987787E+03 0.  0.
        -24    2    5    5    0    0  0.51584598615E+02  0.16035081789E+03 -0.47259084225E+03  0.50721963431E+03  0.74540577121E+02 0.  0.
          5    1    3    3  502    0 -0.21850696937E+02 -0.68462184197E+02 -0.40943969437E+02  0.82843359751E+02  0.47000000000E+01 0. -1.
        -11    1    4    4    0    0 -0.42447642526E+02 -0.29298201118E+02 -0.11312264505E+03  0.12432586122E+03  0.00000000000E+00 0.  1.
         12    1    4    4    0    0  0.20784655418E+02 -0.30951809909E+02 -0.24883449935E+03  0.25161205159E+03  0.00000000000E+00 0. -1.
         -5    1    5    5    0  501 -0.80709145706E+01 -0.31638622661E+02 -0.10738396151E+03  0.11233675843E+03  0.47000000000E+01 0.  1.
         13    1    6    6    0    0 -0.26171711981E+01  0.97796272011E+02 -0.20552073024E+03  0.22761751023E+03  0.00000000000E+00 0. -1.
        -14    1    6    6    0    0  0.54201769813E+02  0.62554545875E+02 -0.26707011201E+03  0.27960212407E+03  0.00000000000E+00 0.  1.
</event>
<event>
12    1  0.2625820E-002  0.1713138E+03  0.7818608E-02  0.1176485E+00
         -1   -1    0    0    0  501 -0.00000000000E+00  0.00000000000E+00  0.14322210961E+03  0.14322210961E+03  0.00000000000E+00 0.  1.
          1   -1    0    0  502    0  0.00000000000E+00 -0.00000000000E+00 -0.22153990308E+03  0.22153990308E+03  0.00000000000E+00 0. -1.
          6    2    1    2  502    0  0.93220525881E+01 -0.26329614767E+02 -0.89709110455E+02  0.19643661392E+03  0.17250933167E+03 0.  0.
         24    2    3    3    0    0  0.26728766475E+02  0.32536605714E+02 -0.45205376879E+01  0.91329960794E+02  0.80917666853E+02 0.  0.
         -6    2    1    2    0  501 -0.93220525881E+01  0.26329614767E+02  0.11391316990E+02  0.16832539877E+03  0.16560050872E+03 0.  0.
        -24    2    5    5    0    0  0.58966354805E+01 -0.42938871505E+02  0.27676962959E+02  0.95407335701E+02  0.80361859304E+02 0.  0.
          5    1    3    3  502    0 -0.17406713887E+02 -0.58866220480E+02 -0.85188572767E+02  0.10510665313E+03  0.47000000000E+01 0. -1.
        -13    1    4    4    0    0  0.26522777644E+02 -0.23157787756E+02  0.19304237827E+01  0.35262833177E+02  0.00000000000E+00 0.  1.
         14    1    4    4    0    0  0.20598883118E+00  0.55694393469E+02 -0.64509614706E+01  0.56067127617E+02  0.00000000000E+00 0. -1.
         -5    1    5    5    0  501 -0.15218688069E+02  0.69268486272E+02 -0.16285645969E+02  0.72918063068E+02  0.47000000000E+01 0.  1.
         13    1    6    6    0    0  0.57526497575E+01 -0.60730482206E+02  0.40721771656E+02  0.73345396140E+02  0.00000000000E+00 0. -1.
        -14    1    6    6    0    0  0.14398572303E+00  0.17791610701E+02 -0.13044808697E+02  0.22061939560E+02  0.00000000000E+00 0.  1.
</event>
<event>
12    1  0.2625820E-002  0.2194669E+03  0.7818608E-02  0.1134281E+00
         -2   -1    0    0    0  501 -0.00000000000E+00  0.00000000000E+00  0.61008031744E+02  0.61008031744E+02  0.00000000000E+00 0.  1.
          2   -1    0    0  502    0  0.00000000000E+00 -0.00000000000E+00 -0.79599560293E+03  0.79599560293E+03  0.00000000000E+00 0. -1.
          6    2    1    2  502    0  0.32960042840E+01  0.13750824884E+03 -0.32925233019E+03  0.39584987781E+03  0.17137866462E+03 0.  0.
         24    2    3    3    0    0  0.26557973121E+02  0.15477365093E+03 -0.32429906107E+03  0.36608684406E+03  0.64726249870E+02 0.  0.
         -6    2    1    2    0  501 -0.32960042840E+01 -0.13750824884E+03 -0.40573524099E+03  0.46115375686E+03  0.17065262827E+03 0.  0.
        -24    2    5    5    0    0  0.32622638103E+02 -0.10536746221E+03 -0.38452777082E+03  0.40828575305E+03  0.81664625123E+02 0.  0.
          5    1    3    3  502    0 -0.23261968837E+02 -0.17265402086E+02 -0.49532691151E+01  0.29763033755E+02  0.47000000000E+01 0. -1.
        -11    1    4    4    0    0  0.35924224232E+02  0.36970804459E+02 -0.10511649082E+03  0.11707632942E+03  0.00000000000E+00 0.  1.
         12    1    4    4    0    0 -0.93662511120E+01  0.11780284647E+03 -0.21918257026E+03  0.24901051464E+03  0.00000000000E+00 0. -1.
         -5    1    5    5    0  501 -0.35918642387E+02 -0.32140786625E+02 -0.21207470171E+02  0.52868003810E+02  0.47000000000E+01 0.  1.
         11    1    6    6    0    0  0.83610543949E+01 -0.10685906779E+03 -0.35010951727E+03  0.36614947997E+03  0.00000000000E+00 0. -1.
        -12    1    6    6    0    0  0.24261583708E+02  0.14916055727E+01 -0.34418253555E+02  0.42136273079E+02  0.00000000000E+00 0.  1.
</event>
<event>
12    1  0.2625820E-002  0.2229389E+03  0.7818608E-02  0.1131711E+00
          1   -1    0    0  502    0  0.00000000000E+00  0.00000000000E+00  0.60279021456E+03  0.60279021456E+03  0.00000000000E+00 0.  1.
         -1   -1    0    0    0  501 -0.00000000000E+00 -0.00000000000E+00 -0.83817432703E+02  0.83817432703E+02  0.00000000000E+00 0. -1.
          6    2    1    2  502    0  0.12790138427E+03 -0.58064583608E+02  0.21592317685E+03  0.31051237698E+03  0.17339220857E+03 0.  0.
         24    2    3    3    0    0  0.72219344822E+02 -0.34593576591E+02  0.37712727913E+02  0.12227733296E+03  0.84363185110E+02 0.  0.
         -6    2    1    2    0  501 -0.12790138427E+03  0.58064583608E+02  0.30304960501E+03  0.37609527028E+03  0.17285349075E+03 0.  0.
        -24    2    5    5    0    0 -0.95119828592E+02  0.34334253635E+02  0.83667427370E+02  0.15296215123E+03  0.78552902821E+02 0.  0.
          5    1    3    3  502    0  0.55682039446E+02 -0.23471007018E+02  0.17821044893E+03  0.18823504402E+03  0.47000000000E+01 0. -1.
        -11    1    4    4    0    0  0.26516669938E+02 -0.65956575794E+01  0.58676210801E+02  0.64726611200E+02  0.00000000000E+00 0.  1.
         12    1    4    4    0    0  0.45702674884E+02 -0.27997919011E+02 -0.20963482888E+02  0.57550721762E+02  0.00000000000E+00 0. -1.
         -5    1    5    5    0  501 -0.32781555676E+02  0.23730329973E+02  0.21938217764E+03  0.22313311905E+03  0.47000000000E+01 0.  1.
         11    1    6    6    0    0 -0.39122321506E+02  0.30712049453E+02 -0.28740843407E+01  0.49820140330E+02  0.00000000000E+00 0. -1.
        -12    1    6    6    0    0 -0.55997507085E+02  0.36222041815E+01  0.86541511711E+02  0.10314201090E+03  0.00000000000E+00 0.  1.
</event>
<event>
12    1  0.2625820E-002  0.2560751E+03  0.7818608E-02  0.1109525E+00
          2   -1    0    0  502    0  0.00000000000E+00  0.00000000000E+00  0.62187197999E+03  0.62187197999E+03  0.00000000000E+00 0. -1.
         -2   -1    0    0    0  501 -0.00000000000E+00 -0.00000000000E+00 -0.15809827696E+03  0.15809827696E+03  0.00000000000E+00 0.  1.
          6    2    1    2  502    0  0.10447351101E+02  0.19698449991E+03  0.34792366216E+01  0.25036071502E+03  0.15413092549E+03 0.  0.
         24    2    3    3    0    0 -0.20060596794E+02  0.17855158157E+03 -0.32753363934E+02  0.19931760867E+03  0.79822499659E+02 0.  0.
         -6    2    1    2    0  501 -0.10447351101E+02 -0.19698449991E+03  0.46029446640E+03  0.52960954192E+03  0.17234625248E+03 0.  0.
        -24    2    5    5    0    0 -0.28893238968E+02 -0.18942712772E+03  0.46472496759E+03  0.50865521076E+03  0.77739127633E+02 0.  0.
          5    1    3    3  502    0  0.30507947895E+02  0.18432918332E+02  0.36232600555E+02  0.51043106351E+02  0.47000000000E+01 0. -1.
        -11    1    4    4    0    0  0.30696023103E+02  0.70588990436E+02 -0.18536974744E+02  0.79174938193E+02  0.00000000000E+00 0.  1.
         12    1    4    4    0    0 -0.50756619897E+02  0.10796259114E+03 -0.14216389190E+02  0.12014267048E+03  0.00000000000E+00 0. -1.
         -5    1    5    5    0  501  0.18445887867E+02 -0.75573721846E+01 -0.44305011828E+01  0.20954331158E+02  0.47000000000E+01 0.  1.
         13    1    6    6    0    0  0.20398984802E+02 -0.11708761375E+03  0.25187998757E+03  0.27851239831E+03  0.00000000000E+00 0. -1.
        -14    1    6    6    0    0 -0.49292223770E+02 -0.72339513966E+02  0.21284498001E+03  0.23014281245E+03  0.00000000000E+00 0.  1.
</event>
<event>
12    1  0.2625820E-002  0.3549090E+03  0.7818608E-02  0.1060618E+00
         -2   -1    0    0    0  501 -0.00000000000E+00  0.00000000000E+00  0.11886802058E+03  0.11886802058E+03  0.00000000000E+00 0.  1.
          2   -1    0    0  502    0  0.00000000000E+00 -0.00000000000E+00 -0.10725229865E+04  0.10725229865E+04  0.00000000000E+00 0. -1.
          6    2    1    2  502    0  0.24357327795E+03  0.19245590254E+03 -0.54205286133E+03  0.64790730397E+03  0.17203300240E+03 0.  0.
         24    2    3    3    0    0  0.73721322515E+02  0.30323076120E+02 -0.27059475208E+03  0.28895280094E+03  0.62592962714E+02 0.  0.
         -6    2    1    2    0  501 -0.24357327795E+03 -0.19245590254E+03 -0.41160210463E+03  0.54348370313E+03  0.17202042576E+03 0.  0.
        -24    2    5    5    0    0 -0.21585576283E+03 -0.87877586385E+02 -0.27945663014E+03  0.37263464319E+03  0.80276949628E+02 0.  0.
          5    1    3    3  502    0  0.16985195544E+03  0.16213282642E+03 -0.27145810925E+03  0.35895450303E+03  0.47000000000E+01 0. -1.
        -13    1    4    4    0    0 -0.92186835166E+01 -0.10575103750E+01 -0.98102785147E+01  0.13503481718E+02  0.00000000000E+00 0.  1.
         14    1    4    4    0    0  0.82940006032E+02  0.31380586495E+02 -0.26078447356E+03  0.27544931922E+03  0.00000000000E+00 0. -1.
         -5    1    5    5    0  501 -0.27717515120E+02 -0.10457831615E+03 -0.13214547449E+03  0.17084905994E+03  0.47000000000E+01 0.  1.
         13    1    6    6    0    0 -0.20557241736E+03 -0.92874271709E+02 -0.28179727994E+03  0.36096448039E+03  0.00000000000E+00 0. -1.
        -14    1    6    6    0    0 -0.10283345468E+02  0.49966853231E+01  0.23406497989E+01  0.11670162798E+02  0.00000000000E+00 0.  1.
</event>
<event>
12    1  0.2625820E-002  0.1766134E+03  0.7818608E-02  0.1171121E+00
         -2   -1    0    0    0  501 -0.00000000000E+00  0.00000000000E+00  0.18029977105E+02  0.18029977105E+02  0.00000000000E+00 0. -1.
          2   -1    0    0  502    0  0.00000000000E+00 -0.00000000000E+00 -0.19131646676E+04  0.19131646676E+04  0.00000000000E+00 0.  1.
          6    2    1    2  502    0 -0.38140060635E+02  0.12800311540E+02 -0.64894159577E+03  0.67255244034E+03  0.17199731998E+03 0.  0.
         24    2    3    3    0    0 -0.69072421541E+02  0.47801139561E+02 -0.31447847958E+03  0.33481062325E+03  0.78393181875E+02 0.  0.
         -6    2    1    2    0  501  0.38140060635E+02 -0.12800311540E+02 -0.12461930948E+04  0.12586422044E+04  0.17194317980E+03 0.  0.
        -24    2    5    5    0    0  0.90803770979E+02 -0.15558945503E+02 -0.95207041718E+03  0.95979221542E+03  0.79218759807E+02 0.  0.
          5    1    3    3  502    0  0.30932360906E+02 -0.35000828020E+02 -0.33446311620E+03  0.33774181709E+03  0.47000000000E+01 0. -1.
        -13    1    4    4    0    0  0.10042532319E+02 -0.10481623208E+02 -0.22843015554E+02  0.27065111122E+02  0.00000000000E+00 0.  1.
         14    1    4    4    0    0 -0.79114953860E+02  0.58282762769E+02 -0.29163546402E+03  0.30774551213E+03  0.00000000000E+00 0. -1.
         -5    1    5    5    0  501 -0.52663710344E+02  0.27586339630E+01 -0.29412267757E+03  0.29884998898E+03  0.47000000000E+01 0.  1.
         13    1    6    6    0    0  0.56104057790E+02 -0.31205621110E+02 -0.30912135498E+03  0.31571738659E+03  0.00000000000E+00 0. -1.
        -14    1    6    6    0    0  0.34699713189E+02  0.15646675607E+02 -0.64294906220E+03  0.64407482883E+03  0.00000000000E+00 0.  1.
</event>
<event>
12    1  0.2625820E-002  0.2289703E+03  0.7818608E-02  0.1127367E+00
         -2   -1    0    0    0  501 -0.00000000000E+00  0.00000000000E+00  0.33046811439E+02  0.33046811439E+02  0.00000000000E+00 0. -1.
          2   -1    0    0  502    0  0.00000000000E+00 -0.00000000000E+00 -0.19230710839E+04  0.19230710839E+04  0.00000000000E+00 0.  1.
          6    2    1    2  502    0 -0.89575345290E+02 -0.12083732678E+03 -0.13562034506E+04  0.13754945281E+04  0.17341278919E+03 0.  0.
         24    2    3    3    0    0 -0.59379243268E+02 -0.12284164876E+03 -0.13143217810E+04  0.13236101747E+04  0.76721478568E+02 0.  0.
         -6    2    1    2    0  501  0.89575345290E+02  0.12083732678E+03 -0.53382082189E+03  0.58062336724E+03  0.17185291000E+03 0.  0.
        -24    2    5    5    0    0 -0.77920550635E+01  0.98759990001E+02 -0.25746045437E+03  0.28674420468E+03  0.78243859870E+02 0.  0.
          5    1    3    3  502    0 -0.30196102022E+02  0.20043219741E+01 -0.41881669537E+02  0.51884353394E+02  0.47000000000E+01 0. -1.
        -13    1    4    4    0    0 -0.69528213741E+02 -0.10365533263E+03 -0.88712667644E+03  0.89586401901E+03  0.00000000000E+00 0.  1.
         14    1    4    4    0    0  0.10148970473E+02 -0.19186316128E+02 -0.42719510459E+03  0.42774615569E+03  0.00000000000E+00 0. -1.
         -5    1    5    5    0  501  0.97367400354E+02  0.22077336783E+02 -0.27636036753E+03  0.29387916257E+03  0.47000000000E+01 0.  1.
         13    1    6    6    0    0  0.28937394549E+02  0.47499357092E+02 -0.72816572647E+02  0.91628679896E+02  0.00000000000E+00 0. -1.
        -14    1    6    6    0    0 -0.36729449612E+02  0.51260632909E+02 -0.18464388172E+03  0.19511552478E+03  0.00000000000E+00 0.  1.
</event>
<event>
12    1  0.2625820E-002  0.1800718E+03  0.7818608E-02  0.1167734E+00
          1   -1    0    0  502    0  0.00000000000E+00  0.00000000000E+00  0.13410929219E+03  0.13410929219E+03  0.00000000000E+00 0. -1.
         -1   -1    0    0    0  501 -0.00000000000E+00 -0.00000000000E+00 -0.24300755020E+03  0.24300755020E+03  0.00000000000E+00 0.  1.
          6    2    1    2  502    0 -0.55076889874E+02 -0.42289613092E+01 -0.41016790418E+02  0.18445862457E+03  0.17114689354E+03 0.  0.
         24    2    3    3    0    0 -0.67369301728E+02 -0.36864203461E+02 -0.76460225990E+02  0.13451375952E+03  0.79688098422E+02 0.  0.
         -6    2    1    2    0  501  0.55076889874E+02  0.42289613092E+01 -0.67881467587E+02  0.19265821782E+03  0.17163317668E+03 0.  0.
        -24    2    5    5    0    0 -0.26513963576E+02 -0.29570905260E+02 -0.14820142350E+02  0.89521936216E+02  0.78848663540E+02 0.  0.
          5    1    3    3  502    0  0.12292411854E+02  0.32635242151E+02  0.35443435572E+02  0.49944865048E+02  0.47000000000E+01 0. -1.
        -11    1    4    4    0    0 -0.76539212030E+02 -0.50992891112E+02 -0.54740554655E+02  0.10702828713E+03  0.00000000000E+00 0.  1.
         12    1    4    4    0    0  0.91699103019E+01  0.14128687651E+02 -0.21719671335E+02  0.27485472391E+02  0.00000000000E+00 0. -1.
         -5    1    5    5    0  501  0.81590853450E+02  0.33799866569E+02 -0.53061325236E+02  0.10313628160E+03  0.47000000000E+01 0.  1.
         13    1    6    6    0    0  0.25111582521E+02 -0.17782580372E+02 -0.19391108657E+02  0.36370686498E+02  0.00000000000E+00 0. -1.
        -14    1    6    6    0    0 -0.51625546097E+02 -0.11788324888E+02  0.45709663067E+01  0.53151249717E+02  0.00000000000E+00 0.  1.
</event>
<event>
12    1  0.2625820E-002  0.1781262E+03  0.7818608E-02  0.1169629E+00
          2   -1    0    0  502    0  0.00000000000E+00  0.00000000000E+00  0.29846316057E+04  0.29846316057E+04  0.00000000000E+00 0.  1.
         -2   -1    0    0    0  501 -0.00000000000E+00 -0.00000000000E+00 -0.54354457184E+02  0.54354457184E+02  0.00000000000E+00 0. -1.
          6    2    1    2  502    0 -0.42552086573E+02 -0.90641550462E+01  0.28268739741E+04  0.28324382418E+04  0.17203804575E+03 0.  0.
         24    2    3    3    0    0 -0.36907821700E+02 -0.29336535338E+02  0.27710768933E+04  0.27726199223E+04  0.79569246587E+02 0.  0.
         -6    2    1    2    0  501  0.42552086573E+02  0.90641550462E+01  0.10340317441E+03  0.20654782108E+03  0.17342706518E+03 0.  0.
        -24    2    5    5    0    0  0.15755516449E+02 -0.62205782328E+02  0.47859156271E+02  0.11218316618E+03  0.78592418726E+02 0.  0.
          5    1    3    3  502    0 -0.56442648736E+01  0.20272380292E+02  0.55797080717E+02  0.59818319478E+02  0.47000000000E+01 0. -1.
        -11    1    4    4    0    0 -0.58653991867E+02 -0.71194636792E+01  0.20882266516E+04  0.20890623557E+04  0.00000000000E+00 0.  1.
         12    1    4    4    0    0  0.21746170167E+02 -0.22217071659E+02  0.68285024172E+03  0.68355756656E+03  0.00000000000E+00 0. -1.
         -5    1    5    5    0  501  0.26796570125E+02  0.71269937374E+02  0.55544018144E+02  0.94364654905E+02  0.47000000000E+01 0.  1.
         13    1    6    6    0    0 -0.29757837055E+02 -0.11675864443E+02  0.66010027987E+01  0.32640893288E+02  0.00000000000E+00 0. -1.
        -14    1    6    6    0    0  0.45513353504E+02 -0.50529917886E+02  0.41258153472E+02  0.79542272891E+02  0.00000000000E+00 0.  1.
</event>
<event>
12    1  0.2625820E-002  0.2676920E+03  0.7818608E-02  0.1102608E+00
         -1   -1    0    0    0  501 -0.00000000000E+00  0.00000000000E+00  0.26276602608E+03  0.26276602608E+03  0.00000000000E+00 0. -1.
          1   -1    0    0  502    0  0.00000000000E+00 -0.00000000000E+00 -0.29764817531E+03  0.29764817531E+03  0.00000000000E+00 0.  1.
          6    2    1    2  502    0 -0.46500187464E+02 -0.19610597568E+03  0.63795474033E+02  0.27152501091E+03  0.17039996452E+03 0.  0.
         24    2    3    3    0    0 -0.75874111435E+02 -0.12234917510E+03 -0.11840114593E+02  0.16177199132E+03  0.72827106411E+02 0.  0.
         -6    2    1    2    0  501  0.46500187464E+02  0.19610597568E+03 -0.98677623262E+02  0.28888919048E+03  0.18193369647E+03 0.  0.
        -24    2    5    5    0    0  0.56953948905E+02  0.22744982852E+02 -0.39651053961E+02  0.10539657252E+03  0.75994373989E+02 0.  0.
          5    1    3    3  502    0  0.29373923971E+02 -0.73756800586E+02  0.75635588625E+02  0.10975301959E+03  0.47000000000E+01 0. -1.
        -13    1    4    4    0    0 -0.52512686940E+02 -0.42141423043E+02  0.23149869865E+02  0.71199707166E+02  0.00000000000E+00 0.  1.
         14    1    4    4    0    0 -0.23361424494E+02 -0.80207752055E+02 -0.34989984457E+02  0.90572284151E+02  0.00000000000E+00 0. -1.
         -5    1    5    5    0  501 -0.10453761441E+02  0.17336099283E+03 -0.59026569301E+02  0.18349261796E+03  0.47000000000E+01 0.  1.
         11    1    6    6    0    0  0.40891045896E+02  0.47573300486E+01  0.16450002552E+02  0.44331844171E+02  0.00000000000E+00 0. -1.
        -12    1    6    6    0    0  0.16062903009E+02  0.17987652804E+02 -0.56101056513E+02  0.61064728349E+02  0.00000000000E+00 0.  1.
</event>
<event>
12    1  0.2625820E-002  0.1837777E+03  0.7818608E-02  0.1164196E+00
          1   -1    0    0  502    0  0.00000000000E+00  0.00000000000E+00  0.46762591504E+03  0.46762591504E+03  0.00000000000E+00 0.  1.
         -1   -1    0    0    0  501 -0.00000000000E+00 -0.00000000000E+00 -0.11639476802E+03  0.11639476802E+03  0.00000000000E+00 0. -1.
          6    2    1    2  502    0  0.61228946195E+02  0.21528921761E+02  0.35566759886E+03  0.40047195560E+03  0.17223782401E+03 0.  0.
         24    2    3    3    0    0  0.16996775591E+01  0.67350561655E+02  0.23848471661E+03  0.26119785751E+03  0.82524988038E+02 0.  0.
         -6    2    1    2    0  501 -0.61228946195E+02 -0.21528921761E+02 -0.44364518412E+01  0.18354872746E+03  0.17163325704E+03 0.  0.
        -24    2    5    5    0    0 -0.86437858643E+02  0.42253836637E+01  0.42692386020E+02  0.12403410007E+03  0.77925996196E+02 0.  0.
          5    1    3    3  502    0  0.59529268636E+02 -0.45821639894E+02  0.11718288225E+03  0.13927409810E+03  0.47000000000E+01 0. -1.
        -13    1    4    4    0    0 -0.30939757980E+02  0.24055577192E+02  0.16665859812E+03  0.17120463705E+03  0.00000000000E+00 0.  1.
         14    1    4    4    0    0  0.32639435539E+02  0.43294984463E+02  0.71826118488E+02  0.89993220461E+02  0.00000000000E+00 0. -1.
         -5    1    5    5    0  501  0.25208912447E+02 -0.25754305424E+02 -0.47128837861E+02  0.59514627385E+02  0.47000000000E+01 0.  1.
         11    1    6    6    0    0 -0.15230449471E+02 -0.25572071466E+02 -0.90457247457E+01  0.31108239525E+02  0.00000000000E+00 0. -1.
        -12    1    6    6    0    0 -0.71207409171E+02  0.29797455130E+02  0.51738110766E+02  0.92925860549E+02  0.00000000000E+00 0.  1.
</event>
<event>
12    1  0.2625820E-002  0.2782224E+03  0.7818608E-02  0.1096664E+00
          1   -1    0    0  502    0  0.00000000000E+00  0.00000000000E+00  0.40701363265E+03  0.40701363265E+03  0.00000000000E+00 0. -1.
         -1   -1    0    0    0  501 -0.00000000000E+00 -0.00000000000E+00 -0.20570174195E+03  0.20570174195E+03  0.00000000000E+00 0.  1.
          6    2    1    2  502    0 -0.15605446712E+03 -0.15366412371E+03  0.18534414430E+03  0.33571987577E+03  0.17432648546E+03 0.  0.
         24    2    3    3    0    0 -0.13705947567E+03 -0.58959047105E+02  0.66624072707E+02  0.18259768066E+03  0.81496483439E+02 0.  0.
         -6    2    1    2    0  501  0.15605446712E+03  0.15366412371E+03  0.15967746396E+02  0.27699549884E+03  0.16883683789E+03 0.  0.
        -24    2    5    5    0    0  0.13021336846E+03  0.13678132035E+03 -0.42591320287E+02  0.21063251428E+03  0.82990268006E+02 0.  0.
          5    1    3    3  502    0 -0.18994991455E+02 -0.94705076604E+02  0.11872007159E+03  0.15312219511E+03  0.47000000000E+01 0. -1.
        -13    1    4    4    0    0 -0.29539189647E+02 -0.52141362423E+02  0.38577492923E+02  0.71270669707E+02  0.00000000000E+00 0.  1.
         14    1    4    4    0    0 -0.10752028602E+03 -0.68176846824E+01  0.28046579784E+02  0.11132701095E+03  0.00000000000E+00 0. -1.
         -5    1    5    5    0  501  0.25841098656E+02  0.16882803362E+02  0.58559066683E+02  0.66362984561E+02  0.47000000000E+01 0.  1.
         11    1    6    6    0    0  0.90126731746E+02  0.79411059289E+02  0.13587411585E+02  0.12088656611E+03  0.00000000000E+00 0. -1.
        -12    1    6    6    0    0  0.40086636719E+02  0.57370261058E+02 -0.56178731872E+02  0.89745948165E+02  0.00000000000E+00 0.  1.
</event>
<event>
12    1  0.2625820E-002  0.1730914E+03  0.7818608E-02  0.1174662E+00
          2   -1    0    0  502    0  0.00000000000E+00  0.00000000000E+00  0.13753890033E+03  0.13753890033E+03  0.00000000000E+00 0. -1.
         -2   -1    0    0    0  501 -0.00000000000E+00 -0.00000000000E+00 -0.22472295301E+03  0.22472295301E+03  0.00000000000E+00 0.  1.
          6    2    1    2  502    0 -0.69494758936E+01 -0.43241426649E+01 -0.75125660504E+02  0.18804878449E+03  0.17219607155E+03 0.  0.
         24    2    3    3    0    0 -0.55299391852E+02 -0.18222554333E+02 -0.76479949668E+02  0.13750371234E+03  0.98326008664E+02 0.  0.
         -6    2    1    2    0  501  0.69494758936E+01  0.43241426649E+01 -0.12058392177E+02  0.17421306885E+03  0.17360240526E+03 0.  0.
        -24    2    5    5    0    0 -0.62037906598E+02  0.16493040724E+02 -0.14184669891E+02  0.10397097264E+03  0.80548346008E+02 0.  0.
          5    1    3    3  502    0  0.48349915959E+02  0.13898411668E+02  0.13542891644E+01  0.50545072156E+02  0.47000000000E+01 0. -1.
        -11    1    4    4    0    0  0.81050501387E+01 -0.15468752297E+02 -0.71770948971E+02  0.73865034025E+02  0.00000000000E+00 0.  1.
         12    1    4    4    0    0 -0.63404441991E+02 -0.27538020359E+01 -0.47090006974E+01  0.63638678313E+02  0.00000000000E+00 0. -1.
         -5    1    5    5    0  501  0.68987382491E+02 -0.12168898059E+02  0.21262777148E+01  0.70242096209E+02  0.47000000000E+01 0.  1.
         13    1    6    6    0    0 -0.80139144178E+00  0.32845298651E+02  0.12564292219E+02  0.35175521470E+02  0.00000000000E+00 0. -1.
        -14    1    6    6    0    0 -0.61236515156E+02 -0.16352257927E+02 -0.26748962111E+02  0.68795451171E+02  0.00000000000E+00 0.  1.
</event>
<event>
12    1  0.2625820E-002  0.1809311E+03  0.7818608E-02  0.1166905E+00
          1   -1    0    0  502    0  0.00000000000E+00  0.00000000000E+00  0.19332699520E+03  0.19332699520E+03  0.00000000000E+00 0. -1.
         -1   -1    0    0    0  501 -0.00000000000E+00 -0.00000000000E+00 -0.19990452586E+03  0.19990452586E+03  0.00000000000E+00 0.  1.
          6    2    1    2  502    0  0.44136235409E+02 -0.29271002537E+02 -0.80180912202E+02  0.19983586505E+03  0.17521585377E+03 0.  0.
         24    2    3    3    0    0 -0.99804204085E+01  0.17117111779E+02 -0.96132955979E+02  0.12664414907E+03  0.80028688371E+02 0.  0.
         -6    2    1    2    0  501 -0.44136235409E+02  0.29271002537E+02  0.73603381543E+02  0.19339565602E+03  0.17082044118E+03 0.  0.
        -24    2    5    5    0    0 -0.37467095133E+02  0.61307647925E+02 -0.29060335677E+01  0.11004936228E+03  0.83306699576E+02 0.  0.
          5    1    3    3  502    0  0.54116655818E+02 -0.46388114316E+02  0.15952043777E+02  0.73191715975E+02  0.47000000000E+01 0. -1.
        -13    1    4    4    0    0  0.20908526972E+02 -0.22817838051E+02 -0.46412542950E+02  0.55784804173E+02  0.00000000000E+00 0.  1.
         14    1    4    4    0    0 -0.30888947381E+02  0.39934949830E+02 -0.49720413028E+02  0.70859344902E+02  0.00000000000E+00 0. -1.
         -5    1    5    5    0  501 -0.66691402764E+01 -0.32036645388E+02  0.76509415111E+02  0.83346293741E+02  0.47000000000E+01 0.  1.
         11    1    6    6    0    0 -0.24285331369E+01  0.37907310982E+02  0.36267227543E+02  0.52518318639E+02  0.00000000000E+00 0. -1.
        -12    1    6    6    0    0 -0.35038561996E+02  0.23400336943E+02 -0.39173261110E+02  0.57531043636E+02  0.00000000000E+00 0.  1.
</event>
<event>
12    1  0.2625820E-002  0.2352870E+03  0.7818608E-02  0.1122973E+00
          1   -1    0    0  502    0  0.00000000000E+00  0.00000000000E+00  0.10294484697E+03  0.10294484697E+03  0.00000000000E+00 0.  1.
         -1   -1    0    0    0  501 -0.00000000000E+00 -0.00000000000E+00 -0.10289940568E+04  0.10289940568E+04  0.00000000000E+00 0. -1.
          6    2    1    2  502    0  0.15543092715E+03  0.34862882020E+02 -0.85351287433E+03  0.88520606650E+03  0.17242783955E+03 0.  0.
         24    2    3    3    0    0  0.11645416604E+03  0.19503403511E+02 -0.32339994285E+03  0.35341953826E+03  0.79849179413E+02 0.  0.
         -6    2    1    2    0  501 -0.15543092715E+03 -0.34862882020E+02 -0.72536335494E+02  0.24673283726E+03  0.17390048694E+03 0.  0.
        -24    2    5    5    0    0 -0.17688728087E+02  0.22857642047E+02 -0.44113695204E+02  0.94632512535E+02  0.78574368739E+02 0.  0.
          5    1    3    3  502    0  0.38976761113E+02  0.15359478510E+02 -0.53011293149E+03  0.53178652824E+03  0.47000000000E+01 0. -1.
        -13    1    4    4    0    0 -0.60660341122E+01 -0.11358673453E+02 -0.58907961202E+02  0.60298956255E+02  0.00000000000E+00 0.  1.
         14    1    4    4    0    0  0.12252020015E+03  0.30862076964E+02 -0.26449198164E+03  0.29312058200E+03  0.00000000000E+00 0. -1.
         -5    1    5    5    0  501 -0.13774219906E+03 -0.57720524068E+02 -0.28422640290E+02  0.15210032473E+03  0.47000000000E+01 0.  1.
         11    1    6    6    0    0  0.63293379232E+01 -0.27032763319E+02 -0.95545357803E+01  0.29361879456E+02  0.00000000000E+00 0. -1.
        -12    1    6    6    0    0 -0.24018066011E+02  0.49890405366E+02 -0.34559159424E+02  0.65270633079E+02  0.00000000000E+00 0.  1.
</event>
<event>
12    1  0.2625820E-002  0.2084302E+03  0.7818608E-02  0.1142815E+00
          2   -1    0    0  502    0  0.00000000000E+00  0.00000000000E+00  0.17785539771E+03  0.17785539771E+03  0.00000000000E+00 0. -1.
         -2   -1    0    0    0  501 -0.00000000000E+00 -0.00000000000E+00 -0.25944722902E+03  0.25944722902E+03  0.00000000000E+00 0.  1.
          6    2    1    2  502    0 -0.68785889644E+02  0.96662603845E+02 -0.93774816313E+02  0.22895802437E+03  0.17190957841E+03 0.  0.
         24    2    3    3    0    0  0.26941682369E+02  0.26188977199E+02 -0.53523816924E+02  0.10336927866E+03  0.80054306673E+02 0.  0.
         -6    2    1    2    0  501  0.68785889644E+02 -0.96662603845E+02  0.12182985000E+02  0.20834460237E+03  0.17083293188E+03 0.  0.
        -24    2    5    5    0    0  0.31027992083E+02 -0.64224206900E+02  0.72075802682E+02  0.13032442527E+03  0.81866045740E+02 0.  0.
          5    1    3    3  502    0 -0.95727572013E+02  0.70473626645E+02 -0.40250999389E+02  0.12558874571E+03  0.47000000000E+01 0. -1.
        -11    1    4    4    0    0  0.15884371935E+02  0.31278972741E+02 -0.72662331177E+02  0.80687680469E+02  0.00000000000E+00 0.  1.
         12    1    4    4    0    0  0.11057310434E+02 -0.50899955413E+01  0.19138514253E+02  0.22681598190E+02  0.00000000000E+00 0. -1.
         -5    1    5    5    0  501  0.37757897561E+02 -0.32438396944E+02 -0.59892817682E+02  0.78020177098E+02  0.47000000000E+01 0.  1.
         13    1    6    6    0    0  0.52067955495E+02 -0.34697140418E+02  0.70174470830E+02  0.94018189191E+02  0.00000000000E+00 0. -1.
        -14    1    6    6    0    0 -0.21039963412E+02 -0.29527066482E+02  0.19013318522E+01  0.36306236079E+02  0.00000000000E+00 0.  1.
</event>
<event>
12    1  0.2625820E-002  0.1730361E+03  0.7818608E-02  0.1174718E+00
          1   -1    0    0  502    0  0.00000000000E+00  0.00000000000E+00  0.19443804096E+04  0.19443804096E+04  0.00000000000E+00 0. -1.
         -1   -1    0    0    0  501 -0.00000000000E+00 -0.00000000000E+00 -0.27109264661E+02  0.27109264661E+02  0.00000000000E+00 0.  1.
          6    2    1    2  502    0 -0.15951447055E+02  0.36656716708E+02  0.30298321639E+03  0.34768259857E+03  0.16578961484E+03 0.  0.
         24    2    3    3    0    0 -0.73200768133E+02  0.32869998597E+02  0.21220702963E+03  0.24019199395E+03  0.78877000895E+02 0.  0.
         -6    2    1    2    0  501  0.15951447055E+02 -0.36656716708E+02  0.16142879286E+04  0.16238070757E+04  0.17095537219E+03 0.  0.
        -24    2    5    5    0    0  0.26059714550E+02 -0.82347776261E+02  0.84974185199E+03  0.85781579430E+03  0.79539027838E+02 0.  0.
          5    1    3    3  502    0  0.57249321077E+02  0.37867181117E+01  0.90776186763E+02  0.10749060462E+03  0.47000000000E+01 0. -1.
        -11    1    4    4    0    0 -0.26356424026E+02  0.28705655017E+02  0.23050770540E+02  0.45277077422E+02  0.00000000000E+00 0.  1.
         12    1    4    4    0    0 -0.46844344106E+02  0.41643435802E+01  0.18915625909E+03  0.19491491653E+03  0.00000000000E+00 0. -1.
         -5    1    5    5    0  501 -0.10108267494E+02  0.45691059553E+02  0.76454607657E+03  0.76599128140E+03  0.47000000000E+01 0.  1.
         13    1    6    6    0    0 -0.26556448724E+02 -0.43441358180E+02  0.42993742658E+03  0.43294178286E+03  0.00000000000E+00 0. -1.
        -14    1    6    6    0    0  0.52616163274E+02 -0.38906418081E+02  0.41980442541E+03  0.42487401144E+03  0.00000000000E+00 0.  1.
</event>
<event>
12    1  0.2625820E-002  0.5742334E+03  0.7818608E-02  0.9960354E-01
          1   -1    0    0  502    0  0.00000000000E+00  0.00000000000E+00  0.14658504439E+04  0.14658504439E+04  0.00000000000E+00 0.  1.
         -1   -1    0    0    0  501 -0.00000000000E+00 -0.00000000000E+00 -0.23779360746E+03  0.23779360746E+03  0.00000000000E+00 0. -1.
          6    2    1    2  502    0  0.42513933133E+03  0.34650596831E+03  0.41568158065E+03  0.70858826378E+03  0.16880851271E+03 0.  0.
         24    2    3    3    0    0  0.33540729875E+03  0.19085253955E+03  0.25433473934E+03  0.46706244579E+03  0.67367801864E+02 0.  0.
         -6    2    1    2    0  501 -0.42513933133E+03 -0.34650596831E+03  0.81237525584E+03  0.99505578762E+03  0.17138444230E+03 0.  0.
        -24    2    5    5    0    0 -0.26970059337E+03 -0.18394775293E+03  0.58948495868E+03  0.67837211388E+03  0.78236963848E+02 0.  0.
          5    1    3    3  502    0  0.89732032583E+02  0.15565342876E+03  0.16134684131E+03  0.24152581799E+03  0.47000000000E+01 0. -1.
        -13    1    4    4    0    0  0.97065398270E+02  0.21666608051E+02  0.65160172578E+02  0.11889903926E+03  0.00000000000E+00 0.  1.
         14    1    4    4    0    0  0.23834190048E+03  0.16918593150E+03  0.18917456676E+03  0.34816340653E+03  0.00000000000E+00 0. -1.
         -5    1    5    5    0  501 -0.15543873796E+03 -0.16255821538E+03  0.22289029716E+03  0.31668367374E+03  0.47000000000E+01 0.  1.
         13    1    6    6    0    0 -0.12994015025E+02 -0.11054335712E+02  0.63700053400E+01  0.18210429224E+02  0.00000000000E+00 0. -1.
        -14    1    6    6    0    0 -0.25670657835E+03 -0.17289341722E+03  0.58311495334E+03  0.66016168466E+03  0.00000000000E+00 0.  1.
</event>
<event>
12    1  0.2625820E-002  0.1789432E+03  0.7818608E-02  0.1168830E+00
          1   -1    0    0  502    0  0.00000000000E+00  0.00000000000E+00  0.12972501038E+04  0.12972501038E+04  0.00000000000E+00 0. -1.
         -1   -1    0    0    0  501 -0.00000000000E+00 -0.00000000000E+00 -0.27216206009E+02  0.27216206009E+02  0.00000000000E+00 0.  1.
          6    2    1    2  502    0 -0.11478666106E+02  0.45150762567E+02  0.83171873154E+03  0.85041210743E+03  0.17109749537E+03 0.  0.
         24    2    3    3    0    0 -0.29781602314E+02  0.61507926970E+02  0.81122978442E+03  0.81809429105E+03  0.80711442841E+02 0.  0.
         -6    2    1    2    0  501  0.11478666106E+02 -0.45150762567E+02  0.43831516623E+03  0.47405420237E+03  0.17446160235E+03 0.  0.
        -24    2    5    5    0    0  0.22680577275E+02 -0.98250695163E+02  0.31108911045E+03  0.33565750831E+03  0.75643377500E+02 0.  0.
          5    1    3    3  502    0  0.18302936208E+02 -0.16357164403E+02  0.20488947129E+02  0.32317816380E+02  0.47000000000E+01 0. -1.
        -11    1    4    4    0    0 -0.16157447683E+01  0.17025648406E+02  0.26117853896E+02  0.31218994650E+02  0.00000000000E+00 0.  1.
         12    1    4    4    0    0 -0.28165857546E+02  0.44482278564E+02  0.78511193052E+03  0.78687529640E+03  0.00000000000E+00 0. -1.
         -5    1    5    5    0  501 -0.11201911170E+02  0.53099932596E+02  0.12722605578E+03  0.13839669405E+03  0.47000000000E+01 0.  1.
         11    1    6    6    0    0  0.43840451812E+02 -0.90301528514E+02  0.27814720037E+03  0.29570630082E+03  0.00000000000E+00 0. -1.
        -12    1    6    6    0    0 -0.21159874536E+02 -0.79491666492E+01  0.32941910080E+02  0.39951207498E+02  0.00000000000E+00 0.  1.
</event>
<event>
12    1  0.2625820E-002  0.2054241E+03  0.7818608E-02  0.1145242E+00
         -2   -1    0    0    0  501 -0.00000000000E+00  0.00000000000E+00  0.76200026652E+02  0.76200026652E+02  0.00000000000E+00 0. -1.
          2   -1    0    0  502    0  0.00000000000E+00 -0.00000000000E+00 -0.82380113064E+03  0.82380113064E+03  0.00000000000E+00 0.  1.
          6    2    1    2  502    0  0.10064176370E+03 -0.51704906719E+02 -0.11659139914E+03  0.23650079904E+03  0.17186306064E+03 0.  0.
         24    2    3    3    0    0  0.13153395809E+03 -0.14710223127E+02 -0.10301347719E+03  0.18620781491E+03  0.80895000193E+02 0.  0.
         -6    2    1    2    0  501 -0.10064176370E+03  0.51704906719E+02 -0.63100970485E+03  0.66350035825E+03  0.17104770038E+03 0.  0.
        -24    2    5    5    0    0  0.73471678498E+01  0.44724498204E+02 -0.36704506022E+03  0.37817640368E+03  0.79000344609E+02 0.  0.
          5    1    3    3  502    0 -0.30892194388E+02 -0.36994683592E+02 -0.13577921951E+02  0.50292984130E+02  0.47000000000E+01 0. -1.
        -11    1    4    4    0    0  0.32724922964E+02 -0.15469459175E+02 -0.75355087680E+02  0.83597930533E+02  0.00000000000E+00 0.  1.
         12    1    4    4    0    0  0.98809035128E+02  0.75923604774E+00 -0.27658389511E+02  0.10260988438E+03  0.00000000000E+00 0. -1.
         -5    1    5    5    0  501 -0.10798893155E+03  0.69804085145E+01 -0.26396464462E+03  0.28532395457E+03  0.47000000000E+01 0.  1.
         11    1    6    6    0    0 -0.20508260794E+02  0.99334024696E-01 -0.26083236109E+02  0.33180322994E+02  0.00000000000E+00 0. -1.
        -12    1    6    6    0    0  0.27855428644E+02  0.44625164180E+02 -0.34096182412E+03  0.34499608068E+03  0.00000000000E+00 0.  1.
</event>
<event>
12    1  0.2625820E-002  0.1727218E+03  0.7818608E-02  0.1175039E+00
          1   -1    0    0  502    0  0.00000000000E+00  0.00000000000E+00  0.39912012875E+03  0.39912012875E+03  0.00000000000E+00 0. -1.
         -1   -1    0    0    0  501 -0.00000000000E+00 -0.00000000000E+00 -0.11186992491E+03  0.11186992491E+03  0.00000000000E+00 0.  1.
          6    2    1    2  502    0 -0.12820692988E+02 -0.92717713138E+01 -0.46172779973E+01  0.17083850419E+03  0.17004158122E+03 0.  0.
         24    2    3    3    0    0 -0.36124402818E+02 -0.22889713907E+02  0.49127717524E+02  0.11051333700E+03  0.89279076746E+02 0.  0.
         -6    2    1    2    0  501  0.12820692988E+02  0.92717713138E+01  0.29186748183E+03  0.34015154948E+03  0.17397158891E+03 0.  0.
        -24    2    5    5    0    0 -0.26305318027E+02 -0.65608711947E+01  0.57949185376E+02  0.10240930097E+03  0.79965880555E+02 0.  0.
          5    1    3    3  502    0  0.23303709830E+02  0.13617942593E+02 -0.53744995521E+02  0.60325167185E+02  0.47000000000E+01 0. -1.
        -13    1    4    4    0    0 -0.15246318650E+01  0.32681885233E+02  0.98348561530E+01  0.34163643252E+02  0.00000000000E+00 0.  1.
         14    1    4    4    0    0 -0.34599770953E+02 -0.55571599140E+02  0.39292861371E+02  0.76349693750E+02  0.00000000000E+00 0. -1.
         -5    1    5    5    0  501  0.39126011015E+02  0.15832642508E+02  0.23391829646E+03  0.23774224851E+03  0.47000000000E+01 0.  1.
         11    1    6    6    0    0 -0.17660745371E+01 -0.27428836513E+02  0.63982768077E+02  0.69636590256E+02  0.00000000000E+00 0. -1.
        -12    1    6    6    0    0 -0.24539243490E+02  0.20867965319E+02 -0.60335827005E+01  0.32772710718E+02  0.00000000000E+00 0.  1.
</event>
<event>
12    1  0.2625820E-002  0.1831721E+03  0.7818608E-02  0.1164768E+00
          1   -1    0    0  502    0  0.00000000000E+00  0.00000000000E+00  0.92301513665E+03  0.92301513665E+03  0.00000000000E+00 0.  1.
         -1   -1    0    0    0  501 -0.00000000000E+00 -0.00000000000E+00 -0.41056722725E+02  0.41056722725E+02  0.00000000000E+00 0. -1.
          6    2    1    2  502    0 -0.62745825715E+02  0.23777064622E+01  0.28013963988E+03  0.33531234414E+03  0.17324392678E+03 0.  0.
         24    2    3    3    0    0 -0.15473154075E+02  0.62744102814E+02  0.19869115159E+03  0.22335363060E+03  0.78945738619E+02 0.  0.
         -6    2    1    2    0  501  0.62745825715E+02 -0.23777064622E+01  0.60181877404E+03  0.62875951524E+03  0.17090932999E+03 0.  0.
        -24    2    5    5    0    0  0.40993350820E+02  0.65494731109E+02  0.38810185094E+03  0.40342232086E+03  0.78463416036E+02 0.  0.
          5    1    3    3  502    0 -0.47272671641E+02 -0.60366396352E+02  0.81448488290E+02  0.11195871354E+03  0.47000000000E+01 0. -1.
        -13    1    4    4    0    0  0.29324009749E+02  0.63840078722E+01  0.60341663304E+02  0.67392651191E+02  0.00000000000E+00 0.  1.
         14    1    4    4    0    0 -0.44797163824E+02  0.56360094942E+02  0.13834948829E+03  0.15596097941E+03  0.00000000000E+00 0. -1.
         -5    1    5    5    0  501  0.21752474895E+02 -0.67872437571E+02  0.21371692311E+03  0.22533719437E+03  0.47000000000E+01 0.  1.
         11    1    6    6    0    0 -0.76486339691E+01 -0.75368970677E+00  0.10695817965E+01  0.77597458068E+01  0.00000000000E+00 0. -1.
        -12    1    6    6    0    0  0.48641984789E+02  0.66248420816E+02  0.38703226914E+03  0.39566257506E+03  0.00000000000E+00 0.  1.
</event>
<event>
12    1  0.2625820E-002  0.1742321E+03  0.7818608E-02  0.1173505E+00
          2   -1    0    0  502    0  0.00000000000E+00  0.00000000000E+00  0.18464483302E+04  0.18464483302E+04  0.00000000000E+00 0.  1.
         -2   -1    0    0    0  501 -0.00000000000E+00 -0.00000000000E+00 -0.16448112007E+02  0.16448112007E+02  0.00000000000E+00 0. -1.
          6    2    1    2  502    0 -0.18320528337E+02  0.99714229938E+01  0.89597846974E+03  0.91279075243E+03  0.17313136181E+03 0.  0.
         24    2    3    3    0    0 -0.77338270769E+01 -0.42766671030E+02  0.28455388671E+03  0.29898663421E+03  0.80828786721E+02 0.  0.
         -6    2    1    2    0  501  0.18320528337E+02 -0.99714229938E+01  0.93402174846E+03  0.95010568978E+03  0.17282686173E+03 0.  0.
        -24    2    5    5    0    0 -0.37024576516E+02 -0.48263525088E+02  0.67730857738E+03  0.68467564642E+03  0.79584198763E+02 0.  0.
          5    1    3    3  502    0 -0.10586701260E+02  0.52738094024E+02  0.61142458303E+03  0.61380411822E+03  0.47000000000E+01 0. -1.
        -11    1    4    4    0    0 -0.43573073406E+02 -0.24949370720E+02  0.18488820868E+03  0.19158479463E+03  0.00000000000E+00 0.  1.
         12    1    4    4    0    0  0.35839246329E+02 -0.17817300311E+02  0.99665678033E+02  0.10740183958E+03  0.00000000000E+00 0. -1.
         -5    1    5    5    0  501  0.55345104853E+02  0.38292102094E+02  0.25671317108E+03  0.26543004336E+03  0.47000000000E+01 0.  1.
         13    1    6    6    0    0 -0.29040127318E+02  0.77732438119E+01  0.95494165544E+02  0.10011437443E+03  0.00000000000E+00 0. -1.
        -14    1    6    6    0    0 -0.79844491972E+01 -0.56036768900E+02  0.58181441184E+03  0.58456127200E+03  0.00000000000E+00 0.  1.
</event>
<event>
12    1  0.2625820E-002  0.3721404E+03  0.7818608E-02  0.1053878E+00
          2   -1    0    0  502    0  0.00000000000E+00  0.00000000000E+00  0.90011215549E+03  0.90011215549E+03  0.00000000000E+00 0.  1.
         -2   -1    0    0    0  501 -0.00000000000E+00 -0.00000000000E+00 -0.28592939570E+03  0.28592939570E+03  0.00000000000E+00 0. -1.
          6    2    1    2  502    0 -0.43793792699E+02  0.32876573795E+03 -0.96013923616E+02  0.38418131467E+03  0.16843931335E+03 0.  0.
         24    2    3    3    0    0 -0.54951870999E+02  0.24206215710E+03 -0.12512725177E+03  0.29192249655E+03  0.89152222805E+02 0.  0.
         -6    2    1    2    0  501  0.43793792699E+02 -0.32876573795E+03  0.71019668341E+03  0.80186023652E+03  0.16910264059E+03 0.  0.
        -24    2    5    5    0    0 -0.12660931609E+02 -0.23761907638E+03  0.58729825521E+03  0.63870091725E+03  0.79978099939E+02 0.  0.
          5    1    3    3  502    0  0.11158078300E+02  0.86703580852E+02  0.29113328157E+02  0.92258818116E+02  0.47000000000E+01 0. -1.
        -13    1    4    4    0    0 -0.59060777953E+02  0.17227388550E+03 -0.49058291611E+02  0.18860854460E+03  0.00000000000E+00 0.  1.
         14    1    4    4    0    0  0.41089069540E+01  0.69788271595E+02 -0.76068960161E+02  0.10331395196E+03  0.00000000000E+00 0. -1.
         -5    1    5    5    0  501  0.56454724307E+02 -0.91146661567E+02  0.12289842820E+03  0.16315931927E+03  0.47000000000E+01 0.  1.
         13    1    6    6    0    0 -0.46271490142E+02 -0.13179283528E+03  0.34317757501E+03  0.37051484480E+03  0.00000000000E+00 0. -1.
        -14    1    6    6    0    0  0.33610558533E+02 -0.10582624110E+03  0.24412068020E+03  0.26818607244E+03  0.00000000000E+00 0.  1.
</event>
<event>
12    1  0.2625820E-002  0.1753915E+03  0.7818608E-02  0.1172339E+00
         -2   -1    0    0    0  501 -0.00000000000E+00  0.00000000000E+00  0.28624478114E+02  0.28624478114E+02  0.00000000000E+00 0. -1.
          2   -1    0    0  502    0  0.00000000000E+00 -0.00000000000E+00 -0.12777257077E+04  0.12777257077E+04  0.00000000000E+00 0.  1.
          6    2    1    2  502    0  0.12699917886E+02  0.32606320768E+02 -0.88513702478E+03  0.90236022746E+03  0.17193593976E+03 0.  0.
         24    2    3    3    0    0 -0.50074566739E+02  0.39532726983E+02 -0.42216259699E+03  0.43507442432E+03  0.83655230929E+02 0.  0.
         -6    2    1    2    0  501 -0.12699917886E+02 -0.32606320768E+02 -0.36396420476E+03  0.40398995832E+03  0.17179488935E+03 0.  0.
        -24    2    5    5    0    0 -0.67055697265E+02  0.11482118520E+02 -0.20951377607E+03  0.23435692453E+03  0.79992750473E+02 0.  0.
          5    1    3    3  502    0  0.62774484625E+02 -0.69264062147E+01 -0.46297442779E+03  0.46728580313E+03  0.47000000000E+01 0. -1.
        -11    1    4    4    0    0 -0.94398605155E-01  0.83140075359E+00 -0.27386806847E+03  0.27386934671E+03  0.00000000000E+00 0.  1.
         12    1    4    4    0    0 -0.49980168134E+02  0.38701326229E+02 -0.14829452852E+03  0.16120507761E+03  0.00000000000E+00 0. -1.
         -5    1    5    5    0  501  0.54355779379E+02 -0.44088439289E+02 -0.15445042869E+03  0.16963303379E+03  0.47000000000E+01 0.  1.
         13    1    6    6    0    0 -0.20291015762E+01  0.35552666852E+02 -0.74912660572E+02  0.82945862389E+02  0.00000000000E+00 0. -1.
        -14    1    6    6    0    0 -0.65026595689E+02 -0.24070548331E+02 -0.13460111550E+03  0.15141106214E+03  0.00000000000E+00 0.  1.
</event>
<event>
12    1  0.2625820E-002  0.2150054E+03  0.7818608E-02  0.1137662E+00
          2   -1    0    0  502    0  0.00000000000E+00  0.00000000000E+00  0.10602562084E+04  0.10602562084E+04  0.00000000000E+00 0. -1.
         -2   -1    0    0    0  501 -0.00000000000E+00 -0.00000000000E+00 -0.53950506545E+02  0.53950506545E+02  0.00000000000E+00 0.  1.
          6    2    1    2  502    0 -0.38152418984E+02  0.12626161417E+03  0.25552288901E+03  0.33270625158E+03  0.16734366061E+03 0.  0.
         24    2    3    3    0    0 -0.61823758695E+02  0.34453960823E+02  0.81815669178E+02  0.13475356592E+03  0.80345922425E+02 0.  0.
         -6    2    1    2    0  501  0.38152418984E+02 -0.12626161417E+03  0.75078281281E+03  0.78150046333E+03  0.17225138575E+03 0.  0.
        -24    2    5    5    0    0  0.60782565098E+02 -0.15198903660E+03  0.61373624574E+03  0.64015735128E+03  0.79586855696E+02 0.  0.
          5    1    3    3  502    0  0.23671339711E+02  0.91807653343E+02  0.17370721984E+03  0.19795268566E+03  0.47000000000E+01 0. -1.
        -11    1    4    4    0    0  0.78330451206E+01  0.49054500171E+01 -0.11411571587E+02  0.14684822158E+02  0.00000000000E+00 0.  1.
         12    1    4    4    0    0 -0.69656803816E+02  0.29548510806E+02  0.93227240765E+02  0.12006874376E+03  0.00000000000E+00 0. -1.
         -5    1    5    5    0  501 -0.22630146115E+02  0.25727422434E+02  0.13704656707E+03  0.14134311205E+03  0.47000000000E+01 0.  1.
         11    1    6    6    0    0 -0.10568977885E+02 -0.56767526055E+02  0.27870350185E+03  0.28462237658E+03  0.00000000000E+00 0. -1.
        -12    1    6    6    0    0  0.71351542984E+02 -0.95221510546E+02  0.33503274389E+03  0.35553497470E+03  0.00000000000E+00 0.  1.
</event>
<event>
12    1  0.2625820E-002  0.8105848E+03  0.7818608E-02  0.9544821E-01
          1   -1    0    0  502    0  0.00000000000E+00  0.00000000000E+00  0.23561635955E+04  0.23561635955E+04  0.00000000000E+00 0. -1.
         -1   -1    0    0    0  501 -0.00000000000E+00 -0.00000000000E+00 -0.44044493715E+03  0.44044493715E+03  0.00000000000E+00 0.  1.
          6    2    1    2  502    0 -0.41092632838E+03  0.67714639193E+03  0.11095662531E+03  0.81819086955E+03  0.17244489806E+03 0.  0.
         24    2    3    3    0    0 -0.38607054731E+03  0.66571256658E+03  0.12987988405E+03  0.78459441236E+03  0.80597263100E+02 0.  0.
         -6    2    1    2    0  501  0.41092632838E+03 -0.67714639193E+03  0.18047620330E+04  0.19784176631E+04  0.17199642529E+03 0.  0.
        -24    2    5    5    0    0  0.38917211673E+03 -0.65935344518E+03  0.17845416155E+04  0.19434778582E+04  0.79470157675E+02 0.  0.
          5    1    3    3  502    0 -0.24855781068E+02  0.11433825350E+02 -0.18923258747E+02  0.33596457198E+02  0.47000000000E+01 0. -1.
        -11    1    4    4    0    0 -0.10492325664E+03  0.12436903546E+03  0.44173682843E+02  0.16860563757E+03  0.00000000000E+00 0.  1.
         12    1    4    4    0    0 -0.28114729067E+03  0.54134353112E+03  0.85706201211E+02  0.61598877479E+03  0.00000000000E+00 0. -1.
         -5    1    5    5    0  501  0.21754211646E+02 -0.17792946752E+02  0.20220417586E+02  0.34939804891E+02  0.47000000000E+01 0.  1.
         11    1    6    6    0    0  0.30522909312E+03 -0.57041815222E+03  0.14741712759E+04  0.16098827965E+04  0.00000000000E+00 0. -1.
        -12    1    6    6    0    0  0.83943023606E+02 -0.88935292962E+02  0.31037033953E+03  0.33359506173E+03  0.00000000000E+00 0.  1.
</event>
<event>
12    1  0.2625820E-002  0.2258404E+03  0.7818608E-02  0.1129602E+00
         -2   -1    0    0    0  501 -0.00000000000E+00  0.00000000000E+00  0.14661567413E+03  0.14661567413E+03  0.00000000000E+00 0.  1.
          2   -1    0    0  502    0  0.00000000000E+00 -0.00000000000E+00 -0.49456588608E+03  0.49456588608E+03  0.00000000000E+00 0. -1.
          6    2    1    2  502    0  0.57497210830E+02  0.13454459073E+03  0.74848143244E+00  0.22561066812E+03  0.17173071128E+03 0.  0.
         24    2    3    3    0    0  0.93081969192E+02  0.67224841839E+02  0.33903362504E+02  0.14242677691E+03  0.77152553054E+02 0.  0.
         -6    2    1    2    0  501 -0.57497210830E+02 -0.13454459073E+03 -0.34869869338E+03  0.41557089209E+03  0.17233749284E+03 0.  0.
        -24    2    5    5    0    0 -0.87027480133E+02 -0.58005483944E+02 -0.27862814609E+03  0.30757902540E+03  0.77671066733E+02 0.  0.
          5    1    3    3  502    0 -0.35584758361E+02  0.67319748895E+02 -0.33154881071E+02  0.83183891215E+02  0.47000000000E+01 0. -1.
        -13    1    4    4    0    0 -0.57679704002E+01  0.31503146639E+02  0.12849501793E+00  0.32027086063E+02  0.00000000000E+00 0.  1.
         14    1    4    4    0    0  0.98849939592E+02  0.35721695200E+02  0.33774867486E+02  0.11039969085E+03  0.00000000000E+00 0. -1.
         -5    1    5    5    0  501  0.29530269303E+02 -0.76539106790E+02 -0.70070547293E+02  0.10799186669E+03  0.47000000000E+01 0.  1.
         13    1    6    6    0    0 -0.78277681461E+02 -0.14208505224E+02 -0.21954112494E+03  0.23351141852E+03  0.00000000000E+00 0. -1.
        -14    1    6    6    0    0 -0.87497986722E+01 -0.43796978721E+02 -0.59087021146E+02  0.74067606886E+02  0.00000000000E+00 0.  1.
</event>
<event>
12    1  0.2625820E-002  0.1912940E+03  0.7818608E-02  0.1157299E+00
         -1   -1    0    0    0  501 -0.00000000000E+00  0.00000000000E+00  0.18970856825E+02  0.18970856825E+02  0.00000000000E+00 0.  1.
          1   -1    0    0  502    0  0.00000000000E+00 -0.00000000000E+00 -0.34904319534E+04  0.34904319534E+04  0.00000000000E+00 0. -1.
          6    2    1    2  502    0 -0.10197350982E+02 -0.71043061576E+02 -0.28857677220E+04  0.28918049442E+04  0.17242211964E+03 0.  0.
         24    2    3    3    0    0  0.15554866022E+02 -0.10344433033E+03 -0.16095166323E+04  0.16148742675E+04  0.79576548804E+02 0.  0.
         -6    2    1    2    0  501  0.10197350982E+02  0.71043061576E+02 -0.58569337455E+03  0.61759786601E+03  0.18231646263E+03 0.  0.
        -24    2    5    5    0    0 -0.44605627711E+02  0.60696043670E+02 -0.20514048759E+03  0.23295125284E+03  0.80684538844E+02 0.  0.
          5    1    3    3  502    0 -0.25752217004E+02  0.32401268754E+02 -0.12762510898E+04  0.12769306767E+04  0.47000000000E+01 0. -1.
        -13    1    4    4    0    0 -0.17560639276E+02 -0.27393205178E+02 -0.17753346243E+03  0.18049070343E+03  0.00000000000E+00 0.  1.
         14    1    4    4    0    0  0.33115505299E+02 -0.76051125153E+02 -0.14319831698E+04  0.14343835641E+04  0.00000000000E+00 0. -1.
         -5    1    5    5    0  501  0.54802978693E+02  0.10347017906E+02 -0.38055288696E+03  0.38464661318E+03  0.47000000000E+01 0.  1.
         13    1    6    6    0    0  0.14212993238E+02 -0.81167679449E+01 -0.57349348690E+02  0.59639239547E+02  0.00000000000E+00 0. -1.
        -14    1    6    6    0    0 -0.58818620949E+02  0.68812811615E+02 -0.14779113890E+03  0.17331201329E+03  0.00000000000E+00 0.  1.
</event>
<event>
12    1  0.2625820E-002  0.2118634E+03  0.7818608E-02  0.1140099E+00
         -3   -1    0    0    0  501 -0.00000000000E+00  0.00000000000E+00  0.11800647392E+03  0.11800647392E+03  0.00000000000E+00 0.  1.
          3   -1    0    0  502    0  0.00000000000E+00 -0.00000000000E+00 -0.63523989574E+03  0.63523989574E+03  0.00000000000E+00 0. -1.
          6    2    1    2  502    0  0.50225416981E+02 -0.11470591506E+03 -0.20950576978E+02  0.21410606129E+03  0.17240197025E+03 0.  0.
         24    2    3    3    0    0  0.39405420085E+02 -0.13636859679E+03  0.24977020647E+02  0.16197374563E+03  0.73908466292E+02 0.  0.
         -6    2    1    2    0  501 -0.50225416981E+02  0.11470591506E+03 -0.49628284483E+03  0.53914030837E+03  0.16939766991E+03 0.  0.
        -24    2    5    5    0    0 -0.16522232495E+02  0.98997014603E+01 -0.11186220339E+03  0.13923836211E+03  0.80642300810E+02 0.  0.
          5    1    3    3  502    0  0.10819996896E+02  0.21662681734E+02 -0.45927597625E+02  0.52132315663E+02  0.47000000000E+01 0. -1.
        -11    1    4    4    0    0  0.33650833095E+02 -0.15573848593E+02 -0.49099308418E+01  0.37403619462E+02  0.00000000000E+00 0.  1.
         12    1    4    4    0    0  0.57545869893E+01 -0.12079474820E+03  0.29886951489E+02  0.12457012617E+03  0.00000000000E+00 0. -1.
         -5    1    5    5    0  501 -0.33703184486E+02  0.10480621360E+03 -0.38442064145E+03  0.39990194626E+03  0.47000000000E+01 0.  1.
         11    1    6    6    0    0  0.19171449577E+02 -0.25734535510E+01 -0.96511267465E+02  0.98430645074E+02  0.00000000000E+00 0. -1.
        -12    1    6    6    0    0 -0.35693682072E+02  0.12473155011E+02 -0.15350935925E+02  0.40807717034E+02  0.00000000000E+00 0.  1.
</event>
<event>
12    1  0.2625820E-002  0.1812000E+03  0.7818608E-02  0.1166647E+00
         -2   -1    0    0    0  501 -0.00000000000E+00  0.00000000000E+00  0.38575979384E+02  0.38575979384E+02  0.00000000000E+00 0. -1.
          2   -1    0    0  502    0  0.00000000000E+00 -0.00000000000E+00 -0.85728697618E+03  0.85728697618E+03  0.00000000000E+00 0.  1.
          6    2    1    2  502    0 -0.60996091234E+02 -0.12020686302E+02 -0.36964223960E+03  0.41130875523E+03  0.16933542684E+03 0.  0.
         24    2    3    3    0    0 -0.53890807946E+02  0.42690100513E+02 -0.32077739253E+03  0.33746013626E+03  0.79085675953E+02 0.  0.
         -6    2    1    2    0  501  0.60996091234E+02  0.12020686302E+02 -0.44906875719E+03  0.48455420033E+03  0.17107017370E+03 0.  0.
        -24    2    5    5    0    0  0.61378227025E+02  0.70902200571E+02 -0.31560785533E+03  0.33860530148E+03  0.79062146738E+02 0.  0.
          5    1    3    3  502    0 -0.71052832881E+01 -0.54710786814E+02 -0.48864847070E+02  0.73848618969E+02  0.47000000000E+01 0. -1.
        -11    1    4    4    0    0 -0.52153083244E+02 -0.89049051692E+01 -0.17420645119E+03  0.18206353030E+03  0.00000000000E+00 0.  1.
         12    1    4    4    0    0 -0.17377247017E+01  0.51595005682E+02 -0.14657094134E+03  0.15539660596E+03  0.00000000000E+00 0. -1.
         -5    1    5    5    0  501 -0.38213579141E+00 -0.58881514270E+02 -0.13346090186E+03  0.14594889885E+03  0.47000000000E+01 0.  1.
         11    1    6    6    0    0  0.42336422631E+02  0.79811856001E+02 -0.29731194896E+03  0.31073573987E+03  0.00000000000E+00 0. -1.
        -12    1    6    6    0    0  0.19041804395E+02 -0.89096554294E+01 -0.18295906374E+02  0.27869561613E+02  0.00000000000E+00 0.  1.
</event>
<event>
12    1  0.2625820E-002  0.1841649E+03  0.7818608E-02  0.1163832E+00
          2   -1    0    0  502    0  0.00000000000E+00  0.00000000000E+00  0.17971939299E+04  0.17971939299E+04  0.00000000000E+00 0. -1.
         -2   -1    0    0    0  501 -0.00000000000E+00 -0.00000000000E+00 -0.30979346939E+02  0.30979346939E+02  0.00000000000E+00 0.  1.
          6    2    1    2  502    0 -0.38825974928E+02 -0.54827071423E+02  0.14545293405E+04  0.14661409695E+04  0.17146508642E+03 0.  0.
         24    2    3    3    0    0 -0.29983958779E+02 -0.75739372391E+02  0.57834661228E+03  0.58965151213E+03  0.81046970981E+02 0.  0.
         -6    2    1    2    0  501  0.38825974928E+02  0.54827071423E+02  0.31168524247E+03  0.36203230739E+03  0.17148246887E+03 0.  0.
        -24    2    5    5    0    0 -0.29222633189E+02 -0.37000822511E+01  0.16792921198E+03  0.19249196680E+03  0.89360417122E+02 0.  0.
          5    1    3    3  502    0 -0.88420161483E+01  0.20912300968E+02  0.87618272822E+03  0.87648945733E+03  0.47000000000E+01 0. -1.
        -11    1    4    4    0    0  0.24639125405E+02 -0.83354228179E+01  0.91073378491E+02  0.94714972650E+02  0.00000000000E+00 0.  1.
         12    1    4    4    0    0 -0.54623084184E+02 -0.67403949573E+02  0.48727323379E+03  0.49493653948E+03  0.00000000000E+00 0. -1.
         -5    1    5    5    0  501  0.68048608117E+02  0.58527153674E+02  0.14375603049E+03  0.16954034058E+03  0.47000000000E+01 0.  1.
         11    1    6    6    0    0 -0.78807181877E+01  0.18689129111E+02  0.15901262477E+03  0.16030097973E+03  0.00000000000E+00 0. -1.
        -12    1    6    6    0    0 -0.21341915001E+02 -0.22389211362E+02  0.89165872116E+01  0.32190987075E+02  0.00000000000E+00 0.  1.
</event>
<event>
12    1  0.2625820E-002  0.1884936E+03  0.7818608E-02  0.1159827E+00
         -2   -1    0    0    0  501 -0.00000000000E+00  0.00000000000E+00  0.53891680193E+02  0.53891680193E+02  0.00000000000E+00 0. -1.
          2   -1    0    0  502    0  0.00000000000E+00 -0.00000000000E+00 -0.14295456025E+04  0.14295456025E+04  0.00000000000E+00 0.  1.
          6    2    1    2  502    0 -0.13510749482E+02  0.73887159267E+02 -0.12328767841E+04  0.12472567605E+04  0.17326975841E+03 0.  0.
         24    2    3    3    0    0  0.45494023030E+02  0.11412901565E+00 -0.51130812866E+03  0.51951543442E+03  0.79941009545E+02 0.  0.
         -6    2    1    2    0  501  0.13510749482E+02 -0.73887159267E+02 -0.14277713812E+03  0.23618052211E+03  0.17249369611E+03 0.  0.
        -24    2    5    5    0    0  0.14851358834E+02 -0.10422241813E+03 -0.53996751397E+02  0.14223334424E+03  0.78941749110E+02 0.  0.
          5    1    3    3  502    0 -0.59004772512E+02  0.73773030252E+02 -0.72156865548E+03  0.72774132612E+03  0.47000000000E+01 0. -1.
        -13    1    4    4    0    0  0.50273929011E+02  0.20178278024E+01 -0.51187262896E+03  0.51433950640E+03  0.00000000000E+00 0.  1.
         14    1    4    4    0    0 -0.47799059814E+01 -0.19036987867E+01  0.56450029729E+00  0.51759280180E+01  0.00000000000E+00 0. -1.
         -5    1    5    5    0  501 -0.13406093522E+01  0.30335258858E+02 -0.88780386724E+02  0.93947177873E+02  0.47000000000E+01 0.  1.
         11    1    6    6    0    0 -0.41581204390E+01 -0.91087950428E+02 -0.89683931701E+01  0.91622796043E+02  0.00000000000E+00 0. -1.
        -12    1    6    6    0    0  0.19009479273E+02 -0.13134467697E+02 -0.45028358227E+02  0.50610548194E+02  0.00000000000E+00 0.  1.
</event>
<event>
12    1  0.2625820E-002  0.3923756E+03  0.7818608E-02  0.1046452E+00
         -1   -1    0    0    0  501 -0.00000000000E+00  0.00000000000E+00  0.21054845011E+03  0.21054845011E+03  0.00000000000E+00 0.  1.
          1   -1    0    0  502    0  0.00000000000E+00 -0.00000000000E+00 -0.98740799256E+03  0.98740799256E+03  0.00000000000E+00 0. -1.
          6    2    1    2  502    0  0.12572620337E+03  0.32970847775E+03 -0.83400359643E+02  0.40122997001E+03  0.17179962263E+03 0.  0.
         24    2    3    3    0    0  0.11137883809E+02  0.60666973872E+02  0.34947295359E+00  0.97009756604E+02  0.74874805980E+02 0.  0.
         -6    2    1    2    0  501 -0.12572620337E+03 -0.32970847775E+03 -0.69345918280E+03  0.79672647266E+03  0.17138458367E+03 0.  0.
        -24    2    5    5    0    0 -0.90162421325E+02 -0.13106129271E+03 -0.42635910279E+03  0.46192798184E+03  0.79303538432E+02 0.  0.
          5    1    3    3  502    0  0.11458831956E+03  0.26904150387E+03 -0.83749832597E+02  0.30422021341E+03  0.47000000000E+01 0. -1.
        -11    1    4    4    0    0 -0.14537702095E+02  0.67845989161E+02 -0.58689297414E+01  0.69633809056E+02  0.00000000000E+00 0.  1.
         12    1    4    4    0    0  0.25675585905E+02 -0.71790152891E+01  0.62184026950E+01  0.27375947548E+02  0.00000000000E+00 0. -1.
         -5    1    5    5    0  501 -0.35563782040E+02 -0.19864718504E+03 -0.26710008001E+03  0.33479849082E+03  0.47000000000E+01 0.  1.
         13    1    6    6    0    0 -0.44441257159E+02 -0.64699124167E+01 -0.11549218717E+03  0.12391662682E+03  0.00000000000E+00 0. -1.
        -14    1    6    6    0    0 -0.45721164166E+02 -0.12459138029E+03 -0.31086691562E+03  0.33801135502E+03  0.00000000000E+00 0.  1.
</event>
<event>
12    1  0.2625820E-002  0.1897443E+03  0.7818608E-02  0.1158692E+00
          2   -1    0    0  502    0  0.00000000000E+00  0.00000000000E+00  0.74753248162E+03  0.74753248162E+03  0.00000000000E+00 0.  1.
         -2   -1    0    0    0  501 -0.00000000000E+00 -0.00000000000E+00 -0.53424562792E+02  0.53424562792E+02  0.00000000000E+00 0. -1.
          6    2    1    2  502    0 -0.61391968472E+02  0.44105787590E+02  0.46930488290E+03  0.50545423667E+03  0.17182147121E+03 0.  0.
         24    2    3    3    0    0 -0.31583018569E+02  0.10686173670E+02  0.91188908143E+02  0.12466659972E+03  0.78196309048E+02 0.  0.
         -6    2    1    2    0  501  0.61391968472E+02 -0.44105787590E+02  0.22480303593E+03  0.29550280774E+03  0.17627027579E+03 0.  0.
        -24    2    5    5    0    0  0.19830638958E+02 -0.89938350596E+02  0.10586786813E+03  0.16135500834E+03  0.79657216033E+02 0.  0.
          5    1    3    3  502    0 -0.29808949903E+02  0.33419613920E+02  0.37811597475E+03  0.38078763695E+03  0.47000000000E+01 0. -1.
        -11    1    4    4    0    0 -0.12855035546E+02 -0.27668490596E+02  0.71348932171E+02  0.77598114878E+02  0.00000000000E+00 0.  1.
         12    1    4    4    0    0 -0.18727983023E+02  0.38354664266E+02  0.19839975972E+02  0.47068484846E+02  0.00000000000E+00 0. -1.
         -5    1    5    5    0  501  0.41561329514E+02  0.45832563005E+02  0.11893516780E+03  0.13414779939E+03  0.47000000000E+01 0.  1.
         11    1    6    6    0    0  0.97269549890E+01 -0.13905132087E+02 -0.11960527017E+02  0.20761034614E+02  0.00000000000E+00 0. -1.
        -12    1    6    6    0    0  0.10103683969E+02 -0.76033218508E+02  0.11782839515E+03  0.14059397373E+03  0.00000000000E+00 0.  1.
</event>
<event>
12    1  0.2625820E-002  0.1749112E+03  0.7818608E-02  0.1172821E+00
          2   -1    0    0  502    0  0.00000000000E+00  0.00000000000E+00  0.30800008665E+03  0.30800008665E+03  0.00000000000E+00 0. -1.
         -2   -1    0    0    0  501 -0.00000000000E+00 -0.00000000000E+00 -0.99453974789E+02  0.99453974789E+02  0.00000000000E+00 0.  1.
          6    2    1    2  502    0  0.28657879565E+02  0.10038957279E+02  0.96826739224E+02  0.19947861019E+03  0.17173888252E+03 0.  0.
         24    2    3    3    0    0  0.17231895463E+02 -0.21665531216E+02  0.12728841701E+03  0.15380880050E+03  0.81783082240E+02 0.  0.
         -6    2    1    2    0  501 -0.28657879565E+02 -0.10038957279E+02  0.11171937264E+03  0.20797545125E+03  0.17277301692E+03 0.  0.
        -24    2    5    5    0    0 -0.48548655418E+02  0.20617256432E+02  0.13384787017E+03  0.16499630740E+03  0.80786669074E+02 0.  0.
          5    1    3    3  502    0  0.11425984102E+02  0.31704488495E+02 -0.30461677790E+02  0.45669809691E+02  0.47000000000E+01 0. -1.
        -11    1    4    4    0    0  0.25835326150E+02 -0.49347334696E+02  0.68720896157E+02  0.88460076235E+02  0.00000000000E+00 0.  1.
         12    1    4    4    0    0 -0.86034306870E+01  0.27681803480E+02  0.58567520857E+02  0.65348724264E+02  0.00000000000E+00 0. -1.
         -5    1    5    5    0  501  0.19890775853E+02 -0.30656213711E+02 -0.22128497533E+02  0.42979143851E+02  0.47000000000E+01 0.  1.
         11    1    6    6    0    0  0.14092934869E+02  0.15101107715E+02  0.78669464616E+02  0.81335963328E+02  0.00000000000E+00 0. -1.
        -12    1    6    6    0    0 -0.62641590287E+02  0.55161487172E+01  0.55178405552E+02  0.83660344068E+02  0.00000000000E+00 0.  1.
</event>
<event>
12    1  0.2625820E-002  0.2170168E+03  0.7818608E-02  0.1136127E+00
         -1   -1    0    0    0  501 -0.00000000000E+00  0.00000000000E+00  0.56320246614E+03  0.56320246614E+03  0.00000000000E+00 0. -1.
          1   -1    0    0  502    0  0.00000000000E+00 -0.00000000000E+00 -0.93166387491E+02  0.93166387491E+02  0.00000000000E+00 0.  1.
          6    2    1    2  502    0  0.54889067921E+02  0.12068806866E+03  0.33969535450E+03  0.40289971756E+03  0.17133834610E+03 0.  0.
         24    2    3    3    0    0 -0.27008849925E+02  0.10443710670E+03  0.22760481344E+03  0.26305072004E+03  0.75862658677E+02 0.  0.
         -6    2    1    2    0  501 -0.54889067921E+02 -0.12068806866E+03  0.13034072415E+03  0.25346913607E+03  0.17227733129E+03 0.  0.
        -24    2    5    5    0    0  0.26144269368E+02 -0.46481880863E+02  0.10114102112E+03  0.13968129526E+03  0.80232599505E+02 0.  0.
          5    1    3    3  502    0  0.81897917847E+02  0.16250961964E+02  0.11209054106E+03  0.13984899752E+03  0.47000000000E+01 0. -1.
        -13    1    4    4    0    0  0.13811032491E+02  0.55190759712E+02  0.55650648531E+02  0.79584918534E+02  0.00000000000E+00 0.  1.
         14    1    4    4    0    0 -0.40819882417E+02  0.49246346985E+02  0.17195416491E+03  0.18346580150E+03  0.00000000000E+00 0. -1.
         -5    1    5    5    0  501 -0.81033337289E+02 -0.74206187799E+02  0.29199703033E+02  0.11378784081E+03  0.47000000000E+01 0.  1.
         13    1    6    6    0    0 -0.28514650763E+02 -0.96797943501E+01  0.26465181064E+02  0.40089768465E+02  0.00000000000E+00 0. -1.
        -14    1    6    6    0    0  0.54658920131E+02 -0.36802086512E+02  0.74675840052E+02  0.99591526794E+02  0.00000000000E+00 0.  1.
</event>
<event>
12    1  0.2625820E-002  0.4808816E+03  0.7818608E-02  0.1018893E+00
          2   -1    0    0  502    0  0.00000000000E+00  0.00000000000E+00  0.16587435495E+04  0.16587435495E+04  0.00000000000E+00 0. -1.
         -2   -1    0    0    0  501 -0.00000000000E+00 -0.00000000000E+00 -0.14682549515E+03  0.14682549515E+03  0.00000000000E+00 0.  1.
          6    2    1    2  502    0 -0.35442248868E+03  0.27541935094E+03  0.95900439843E+03  0.10728689074E+04  0.17287896573E+03 0.  0.
         24    2    3    3    0    0 -0.18010596814E+03  0.12820649744E+03  0.63050995484E+03  0.67288320381E+03  0.79711586779E+02 0.  0.
         -6    2    1    2    0  501  0.35442248868E+03 -0.27541935094E+03  0.55291365593E+03  0.73270013731E+03  0.17223490049E+03 0.  0.
        -24    2    5    5    0    0  0.27840105767E+03 -0.13183430669E+03  0.36345525467E+03  0.48307542156E+03  0.79841764981E+02 0.  0.
          5    1    3    3  502    0 -0.17431652054E+03  0.14721285350E+03  0.32849444359E+03  0.39998570355E+03  0.47000000000E+01 0. -1.
        -11    1    4    4    0    0 -0.13831414453E+02  0.36028779475E+01  0.75073181262E+01  0.16144614605E+02  0.00000000000E+00 0.  1.
         12    1    4    4    0    0 -0.16627455369E+03  0.12460361949E+03  0.62300263672E+03  0.65673858920E+03  0.00000000000E+00 0. -1.
         -5    1    5    5    0  501  0.76021431011E+02 -0.14358504426E+03  0.18945840126E+03  0.24962471575E+03  0.47000000000E+01 0.  1.
         11    1    6    6    0    0  0.24554176434E+02 -0.37408453374E+02  0.75483437714E+02  0.87749924977E+02  0.00000000000E+00 0. -1.
        -12    1    6    6    0    0  0.25384688123E+03 -0.94425853311E+02  0.28797181696E+03  0.39532549658E+03  0.00000000000E+00 0.  1.
</event>
<event>
12    1  0.2625820E-002  0.2600316E+03  0.7818608E-02  0.1107124E+00
          1   -1    0    0  502    0  0.00000000000E+00  0.00000000000E+00  0.83614942263E+03  0.83614942263E+03  0.00000000000E+00 0.  1.
         -1   -1    0    0    0  501 -0.00000000000E+00 -0.00000000000E+00 -0.89928690252E+02  0.89928690252E+02  0.00000000000E+00 0. -1.
          6    2    1    2  502    0 -0.84446587121E+02 -0.17673152096E+03  0.22643093779E+03  0.34498162068E+03  0.17139455195E+03 0.  0.
         24    2    3    3    0    0 -0.11848292754E+03 -0.11911048253E+03  0.19880712977E+03  0.27242942354E+03  0.80423906873E+02 0.  0.
         -6    2    1    2    0  501  0.84446587121E+02  0.17673152096E+03  0.51978979459E+03  0.58109649221E+03  0.17066471845E+03 0.  0.
        -24    2    5    5    0    0  0.54655842747E+01  0.15948534644E+03  0.37336068851E+03  0.41376746767E+03  0.79623270704E+02 0.  0.
          5    1    3    3  502    0  0.34036340421E+02 -0.57621038432E+02  0.27623808021E+02  0.72552197133E+02  0.47000000000E+01 0. -1.
        -11    1    4    4    0    0 -0.57807753650E+02 -0.27028716245E+02  0.29325510290E+02  0.70230146217E+02  0.00000000000E+00 0.  1.
         12    1    4    4    0    0 -0.60675173892E+02 -0.92081766283E+02  0.16948161948E+03  0.20219927733E+03  0.00000000000E+00 0. -1.
         -5    1    5    5    0  501  0.78981002847E+02  0.17246174521E+02  0.14642910607E+03  0.16732902454E+03  0.47000000000E+01 0.  1.
         13    1    6    6    0    0  0.15144249951E+02  0.98470387902E+02  0.30852519494E+03  0.32421221679E+03  0.00000000000E+00 0. -1.
        -14    1    6    6    0    0 -0.96786656763E+01  0.61014958536E+02  0.64835493567E+02  0.89555250882E+02  0.00000000000E+00 0.  1.
</event>
<event>
12    1  0.2625820E-002  0.1767285E+03  0.7818608E-02  0.1171007E+00
          2   -1    0    0  502    0  0.00000000000E+00  0.00000000000E+00  0.11825894564E+04  0.11825894564E+04  0.00000000000E+00 0. -1.
         -2   -1    0    0    0  501 -0.00000000000E+00 -0.00000000000E+00 -0.41353373545E+02  0.41353373545E+02  0.00000000000E+00 0.  1.
          6    2    1    2  502    0  0.30018822685E+02  0.17904564703E+01  0.20041226005E+03  0.26645178118E+03  0.17299463073E+03 0.  0.
         24    2    3    3    0    0  0.47408279870E+02 -0.41379185577E+02  0.57941920370E+02  0.11649879219E+03  0.79088055020E+02 0.  0.
         -6    2    1    2    0  501 -0.30018822685E+02 -0.17904564703E+01  0.94082382275E+03  0.95749104872E+03  0.17531488091E+03 0.  0.
        -24    2    5    5    0    0 -0.65000527527E+02 -0.45906738516E+02  0.75177929046E+03  0.76018445682E+03  0.79848666953E+02 0.  0.
          5    1    3    3  502    0 -0.17389457185E+02  0.43169642047E+02  0.14247033968E+03  0.14995298898E+03  0.47000000000E+01 0. -1.
        -11    1    4    4    0    0  0.34658856586E+02 -0.58279028843E+02  0.65250920790E+02  0.94102944729E+02  0.00000000000E+00 0.  1.
         12    1    4    4    0    0  0.12749423284E+02  0.16899843266E+02 -0.73090004201E+01  0.22395847464E+02  0.00000000000E+00 0. -1.
         -5    1    5    5    0  501  0.34981704842E+02  0.44116282046E+02  0.18904453230E+03  0.19730659190E+03  0.47000000000E+01 0.  1.
         13    1    6    6    0    0 -0.39128720403E+02 -0.37614814999E+02  0.69627968238E+03  0.69839195812E+03  0.00000000000E+00 0. -1.
        -14    1    6    6    0    0 -0.25871807125E+02 -0.82919235167E+01  0.55499608077E+02  0.61792498705E+02  0.00000000000E+00 0.  1.
</event>
<event>
12    1  0.2625820E-002  0.3217757E+03  0.7818608E-02  0.1074835E+00
          1   -1    0    0  502    0  0.00000000000E+00  0.00000000000E+00  0.16413530453E+03  0.16413530453E+03  0.00000000000E+00 0. -1.
         -1   -1    0    0    0  501 -0.00000000000E+00 -0.00000000000E+00 -0.72120559843E+03  0.72120559843E+03  0.00000000000E+00 0.  1.
          6    2    1    2  502    0  0.25439580605E+03 -0.88555096686E+02 -0.43370328930E+03  0.53884483289E+03  0.17232521434E+03 0.  0.
         24    2    3    3    0    0  0.93549208819E+02 -0.38876029575E+02 -0.93837826638E+02  0.15954249931E+03  0.79909143603E+02 0.  0.
         -6    2    1    2    0  501 -0.25439580605E+03  0.88555096686E+02 -0.12336700461E+03  0.34649607007E+03  0.17966879937E+03 0.  0.
        -24    2    5    5    0    0 -0.26322045580E+03  0.11045198573E+03 -0.12663960030E+03  0.32220310657E+03  0.79325935348E+02 0.  0.
          5    1    3    3  502    0  0.16084659723E+03 -0.49679067110E+02 -0.33986546266E+03  0.37930233358E+03  0.47000000000E+01 0. -1.
        -13    1    4    4    0    0  0.64406801636E+02  0.16455842769E+02 -0.49576097764E+02  0.82926596022E+02  0.00000000000E+00 0.  1.
         14    1    4    4    0    0  0.29142407182E+02 -0.55331872344E+02 -0.44261728875E+02  0.76615903287E+02  0.00000000000E+00 0. -1.
         -5    1    5    5    0  501  0.88246497473E+01 -0.21896889047E+02  0.32725956902E+01  0.24292963501E+02  0.47000000000E+01 0.  1.
         11    1    6    6    0    0 -0.11940117044E+03  0.72081543412E+02 -0.98421838042E+02  0.17070221617E+03  0.00000000000E+00 0. -1.
        -12    1    6    6    0    0 -0.14381928536E+03  0.38370442320E+02 -0.28217762257E+02  0.15150089040E+03  0.00000000000E+00 0.  1.
</event>
<event>
12    1  0.2625820E-002  0.1893877E+03  0.7818608E-02  0.1159015E+00
          2   -1    0    0  502    0  0.00000000000E+00  0.00000000000E+00  0.14236407165E+04  0.14236407165E+04  0.00000000000E+00 0.  1.
         -2   -1    0    0    0  501 -0.00000000000E+00 -0.00000000000E+00 -0.27681547221E+02  0.27681547221E+02  0.00000000000E+00 0. -1.
          6    2    1    2  502    0 -0.61904649996E+01 -0.81918440686E+02  0.91184135096E+03  0.93108337345E+03  0.16944806346E+03 0.  0.
         24    2    3    3    0    0 -0.69601754981E+01 -0.77230746087E+02  0.91629534288E+03  0.92305249685E+03  0.80098216975E+02 0.  0.
         -6    2    1    2    0  501  0.61904649996E+01  0.81918440686E+02  0.48411781830E+03  0.52023889025E+03  0.17184146227E+03 0.  0.
        -24    2    5    5    0    0 -0.14129895437E+02  0.70392226989E+02  0.14422236584E+03  0.17950911572E+03  0.79175199734E+02 0.  0.
          5    1    3    3  502    0  0.76971049857E+00 -0.46876945989E+01 -0.44539919242E+01  0.80308766001E+01  0.47000000000E+01 0. -1.
        -13    1    4    4    0    0 -0.41841523805E+02 -0.28570241360E+02  0.36078610166E+03  0.36432620405E+03  0.00000000000E+00 0.  1.
         14    1    4    4    0    0  0.34881348307E+02 -0.48660504728E+02  0.55550924122E+03  0.55872629279E+03  0.00000000000E+00 0. -1.
         -5    1    5    5    0  501  0.20320360436E+02  0.11526213698E+02  0.33989545245E+03  0.34072977453E+03  0.47000000000E+01 0.  1.
         13    1    6    6    0    0  0.33147774017E+02  0.29209282223E+02  0.59744721057E+02  0.74306048101E+02  0.00000000000E+00 0. -1.
        -14    1    6    6    0    0 -0.47277669453E+02  0.41182944766E+02  0.84477644784E+02  0.10520306762E+03  0.00000000000E+00 0.  1.
</event>
<event>
12    1  0.2625820E-002  0.1808322E+03  0.7818608E-02  0.1167000E+00
         -2   -1    0    0    0  501 -0.00000000000E+00  0.00000000000E+00  0.13528642892E+02  0.13528642892E+02  0.00000000000E+00 0. -1.
          2   -1    0    0  502    0  0.00000000000E+00 -0.00000000000E+00 -0.26443965900E+04  0.26443965900E+04  0.00000000000E+00 0.  1.
          6    2    1    2  502    0  0.24134292087E+01 -0.50630712416E+02 -0.91528939272E+03  0.93267222442E+03  0.17191134952E+03 0.  0.
         24    2    3    3    0    0 -0.52609226255E+02  0.54098815364E+01 -0.60426536684E+03  0.61185128455E+03  0.80177074871E+02 0.  0.
         -6    2    1    2    0  501 -0.24134292087E+01  0.50630712416E+02 -0.17155785544E+04  0.17252530085E+04  0.17526800419E+03 0.  0.
        -24    2    5    5    0    0 -0.43418157375E+02  0.69837555329E+02 -0.15255494374E+04  0.15298471595E+04  0.79804916292E+02 0.  0.
          5    1    3    3  502    0  0.55022655464E+02 -0.56040593953E+02 -0.31102402588E+03  0.32082093988E+03  0.47000000000E+01 0. -1.
        -13    1    4    4    0    0 -0.59790878328E+01 -0.33687730740E+02 -0.26112564702E+03  0.26335758243E+03  0.00000000000E+00 0.  1.
         14    1    4    4    0    0 -0.46630138422E+02  0.39097612276E+02 -0.34313971982E+03  0.34849370212E+03  0.00000000000E+00 0. -1.
         -5    1    5    5    0  501  0.41004728166E+02 -0.19206842913E+02 -0.19002911693E+03  0.19540584901E+03  0.47000000000E+01 0.  1.
         11    1    6    6    0    0 -0.40018209239E+02  0.54228195294E+02 -0.54281553482E+03  0.54698341755E+03  0.00000000000E+00 0. -1.
        -12    1    6    6    0    0 -0.33999481352E+01  0.15609360035E+02 -0.98273390263E+03  0.98286374190E+03  0.00000000000E+00 0.  1.
</event>
<event>
12    1  0.2625820E-002  0.1807957E+03  0.7818608E-02  0.1167035E+00
         -1   -1    0    0    0  501 -0.00000000000E+00  0.00000000000E+00  0.49030620241E+02  0.49030620241E+02  0.00000000000E+00 0.  1.
          1   -1    0    0  502    0  0.00000000000E+00 -0.00000000000E+00 -0.66952893027E+03  0.66952893027E+03  0.00000000000E+00 0. -1.
          6    2    1    2  502    0  0.38861570050E+02 -0.40054673712E+02 -0.33448190527E+03  0.38042890994E+03  0.17243379033E+03 0.  0.
         24    2    3    3    0    0  0.11737731583E+02 -0.39653163155E+01 -0.32366897524E+03  0.33376892937E+03  0.80539397851E+02 0.  0.
         -6    2    1    2    0  501 -0.38861570050E+02  0.40054673712E+02 -0.28601640475E+03  0.33813064057E+03  0.17150028511E+03 0.  0.
        -24    2    5    5    0    0 -0.59587250282E+02 -0.95765054181E+01 -0.22171287492E+03  0.25416730505E+03  0.10863733336E+03 0.  0.
          5    1    3    3  502    0  0.27123838467E+02 -0.36089357396E+02 -0.10812930036E+02  0.46659980566E+02  0.47000000000E+01 0. -1.
        -11    1    4    4    0    0  0.35185422804E+02  0.41175255653E+01 -0.65976612374E+02  0.74885788872E+02  0.00000000000E+00 0.  1.
         12    1    4    4    0    0 -0.23447691221E+02 -0.80828418808E+01 -0.25769236286E+03  0.25888314050E+03  0.00000000000E+00 0. -1.
         -5    1    5    5    0  501  0.20725680231E+02  0.49631179130E+02 -0.64303529835E+02  0.83963335523E+02  0.47000000000E+01 0.  1.
         13    1    6    6    0    0 -0.51915415442E+02 -0.38531762816E+02 -0.21354774824E+03  0.22312003022E+03  0.00000000000E+00 0. -1.
        -14    1    6    6    0    0 -0.76718348395E+01  0.28955257398E+02 -0.81651266783E+01  0.31047274831E+02  0.00000000000E+00 0.  1.
</event>
<event>
12    1  0.2625820E-002  0.1794837E+03  0.7818608E-02  0.1168304E+00
         -2   -1    0    0    0  501 -0.00000000000E+00  0.00000000000E+00  0.96407063811E+02  0.96407063811E+02  0.00000000000E+00 0. -1.
          2   -1    0    0  502    0  0.00000000000E+00 -0.00000000000E+00 -0.33489556477E+03  0.33489556477E+03  0.00000000000E+00 0.  1.
          6    2    1    2  502    0  0.24542212097E+02  0.42230947634E+02 -0.10963229838E+03  0.21099002941E+03  0.17352745763E+03 0.  0.
         24    2    3    3    0    0 -0.53483923728E+02  0.24465096527E+02 -0.76654053729E+02  0.12431040114E+03  0.78218673169E+02 0.  0.
         -6    2    1    2    0  501 -0.24542212097E+02 -0.42230947634E+02 -0.12885620258E+03  0.22031259917E+03  0.17189516368E+03 0.  0.
        -24    2    5    5    0    0  0.36605417191E+02 -0.59369929737E+02 -0.11275749918E+03  0.15463128124E+03  0.79572824443E+02 0.  0.
          5    1    3    3  502    0  0.78026135826E+02  0.17765851107E+02 -0.32978244650E+02  0.86679628274E+02  0.47000000000E+01 0. -1.
        -13    1    4    4    0    0 -0.11805939703E+02 -0.28083217182E+02 -0.28765202635E+02  0.41898498567E+02  0.00000000000E+00 0.  1.
         14    1    4    4    0    0 -0.41677984026E+02  0.52548313709E+02 -0.47888851094E+02  0.82411902570E+02  0.00000000000E+00 0. -1.
         -5    1    5    5    0  501 -0.61147629288E+02  0.17138982103E+02 -0.16098703400E+02  0.65681317939E+02  0.47000000000E+01 0.  1.
         11    1    6    6    0    0  0.99691073344E+01  0.18615829388E+02 -0.11393588923E+02  0.23994709279E+02  0.00000000000E+00 0. -1.
        -12    1    6    6    0    0  0.26636309856E+02 -0.77985759125E+02 -0.10136391026E+03  0.13063657196E+03  0.00000000000E+00 0.  1.
</event>
<event>
12    1  0.2625820E-002  0.2957205E+03  0.7818608E-02  0.1087400E+00
          2   -1    0    0  502    0  0.00000000000E+00  0.00000000000E+00  0.42313400602E+03  0.42313400602E+03  0.00000000000E+00 0. -1.
         -2   -1    0    0    0  501 -0.00000000000E+00 -0.00000000000E+00 -0.32752282271E+03  0.32752282271E+03  0.00000000000E+00 0.  1.
          6    2    1    2  502    0  0.22340739738E+03 -0.89522302011E+02  0.27589222426E+03  0.40516188971E+03  0.17353538459E+03 0.  0.
         24    2    3    3    0    0  0.12775332575E+03 -0.53284303015E+01  0.78356583128E+02  0.17004334733E+03  0.80160348316E+02 0.  0.
         -6    2    1    2    0  501 -0.22340739738E+03  0.89522302011E+02 -0.18028104095E+03  0.34549493902E+03  0.17011875675E+03 0.  0.
        -24    2    5    5    0    0 -0.23406021602E+03  0.99469515325E+02 -0.19028273992E+03  0.32720413313E+03  0.78591694333E+02 0.  0.
          5    1    3    3  502    0  0.95654071630E+02 -0.84193871710E+02  0.19753564113E+03  0.23511854238E+03  0.47000000000E+01 0. -1.
        -13    1    4    4    0    0  0.23044058954E+02 -0.16353877556E+02 -0.12570364932E+02  0.30927205479E+02  0.00000000000E+00 0.  1.
         14    1    4    4    0    0  0.10470926680E+03  0.11025447255E+02  0.90926948060E+02  0.13911614185E+03  0.00000000000E+00 0. -1.
         -5    1    5    5    0  501  0.10652818644E+02 -0.99472133134E+01  0.10001698973E+02  0.18290805890E+02  0.47000000000E+01 0.  1.
         11    1    6    6    0    0 -0.34882325546E+02  0.44650194141E+02 -0.22105888362E+02  0.60820118156E+02  0.00000000000E+00 0. -1.
        -12    1    6    6    0    0 -0.19917789048E+03  0.54819321184E+02 -0.16817685156E+03  0.26638401497E+03  0.00000000000E+00 0.  1.
</event>
<event>
12    1  0.2625820E-002  0.2555564E+03  0.7818608E-02  0.1109843E+00
         -2   -1    0    0    0  501 -0.00000000000E+00  0.00000000000E+00  0.33329071130E+02  0.33329071130E+02  0.00000000000E+00 0. -1.
          2   -1    0    0  502    0  0.00000000000E+00 -0.00000000000E+00 -0.19662511737E+04  0.19662511737E+04  0.00000000000E+00 0.  1.
          6    2    1    2  502    0 -0.18983749378E+03  0.97120949350E+01 -0.10236815086E+04  0.10550184854E+04  0.17031610258E+03 0.  0.
         24    2    3    3    0    0 -0.45358691854E+02 -0.39135942642E+02 -0.50406051640E+03  0.51345748196E+03  0.77282266132E+02 0.  0.
         -6    2    1    2    0  501  0.18983749378E+03 -0.97120949350E+01 -0.90924059396E+03  0.94456175935E+03  0.17130633582E+03 0.  0.
        -24    2    5    5    0    0  0.17530453754E+03  0.34203856835E+02 -0.82919079593E+03  0.85198812487E+03  0.80154876052E+02 0.  0.
          5    1    3    3  502    0 -0.14447880192E+03  0.48848037577E+02 -0.51962099216E+03  0.54156100347E+03  0.47000000000E+01 0. -1.
        -13    1    4    4    0    0 -0.61373626980E+01  0.18407759225E+02 -0.22514977720E+03  0.22598436892E+03  0.00000000000E+00 0.  1.
         14    1    4    4    0    0 -0.39221329156E+02 -0.57543701867E+02 -0.27891073920E+03  0.28747311305E+03  0.00000000000E+00 0. -1.
         -5    1    5    5    0  501  0.14532956234E+02 -0.43915951770E+02 -0.80049798028E+02  0.92573634481E+02  0.47000000000E+01 0.  1.
         11    1    6    6    0    0  0.12583108242E+01 -0.81052392761E+01 -0.78838056273E+01  0.11376846708E+02  0.00000000000E+00 0. -1.
        -12    1    6    6    0    0  0.17404622672E+03  0.42309096111E+02 -0.82130699031E+03  0.84061127816E+03  0.00000000000E+00 0.  1.
</event>
<event>
12    1  0.2625820E-002  0.1766482E+03  0.7818608E-02  0.1171087E+00
          1   -1    0    0  502    0  0.00000000000E+00  0.00000000000E+00  0.65761869047E+03  0.65761869047E+03  0.00000000000E+00 0.  1.
         -1   -1    0    0    0  501 -0.00000000000E+00 -0.00000000000E+00 -0.56039491450E+02  0.56039491450E+02  0.00000000000E+00 0. -1.
          6    2    1    2  502    0  0.26994336318E+02  0.32402232007E+02  0.43927225970E+03  0.47315103287E+03  0.17068445427E+03 0.  0.
         24    2    3    3    0    0  0.50922900456E+02 -0.21963716116E+02  0.17480737547E+03  0.20205695789E+03  0.84816561453E+02 0.  0.
         -6    2    1    2    0  501 -0.26994336318E+02 -0.32402232007E+02  0.16230693932E+03  0.24050714905E+03  0.17239938330E+03 0.  0.
        -24    2    5    5    0    0 -0.75579716890E+02 -0.22474049469E+02  0.78492655267E+02  0.14300826585E+03  0.89849266365E+02 0.  0.
          5    1    3    3  502    0 -0.23928564138E+02  0.54365948123E+02  0.26446488423E+03  0.27109407498E+03  0.47000000000E+01 0. -1.
        -11    1    4    4    0    0  0.29366327724E+02 -0.25258324243E+02  0.17600531931E+03  0.18021719278E+03  0.00000000000E+00 0.  1.
         12    1    4    4    0    0  0.21556572732E+02  0.32946081265E+01 -0.11979438406E+01  0.21839765111E+02  0.00000000000E+00 0. -1.
         -5    1    5    5    0  501  0.48585380572E+02 -0.99281825387E+01  0.83814284050E+02  0.97498883197E+02  0.47000000000E+01 0.  1.
         11    1    6    6    0    0  0.10672629363E+02 -0.27139258869E+02  0.37197680967E+02  0.47266392487E+02  0.00000000000E+00 0. -1.
        -12    1    6    6    0    0 -0.86252346253E+02  0.46652094001E+01  0.41294974301E+02  0.95741873365E+02  0.00000000000E+00 0.  1.
</event>
<event>
12    1  0.2625820E-002  0.1785579E+03  0.7818608E-02  0.1169206E+00
         -1   -1    0    0    0  501 -0.00000000000E+00  0.00000000000E+00  0.21746992169E+02  0.21746992169E+02  0.00000000000E+00 0. -1.
          1   -1    0    0  502    0  0.00000000000E+00 -0.00000000000E+00 -0.14890298826E+04  0.14890298826E+04  0.00000000000E+00 0.  1.
          6    2    1    2  502    0  0.54829650458E+01  0.46383793340E+02 -0.63751960831E+03  0.66189447467E+03  0.17173096817E+03 0.  0.
         24    2    3    3    0    0 -0.29108018398E+02  0.17368743390E+02 -0.14537512688E+03  0.16766103806E+03  0.76337056445E+02 0.  0.
         -6    2    1    2    0  501 -0.54829650458E+01 -0.46383793340E+02 -0.82976328207E+03  0.84888240005E+03  0.17295290009E+03 0.  0.
        -24    2    5    5    0    0  0.59350792729E+02 -0.18807834909E+02 -0.36208319939E+03  0.37590185144E+03  0.79509165388E+02 0.  0.
          5    1    3    3  502    0  0.34590983444E+02  0.29015049949E+02 -0.49214448143E+03  0.49423343661E+03  0.47000000000E+01 0. -1.
        -13    1    4    4    0    0 -0.35577053067E+02  0.27947066054E+02 -0.14819332535E+03  0.15494523834E+03  0.00000000000E+00 0.  1.
         14    1    4    4    0    0  0.64690346686E+01 -0.10578322663E+02  0.28181984714E+01  0.12715799721E+02  0.00000000000E+00 0. -1.
         -5    1    5    5    0  501 -0.64833757775E+02 -0.27575958430E+02 -0.46768008268E+03  0.47298054861E+03  0.47000000000E+01 0.  1.
         11    1    6    6    0    0  0.12948339794E+02  0.23823001029E+02 -0.44359954638E+02  0.51990388121E+02  0.00000000000E+00 0. -1.
        -12    1    6    6    0    0  0.46402452935E+02 -0.42630835938E+02 -0.31772324475E+03  0.32391146332E+03  0.00000000000E+00 0.  1.
</event>
<event>
12    1  0.2625820E-002  0.2178491E+03  0.7818608E-02  0.1135497E+00
          2   -1    0    0  502    0  0.00000000000E+00  0.00000000000E+00  0.21044415978E+04  0.21044415978E+04  0.00000000000E+00 0. -1.
         -2   -1    0    0    0  501 -0.00000000000E+00 -0.00000000000E+00 -0.22552083775E+02  0.22552083775E+02  0.00000000000E+00 0.  1.
          6    2    1    2  502    0  0.13273485866E+03 -0.20976619816E+02  0.10416705291E+04  0.10643898335E+04  0.17259682875E+03 0.  0.
         24    2    3    3    0    0  0.16126398743E+03 -0.23778909640E+02  0.97322268938E+03  0.99003285151E+03  0.80194349882E+02 0.  0.
         -6    2    1    2    0  501 -0.13273485866E+03  0.20976619816E+02  0.10402189849E+04  0.10626038480E+04  0.17033155887E+03 0.  0.
        -24    2    5    5    0    0 -0.18768986404E+02 -0.29533795513E+02  0.40304075928E+03  0.41332909622E+03  0.84702822913E+02 0.  0.
          5    1    3    3  502    0 -0.28529128771E+02  0.28022898233E+01  0.68447839715E+02  0.74356982042E+02  0.47000000000E+01 0. -1.
        -13    1    4    4    0    0  0.98794777601E+02  0.19679003694E+02  0.66321262917E+03  0.67081939652E+03  0.00000000000E+00 0.  1.
         14    1    4    4    0    0  0.62469209833E+02 -0.43457913334E+02  0.31001006021E+03  0.31921345498E+03  0.00000000000E+00 0. -1.
         -5    1    5    5    0  501 -0.11396587226E+03  0.50510415329E+02  0.63717822563E+03  0.64927475179E+03  0.47000000000E+01 0.  1.
         13    1    6    6    0    0  0.62544237800E+01  0.20595502264E+02  0.23933817126E+03  0.24030408392E+03  0.00000000000E+00 0. -1.
        -14    1    6    6    0    0 -0.25023410184E+02 -0.50129297777E+02  0.16370258803E+03  0.17302501230E+03  0.00000000000E+00 0.  1.
</event>
<event>
12    1  0.2625820E-002  0.1983201E+03  0.7818608E-02  0.1151164E+00
          1   -1    0    0  502    0  0.00000000000E+00  0.00000000000E+00  0.40136112576E+03  0.40136112576E+03  0.00000000000E+00 0. -1.
         -1   -1    0    0    0  501 -0.00000000000E+00 -0.00000000000E+00 -0.10270042208E+03  0.10270042208E+03  0.00000000000E+00 0.  1.
          6    2    1    2  502    0  0.95816583808E+02  0.20183022232E+02  0.20304427529E+03  0.28359548227E+03  0.17207919025E+03 0.  0.
         24    2    3    3    0    0  0.23965441673E+02 -0.33907555499E+02  0.40648889454E+02  0.97900225017E+02  0.78791224956E+02 0.  0.
         -6    2    1    2    0  501 -0.95816583808E+02 -0.20183022232E+02  0.95616428390E+02  0.22046606558E+03  0.17284273943E+03 0.  0.
        -24    2    5    5    0    0 -0.56690966061E+02  0.55510159548E+02  0.43567107906E+02  0.12050860715E+03  0.79554937371E+02 0.  0.
          5    1    3    3  502    0  0.71851142135E+02  0.54090577730E+02  0.16239538584E+03  0.18569525725E+03  0.47000000000E+01 0. -1.
        -13    1    4    4    0    0 -0.26734222540E+01  0.15248222266E+02 -0.13148511013E+02  0.20311051442E+02  0.00000000000E+00 0.  1.
         14    1    4    4    0    0  0.26638863927E+02 -0.49155777765E+02  0.53797400467E+02  0.77589173574E+02  0.00000000000E+00 0. -1.
         -5    1    5    5    0  501 -0.39125617746E+02 -0.75693181780E+02  0.52049320484E+02  0.99957458425E+02  0.47000000000E+01 0.  1.
         13    1    6    6    0    0 -0.17406710240E+01 -0.13817810959E+02 -0.99500281632E+01  0.17116217332E+02  0.00000000000E+00 0. -1.
        -14    1    6    6    0    0 -0.54950295037E+02  0.69327970508E+02  0.53517136069E+02  0.10339238982E+03  0.00000000000E+00 0.  1.
</event>
<event>
12    1  0.2625820E-002  0.2313781E+03  0.7818608E-02  0.1125674E+00
          2   -1    0    0  502    0  0.00000000000E+00  0.00000000000E+00  0.16406844972E+03  0.16406844972E+03  0.00000000000E+00 0. -1.
         -2   -1    0    0    0  501 -0.00000000000E+00 -0.00000000000E+00 -0.32733229453E+03  0.32733229453E+03  0.00000000000E+00 0.  1.
          6    2    1    2  502    0  0.49314795963E+02  0.14731896302E+03 -0.67941702050E+02  0.24140235575E+03  0.17182606473E+03 0.  0.
         24    2    3    3    0    0 -0.28319561323E+02  0.37180128162E+02 -0.51684183811E+02  0.10559347065E+03  0.79337044965E+02 0.  0.
         -6    2    1    2    0  501 -0.49314795963E+02 -0.14731896302E+03 -0.95322142764E+02  0.24999838850E+03  0.17110832063E+03 0.  0.
        -24    2    5    5    0    0 -0.43663772005E+02 -0.75514971728E+02 -0.12441123318E+03  0.17217800288E+03  0.80981934992E+02 0.  0.
          5    1    3    3  502    0  0.77634357285E+02  0.11013883485E+03 -0.16257518239E+02  0.13580888510E+03  0.47000000000E+01 0. -1.
        -13    1    4    4    0    0  0.13573723077E+02 -0.15290419281E+01 -0.46332361212E+02  0.48303950385E+02  0.00000000000E+00 0.  1.
         14    1    4    4    0    0 -0.41893284400E+02  0.38709170091E+02 -0.53518226000E+01  0.57289520264E+02  0.00000000000E+00 0. -1.
         -5    1    5    5    0  501 -0.56510239572E+01 -0.71803991287E+02  0.29089090415E+02  0.77820385618E+02  0.47000000000E+01 0.  1.
         11    1    6    6    0    0 -0.61763695208E+02 -0.44637841587E+02 -0.54665363034E+02  0.93784822135E+02  0.00000000000E+00 0. -1.
        -12    1    6    6    0    0  0.18099923202E+02 -0.30877130142E+02 -0.69745870145E+02  0.78393180749E+02  0.00000000000E+00 0.  1.
</event>
<event>
12    1  0.2625820E-002  0.1767261E+03  0.7818608E-02  0.1171010E+00
          2   -1    0    0  502    0  0.00000000000E+00  0.00000000000E+00  0.54991574214E+03  0.54991574214E+03  0.00000000000E+00 0. -1.
         -2   -1    0    0    0  501 -0.00000000000E+00 -0.00000000000E+00 -0.58388872834E+02  0.58388872834E+02  0.00000000000E+00 0.  1.
          6    2    1    2  502    0 -0.35135032961E+02 -0.32022320768E+01  0.30000023391E+03  0.34981065538E+03  0.17641606911E+03 0.  0.
         24    2    3    3    0    0 -0.43790520571E+02  0.44739804356E+02  0.27842121827E+03  0.29632140189E+03  0.79804377383E+02 0.  0.
         -6    2    1    2    0  501  0.35135032961E+02  0.32022320768E+01  0.19152663539E+03  0.25849395959E+03  0.16997632261E+03 0.  0.
        -24    2    5    5    0    0  0.71457484531E+01  0.53481282220E+02  0.55963559202E+02  0.11114803818E+03  0.79439644783E+02 0.  0.
          5    1    3    3  502    0  0.86554876092E+01 -0.47942036432E+02  0.21579015639E+02  0.53489253491E+02  0.47000000000E+01 0. -1.
        -13    1    4    4    0    0 -0.38360252633E+02  0.55917703702E+02  0.12341203928E+03  0.14081487850E+03  0.00000000000E+00 0.  1.
         14    1    4    4    0    0 -0.54302679374E+01 -0.11177899347E+02  0.15500917900E+03  0.15550652339E+03  0.00000000000E+00 0. -1.
         -5    1    5    5    0  501  0.27989284508E+02 -0.50279050143E+02  0.13556307619E+03  0.14734592141E+03  0.47000000000E+01 0.  1.
         11    1    6    6    0    0 -0.14557952174E+01  0.59220440219E+02  0.71270915667E+02  0.92675365116E+02  0.00000000000E+00 0. -1.
        -12    1    6    6    0    0  0.86015436705E+01 -0.57391579987E+01 -0.15307356466E+02  0.18472673061E+02  0.00000000000E+00 0.  1.
</event>
<event>
12    1  0.2625820E-002  0.2293654E+03  0.7818608E-02  0.1127087E+00
          1   -1    0    0  502    0  0.00000000000E+00  0.00000000000E+00  0.94774221212E+02  0.94774221212E+02  0.00000000000E+00 0. -1.
         -1   -1    0    0    0  501 -0.00000000000E+00 -0.00000000000E+00 -0.55517984656E+03  0.55517984656E+03  0.00000000000E+00 0.  1.
          6    2    1    2  502    0  0.10015310178E+03  0.11334258284E+03 -0.23435535261E+03  0.32797950458E+03  0.17254257226E+03 0.  0.
         24    2    3    3    0    0  0.12330055794E+03  0.10086828679E+03 -0.24173642435E+03  0.30026699823E+03  0.79663871971E+02 0.  0.
         -6    2    1    2    0  501 -0.10015310178E+03 -0.11334258284E+03 -0.22605027273E+03  0.32197456319E+03  0.17231282210E+03 0.  0.
        -24    2    5    5    0    0 -0.39911118753E+02 -0.11537654034E+03 -0.93807645729E+02  0.17656673706E+03  0.86436651823E+02 0.  0.
          5    1    3    3  502    0 -0.23147456155E+02  0.12474296047E+02  0.73810717379E+01  0.27712506352E+02  0.47000000000E+01 0. -1.
        -13    1    4    4    0    0  0.12135279532E+03  0.87652758245E+02 -0.24444140154E+03  0.28663758607E+03  0.00000000000E+00 0.  1.
         14    1    4    4    0    0  0.19477626156E+01  0.13215528550E+02  0.27049771931E+01  0.13629412155E+02  0.00000000000E+00 0. -1.
         -5    1    5    5    0  501 -0.60241983029E+02  0.20339575023E+01 -0.13224262701E+03  0.14540782613E+03  0.47000000000E+01 0.  1.
         13    1    6    6    0    0 -0.57550225127E+02 -0.58079756645E+02 -0.25424123844E+02  0.85625186817E+02  0.00000000000E+00 0. -1.
        -14    1    6    6    0    0  0.17639106375E+02 -0.57296783699E+02 -0.68383521885E+02  0.90941550247E+02  0.00000000000E+00 0.  1.
</event>
<event>
12    1  0.2625820E-002  0.3768142E+03  0.7818608E-02  0.1052118E+00
         -2   -1    0    0    0  501 -0.00000000000E+00  0.00000000000E+00  0.16630839213E+03  0.16630839213E+03  0.00000000000E+00 0. -1.
          2   -1    0    0  502    0  0.00000000000E+00 -0.00000000000E+00 -0.86938344381E+03  0.86938344381E+03  0.00000000000E+00 0.  1.
          6    2    1    2  502    0  0.86522725727E+02 -0.32388492545E+03 -0.28218871598E+03  0.47080921016E+03  0.17217204752E+03 0.  0.
         24    2    3    3    0    0  0.37217617541E+02 -0.26834527781E+03 -0.14838814848E+03  0.31770686526E+03  0.74325436039E+02 0.  0.
         -6    2    1    2    0  501 -0.86522725727E+02  0.32388492545E+03 -0.42088633570E+03  0.56488262579E+03  0.17192860824E+03 0.  0.
        -24    2    5    5    0    0 -0.51992442482E+02  0.25479500438E+03 -0.40068303015E+03  0.48490749709E+03  0.83454668852E+02 0.  0.
          5    1    3    3  502    0  0.49305108186E+02 -0.55539647639E+02 -0.13380056750E+03  0.15310234490E+03  0.47000000000E+01 0. -1.
        -11    1    4    4    0    0  0.24916757492E+02 -0.21631947245E+03 -0.14967672643E+03  0.26423111361E+03  0.00000000000E+00 0.  1.
         12    1    4    4    0    0  0.12300860049E+02 -0.52025805360E+02  0.12885779416E+01  0.53475751649E+02  0.00000000000E+00 0. -1.
         -5    1    5    5    0  501 -0.34530283245E+02  0.69089921071E+02 -0.20203305555E+02  0.79975128696E+02  0.47000000000E+01 0.  1.
         13    1    6    6    0    0 -0.22774006568E+02  0.17791275990E+03 -0.20352658721E+03  0.27128338912E+03  0.00000000000E+00 0. -1.
        -14    1    6    6    0    0 -0.29218435914E+02  0.76882244472E+02 -0.19715644294E+03  0.21362410797E+03  0.00000000000E+00 0.  1.
</event>
<event>
12    1  0.2625820E-002  0.1837289E+03  0.7818608E-02  0.1164242E+00
         -2   -1    0    0    0  501 -0.00000000000E+00  0.00000000000E+00  0.13897873480E+03  0.13897873480E+03  0.00000000000E+00 0. -1.
          2   -1    0    0  502    0  0.00000000000E+00 -0.00000000000E+00 -0.89481744348E+03  0.89481744348E+03  0.00000000000E+00 0.  1.
          6    2    1    2  502    0  0.42613887492E+02 -0.48866250513E+02 -0.81921045475E+03  0.83959546441E+03  0.17207824046E+03 0.  0.
         24    2    3    3    0    0  0.60104304002E+02 -0.90218128699E+02 -0.54511950011E+03  0.56181167454E+03  0.82007622466E+02 0.  0.
         -6    2    1    2    0  501 -0.42613887492E+02  0.48866250513E+02  0.63371746077E+02  0.19420071387E+03  0.17173842092E+03 0.  0.
        -24    2    5    5    0    0 -0.39601442542E+02  0.47598918181E+02  0.10746945129E+03  0.14973298893E+03  0.83882976528E+02 0.  0.
          5    1    3    3  502    0 -0.17490416510E+02  0.41351878186E+02 -0.27409095464E+03  0.27778378987E+03  0.47000000000E+01 0. -1.
        -11    1    4    4    0    0  0.27669924319E+02 -0.57160788187E+02 -0.46462874492E+03  0.46894866566E+03  0.00000000000E+00 0.  1.
         12    1    4    4    0    0  0.32434379684E+02 -0.33057340511E+02 -0.80490755194E+02  0.92863008884E+02  0.00000000000E+00 0. -1.
         -5    1    5    5    0  501 -0.30124449498E+01  0.12673323317E+01 -0.44097705213E+02  0.44467724935E+02  0.47000000000E+01 0.  1.
         11    1    6    6    0    0 -0.39875487953E+02 -0.13597778605E+02  0.53821245835E+02  0.68349693677E+02  0.00000000000E+00 0. -1.
        -12    1    6    6    0    0  0.27404541071E+00  0.61196696787E+02  0.53648205455E+02  0.81383295258E+02  0.00000000000E+00 0.  1.
</event>
<event>
12    1  0.2625820E-002  0.1768294E+03  0.7818608E-02  0.1170907E+00
          2   -1    0    0  502    0  0.00000000000E+00  0.00000000000E+00  0.20681533679E+03  0.20681533679E+03  0.00000000000E+00 0. -1.
         -2   -1    0    0    0  501 -0.00000000000E+00 -0.00000000000E+00 -0.17261861030E+03  0.17261861030E+03  0.00000000000E+00 0.  1.
          6    2    1    2  502    0 -0.27916767817E+02 -0.25662656621E+02  0.83994859966E+02  0.19639213424E+03  0.17342668774E+03 0.  0.
         24    2    3    3    0    0 -0.60883191553E+02 -0.70053328133E+02  0.64867284758E+02  0.13769570382E+03  0.78346093851E+02 0.  0.
         -6    2    1    2    0  501  0.27916767817E+02  0.25662656621E+02 -0.49798133471E+02  0.18304181285E+03  0.17200736404E+03 0.  0.
        -24    2    5    5    0    0 -0.23470361155E+02  0.90527266685E+01  0.28305600234E+02  0.87969156344E+02  0.79401232676E+02 0.  0.
          5    1    3    3  502    0  0.32966423736E+02  0.44390671513E+02  0.19127575208E+02  0.58696430425E+02  0.47000000000E+01 0. -1.
        -11    1    4    4    0    0 -0.20036638330E+02 -0.60225250121E+02  0.38156618144E+01  0.63585429957E+02  0.00000000000E+00 0.  1.
         12    1    4    4    0    0 -0.40846553223E+02 -0.98280780120E+01  0.61051622943E+02  0.74110273860E+02  0.00000000000E+00 0. -1.
         -5    1    5    5    0  501  0.51387128972E+02  0.16609929952E+02 -0.78103733705E+02  0.95072656509E+02  0.47000000000E+01 0.  1.
         11    1    6    6    0    0 -0.20066866475E+02  0.37031206685E+02  0.39404727866E+02  0.57677742474E+02  0.00000000000E+00 0. -1.
        -12    1    6    6    0    0 -0.34034946803E+01 -0.27978480016E+02 -0.11099127633E+02  0.30291413870E+02  0.00000000000E+00 0.  1.
</event>
<event>
12    1  0.2625820E-002  0.1815565E+03  0.7818608E-02  0.1166305E+00
         -2   -1    0    0    0  501 -0.00000000000E+00  0.00000000000E+00  0.21022250470E+02  0.21022250470E+02  0.00000000000E+00 0.  1.
          2   -1    0    0  502    0  0.00000000000E+00 -0.00000000000E+00 -0.15686813866E+04  0.15686813866E+04  0.00000000000E+00 0. -1.
          6    2    1    2  502    0  0.40922484311E+02  0.44136587420E+02 -0.75462541618E+03  0.77600422251E+03  0.17058823682E+03 0.  0.
         24    2    3    3    0    0  0.33728733961E+02 -0.39729010523E+02 -0.29800832535E+03  0.31166981047E+03  0.74920537992E+02 0.  0.
         -6    2    1    2    0  501 -0.40922484311E+02 -0.44136587420E+02 -0.79303371994E+03  0.81369941455E+03  0.17199293067E+03 0.  0.
        -24    2    5    5    0    0 -0.42081448043E+02  0.24034713462E+02 -0.62742341110E+03  0.63454156835E+03  0.81451515914E+02 0.  0.
          5    1    3    3  502    0  0.71937503492E+01  0.83865597943E+02 -0.45661709083E+03  0.46433441204E+03  0.47000000000E+01 0. -1.
        -11    1    4    4    0    0 -0.12963064415E+02 -0.41392949080E+01 -0.80140061804E+01  0.15792374629E+02  0.00000000000E+00 0.  1.
         12    1    4    4    0    0  0.46691798377E+02 -0.35589715615E+02 -0.28999431917E+03  0.29587743584E+03  0.00000000000E+00 0. -1.
         -5    1    5    5    0  501  0.11589637320E+01 -0.68171300882E+02 -0.16561030885E+03  0.17915784620E+03  0.47000000000E+01 0.  1.
         11    1    6    6    0    0  0.28963830055E+01 -0.21140594628E+02 -0.31268267648E+03  0.31340990723E+03  0.00000000000E+00 0. -1.
        -12    1    6    6    0    0 -0.44977831048E+02  0.45175308090E+02 -0.31474073462E+03  0.32113166112E+03  0.00000000000E+00 0.  1.
</event>
<event>
12    1  0.2625820E-002  0.2529158E+03  0.7818608E-02  0.1111476E+00
          2   -1    0    0  502    0  0.00000000000E+00  0.00000000000E+00  0.88077326343E+03  0.88077326343E+03  0.00000000000E+00 0. -1.
         -2   -1    0    0    0  501 -0.00000000000E+00 -0.00000000000E+00 -0.72912389083E+02  0.72912389083E+02  0.00000000000E+00 0.  1.
          6    2    1    2  502    0 -0.89252242784E+02 -0.16242106801E+03  0.37360855944E+03  0.45102319251E+03  0.17173234499E+03 0.  0.
         24    2    3    3    0    0 -0.76633085239E+02 -0.88998732919E+02  0.12183203935E+03  0.18841399903E+03  0.82845549098E+02 0.  0.
         -6    2    1    2    0  501  0.89252242784E+02  0.16242106801E+03  0.43425231490E+03  0.50266246000E+03  0.17247582300E+03 0.  0.
        -24    2    5    5    0    0  0.21240369124E+02  0.16344149729E+03  0.32548235410E+03  0.37428936856E+03  0.83603183347E+02 0.  0.
          5    1    3    3  502    0 -0.12619157545E+02 -0.73422335095E+02  0.25177652010E+03  0.26260919348E+03  0.47000000000E+01 0. -1.
        -13    1    4    4    0    0  0.88472034790E+01 -0.39912354942E+02  0.16310645785E+02  0.44014841273E+02  0.00000000000E+00 0.  1.
         14    1    4    4    0    0 -0.85480288718E+02 -0.49086377977E+02  0.10552139356E+03  0.14439915776E+03  0.00000000000E+00 0. -1.
         -5    1    5    5    0  501  0.68011873660E+02 -0.10204292717E+01  0.10876996080E+03  0.12837309145E+03  0.47000000000E+01 0.  1.
         11    1    6    6    0    0  0.34660127383E+02  0.15642956804E+03  0.24739105327E+03  0.29474373179E+03  0.00000000000E+00 0. -1.
        -12    1    6    6    0    0 -0.13419758259E+02  0.70119292417E+01  0.78091300833E+02  0.79545636770E+02  0.00000000000E+00 0.  1.
</event>
<event>
12    1  0.2625820E-002  0.1786062E+03  0.7818608E-02  0.1169159E+00
          3   -1    0    0  502    0  0.00000000000E+00  0.00000000000E+00  0.22579248492E+03  0.22579248492E+03  0.00000000000E+00 0. -1.
         -3   -1    0    0    0  501 -0.00000000000E+00 -0.00000000000E+00 -0.14690295183E+03  0.14690295183E+03  0.00000000000E+00 0.  1.
          6    2    1    2  502    0  0.46505345755E+02  0.30149090365E+01  0.75758891843E+02  0.19342703830E+03  0.17176371151E+03 0.  0.
         24    2    3    3    0    0  0.37631320103E+02  0.50074875283E+02 -0.19849991463E+01  0.10199623746E+03  0.80471627596E+02 0.  0.
         -6    2    1    2    0  501 -0.46505345755E+02 -0.30149090365E+01  0.31306412418E+01  0.17926839845E+03  0.17307663305E+03 0.  0.
        -24    2    5    5    0    0  0.35638194371E+02  0.28574132985E+02 -0.20428495443E+01  0.90983157515E+02  0.78658755032E+02 0.  0.
          5    1    3    3  502    0  0.88740256524E+01 -0.47059966247E+02  0.77743890989E+02  0.91430800831E+02  0.47000000000E+01 0. -1.
        -11    1    4    4    0    0  0.60589739284E+02  0.22625979118E+02 -0.96711465699E+01  0.65395584817E+02  0.00000000000E+00 0.  1.
         12    1    4    4    0    0 -0.22958419181E+02  0.27448896165E+02  0.76861474237E+01  0.36600652647E+02  0.00000000000E+00 0. -1.
         -5    1    5    5    0  501 -0.82143540127E+02 -0.31589042021E+02  0.51734907861E+01  0.88285240937E+02  0.47000000000E+01 0.  1.
         11    1    6    6    0    0  0.39844564374E+02 -0.16978019123E+01  0.27526099794E+02  0.48457796188E+02  0.00000000000E+00 0. -1.
        -12    1    6    6    0    0 -0.42063700028E+01  0.30271934897E+02 -0.29568949339E+02  0.42525361327E+02  0.00000000000E+00 0.  1.
</event>
<event>
12    1  0.2625820E-002  0.1868157E+03  0.7818608E-02  0.1161365E+00
          2   -1    0    0  502    0  0.00000000000E+00  0.00000000000E+00  0.66019530985E+03  0.66019530985E+03  0.00000000000E+00 0. -1.
         -2   -1    0    0    0  501 -0.00000000000E+00 -0.00000000000E+00 -0.61021772282E+02  0.61021772282E+02  0.00000000000E+00 0.  1.
          6    2    1    2  502    0  0.63688277204E+02 -0.34051215481E+02  0.43155933927E+03  0.47029261319E+03  0.17238328451E+03 0.  0.
         24    2    3    3    0    0  0.18087820767E+02 -0.66781176670E+02  0.15035033407E+03  0.18349783187E+03  0.79242264782E+02 0.  0.
         -6    2    1    2    0  501 -0.63688277204E+02  0.34051215481E+02  0.16761419829E+03  0.25092446894E+03  0.17220013854E+03 0.  0.
        -24    2    5    5    0    0  0.32401887429E+02  0.21224617162E+02  0.84015346805E+02  0.12282802350E+03  0.80794666752E+02 0.  0.
          5    1    3    3  502    0  0.45600456437E+02  0.32729961190E+02  0.28120900520E+03  0.28679478132E+03  0.47000000000E+01 0. -1.
        -13    1    4    4    0    0  0.24071607757E+02 -0.14252022943E+02  0.44654043536E+01  0.28328471438E+02  0.00000000000E+00 0.  1.
         14    1    4    4    0    0 -0.59837869897E+01 -0.52529153728E+02  0.14588492972E+03  0.15516936043E+03  0.00000000000E+00 0. -1.
         -5    1    5    5    0  501 -0.96090164633E+02  0.12826598319E+02  0.83598851488E+02  0.12809644544E+03  0.47000000000E+01 0.  1.
         11    1    6    6    0    0  0.34116941160E+02 -0.20173328510E+02  0.67394163120E+02  0.78185050232E+02  0.00000000000E+00 0. -1.
        -12    1    6    6    0    0 -0.17150537308E+01  0.41397945671E+02  0.16621183686E+02  0.44642973268E+02  0.00000000000E+00 0.  1.
</event>
<event>
12    1  0.2625820E-002  0.2262917E+03  0.7818608E-02  0.1129277E+00
         -2   -1    0    0    0  501 -0.00000000000E+00  0.00000000000E+00  0.79335040865E+03  0.79335040865E+03  0.00000000000E+00 0.  1.
          2   -1    0    0  502    0  0.00000000000E+00 -0.00000000000E+00 -0.68401000768E+02  0.68401000768E+02  0.00000000000E+00 0. -1.
          6    2    1    2  502    0 -0.49490648556E+02  0.13849134508E+03  0.46499206608E+03  0.51719956645E+03  0.17218766813E+03 0.  0.
         24    2    3    3    0    0 -0.10349776497E+03  0.84228914128E+02  0.35749098666E+03  0.38513991283E+03  0.52217330318E+02 0.  0.
         -6    2    1    2    0  501  0.49490648556E+02 -0.13849134508E+03  0.25995734180E+03  0.34455184297E+03  0.17178176848E+03 0.  0.
        -24    2    5    5    0    0  0.59724186509E+02 -0.11058486359E+02  0.12678797786E+03  0.15988991329E+03  0.76159861267E+02 0.  0.
          5    1    3    3  502    0  0.54007116411E+02  0.54262430951E+02  0.10750107943E+03  0.13205965362E+03  0.47000000000E+01 0. -1.
        -11    1    4    4    0    0 -0.17439328985E+01 -0.33753642983E+01  0.43232929543E+02  0.43399545884E+02  0.00000000000E+00 0.  1.
         12    1    4    4    0    0 -0.10175383207E+03  0.87604278427E+02  0.31425805711E+03  0.34174036694E+03  0.00000000000E+00 0. -1.
         -5    1    5    5    0  501 -0.10233537953E+02 -0.12743285872E+03  0.13316936394E+03  0.18466192968E+03  0.47000000000E+01 0.  1.
         13    1    6    6    0    0  0.48921932048E+02 -0.12999172745E+02  0.23131960980E+02  0.55654483612E+02  0.00000000000E+00 0. -1.
        -14    1    6    6    0    0  0.10802254460E+02  0.19406863854E+01  0.10365601688E+03  0.10423542968E+03  0.00000000000E+00 0.  1.
</event>
<event>
12    1  0.2625820E-002  0.2417217E+03  0.7818608E-02  0.1118651E+00
         -2   -1    0    0    0  501 -0.00000000000E+00  0.00000000000E+00  0.13289371284E+03  0.13289371284E+03  0.00000000000E+00 0. -1.
          2   -1    0    0  502    0  0.00000000000E+00 -0.00000000000E+00 -0.46775111243E+03  0.46775111243E+03  0.00000000000E+00 0.  1.
          6    2    1    2  502    0 -0.13457066807E+02 -0.16899458134E+03 -0.93496560178E+02  0.25867240488E+03  0.17155041565E+03 0.  0.
         24    2    3    3    0    0 -0.58076817750E+01 -0.12230846657E+03 -0.13209210617E+03  0.19743669164E+03  0.80869231061E+02 0.  0.
         -6    2    1    2    0  501  0.13457066807E+02  0.16899458134E+03 -0.24136083941E+03  0.34197242039E+03  0.17306016393E+03 0.  0.
        -24    2    5    5    0    0 -0.18715943144E+02  0.14232071730E+03 -0.25118330676E+03  0.29878482429E+03  0.74658184612E+02 0.  0.
          5    1    3    3  502    0 -0.76493850320E+01 -0.46686114775E+02  0.38595545997E+02  0.61235713232E+02  0.47000000000E+01 0. -1.
        -11    1    4    4    0    0 -0.18279067498E+02 -0.12739145698E+03 -0.10114343012E+03  0.16368476128E+03  0.00000000000E+00 0.  1.
         12    1    4    4    0    0  0.12471385723E+02  0.50829904160E+01 -0.30948676055E+02  0.33751930359E+02  0.00000000000E+00 0. -1.
         -5    1    5    5    0  501  0.32173009951E+02  0.26673864040E+02  0.98224673507E+01  0.43187596101E+02  0.47000000000E+01 0.  1.
         13    1    6    6    0    0 -0.20643840057E+02  0.30771783851E+02 -0.20043665901E+02  0.42128604966E+02  0.00000000000E+00 0. -1.
        -14    1    6    6    0    0  0.19278969124E+01  0.11154893345E+03 -0.23113964086E+03  0.25665621933E+03  0.00000000000E+00 0.  1.
</event>
<event>
12    1  0.2625820E-002  0.1753426E+03  0.7818608E-02  0.1172388E+00
         -2   -1    0    0    0  501 -0.00000000000E+00  0.00000000000E+00  0.46852767161E+02  0.46852767161E+02  0.00000000000E+00 0. -1.
          2   -1    0    0  502    0  0.00000000000E+00 -0.00000000000E+00 -0.98604039993E+03  0.98604039993E+03  0.00000000000E+00 0.  1.
          6    2    1    2  502    0  0.10272037704E+02 -0.30553798383E+02 -0.17057920382E+03  0.24449786362E+03  0.17217111019E+03 0.  0.
         24    2    3    3    0    0 -0.66619655715E+01  0.41422916045E+02 -0.51866519292E+02  0.10456145179E+03  0.80515350206E+02 0.  0.
         -6    2    1    2    0  501 -0.10272037704E+02  0.30553798383E+02 -0.76860842895E+03  0.78839530347E+03  0.17253749775E+03 0.  0.
        -24    2    5    5    0    0  0.56128373885E+02  0.14835138356E+02 -0.32236022568E+03  0.33693584809E+03  0.78988448162E+02 0.  0.
          5    1    3    3  502    0  0.16934003276E+02 -0.71976714427E+02 -0.11871268453E+03  0.13993641183E+03  0.47000000000E+01 0. -1.
        -11    1    4    4    0    0 -0.89229187682E+00  0.24815096890E+02 -0.72978567144E+02  0.77087330223E+02  0.00000000000E+00 0.  1.
         12    1    4    4    0    0 -0.57696736946E+01  0.16607819155E+02  0.21112047852E+02  0.27474121571E+02  0.00000000000E+00 0. -1.
         -5    1    5    5    0  501 -0.66400411589E+02  0.15718660027E+02 -0.44624820326E+03  0.45145945537E+03  0.47000000000E+01 0.  1.
         11    1    6    6    0    0  0.48565355374E+02 -0.91270836525E+01 -0.85550069817E+02  0.98796314933E+02  0.00000000000E+00 0. -1.
        -12    1    6    6    0    0  0.75630185106E+01  0.23962222008E+02 -0.23681015587E+03  0.23813953316E+03  0.00000000000E+00 0.  1.
</event>
<event>
12    1  0.2625820E-002  0.1901763E+03  0.7818608E-02  0.1158302E+00
         -2   -1    0    0    0  501 -0.00000000000E+00  0.00000000000E+00  0.24945989544E+03  0.24945989544E+03  0.00000000000E+00 0.  1.
          2   -1    0    0  502    0  0.00000000000E+00 -0.00000000000E+00 -0.20475356783E+03  0.20475356783E+03  0.00000000000E+00 0. -1.
          6    2    1    2  502    0 -0.70883728291E+02 -0.23314932288E+02 -0.10028538882E+03  0.21567795990E+03  0.17576044541E+03 0.  0.
         24    2    3    3    0    0  0.28777239397E+02 -0.32890635157E+02 -0.40226228806E+02  0.98831071761E+02  0.78990555594E+02 0.  0.
         -6    2    1    2    0  501  0.70883728291E+02  0.23314932288E+02  0.14499171643E+03  0.23853550337E+03  0.17409336440E+03 0.  0.
        -24    2    5    5    0    0  0.70057611111E+02  0.45040998692E+01  0.14301008903E+02  0.10641176999E+03  0.78680303424E+02 0.  0.
          5    1    3    3  502    0 -0.99660967688E+02  0.95757028691E+01 -0.60059160018E+02  0.11684688814E+03  0.47000000000E+01 0. -1.
        -11    1    4    4    0    0  0.12621706514E+02 -0.58342964543E+02 -0.22086366886E+02  0.63647596884E+02  0.00000000000E+00 0.  1.
         12    1    4    4    0    0  0.16155532883E+02  0.25452329386E+02 -0.18139861920E+02  0.35183474876E+02  0.00000000000E+00 0. -1.
         -5    1    5    5    0  501  0.82611717983E+00  0.18810832418E+02  0.13069070753E+03  0.13212373337E+03  0.47000000000E+01 0.  1.
         11    1    6    6    0    0  0.33997672229E+02 -0.18483627784E+02 -0.26821493030E+02  0.47083741370E+02  0.00000000000E+00 0. -1.
        -12    1    6    6    0    0  0.36059938882E+02  0.22987727653E+02  0.41122501934E+02  0.59328028621E+02  0.00000000000E+00 0.  1.
</event>
<event>
12    1  0.2625820E-002  0.2162705E+03  0.7818608E-02  0.1136694E+00
          1   -1    0    0  502    0  0.00000000000E+00  0.00000000000E+00  0.93247281422E+03  0.93247281422E+03  0.00000000000E+00 0. -1.
         -1   -1    0    0    0  501 -0.00000000000E+00 -0.00000000000E+00 -0.51419907341E+02  0.51419907341E+02  0.00000000000E+00 0.  1.
          6    2    1    2  502    0 -0.10028212372E+03 -0.86122284391E+02  0.51727312199E+03  0.56061464465E+03  0.17100802570E+03 0.  0.
         24    2    3    3    0    0 -0.12043679055E+03 -0.30643052038E+02  0.27683172729E+03  0.31298930245E+03  0.76697334075E+02 0.  0.
         -6    2    1    2    0  501  0.10028212372E+03  0.86122284391E+02  0.36377978488E+03  0.42327807691E+03  0.17133314418E+03 0.  0.
        -24    2    5    5    0    0  0.83125640244E+02  0.95444656582E+01  0.12227357659E+03  0.16929806609E+03  0.81914826257E+02 0.  0.
          5    1    3    3  502    0  0.20154666826E+02 -0.55479232353E+02  0.24044139470E+03  0.24762534220E+03  0.47000000000E+01 0. -1.
        -13    1    4    4    0    0 -0.11122779193E+03 -0.76686228274E+01  0.26044367109E+03  0.28330431568E+03  0.00000000000E+00 0.  1.
         14    1    4    4    0    0 -0.92089986191E+01 -0.22974429210E+02  0.16388056205E+02  0.29684986766E+02  0.00000000000E+00 0. -1.
         -5    1    5    5    0  501  0.17156483478E+02  0.76577818733E+02  0.24150620830E+03  0.25398001081E+03  0.47000000000E+01 0.  1.
         13    1    6    6    0    0  0.31840111143E+02 -0.18647420414E+02  0.10015241358E+03  0.10673342921E+03  0.00000000000E+00 0. -1.
        -14    1    6    6    0    0  0.51285529100E+02  0.28191886072E+02  0.22121163011E+02  0.62564636883E+02  0.00000000000E+00 0.  1.
</event>
<event>
12    1  0.2625820E-002  0.1737773E+03  0.7818608E-02  0.1173965E+00
         -2   -1    0    0    0  501 -0.00000000000E+00  0.00000000000E+00  0.29924077177E+02  0.29924077177E+02  0.00000000000E+00 0. -1.
          2   -1    0    0  502    0  0.00000000000E+00 -0.00000000000E+00 -0.18893596837E+04  0.18893596837E+04  0.00000000000E+00 0.  1.
          6    2    1    2  502    0 -0.22618766003E+01  0.28319890036E+02 -0.27704585680E+03  0.32746849330E+03  0.17226164714E+03 0.  0.
         24    2    3    3    0    0  0.30536675393E+02  0.78694946455E+02 -0.20898112010E+03  0.23653835691E+03  0.71776755207E+02 0.  0.
         -6    2    1    2    0  501  0.22618766003E+01 -0.28319890036E+02 -0.15823897497E+04  0.15918152676E+04  0.17062061370E+03 0.  0.
        -24    2    5    5    0    0  0.11457825878E+02  0.37078450963E+02 -0.12248532674E+04  0.12282001762E+04  0.81878280737E+02 0.  0.
          5    1    3    3  502    0 -0.32798551993E+02 -0.50375056419E+02 -0.68064736702E+02  0.90930136392E+02  0.47000000000E+01 0. -1.
        -13    1    4    4    0    0  0.36034187274E+02  0.12390789133E+02 -0.11677688885E+03  0.12283662352E+03  0.00000000000E+00 0.  1.
         14    1    4    4    0    0 -0.54975118806E+01  0.66304157322E+02 -0.92204231249E+02  0.11370173339E+03  0.00000000000E+00 0. -1.
         -5    1    5    5    0  501 -0.91959492775E+01 -0.65398341000E+02 -0.35753648235E+03  0.36361509141E+03  0.47000000000E+01 0.  1.
         13    1    6    6    0    0 -0.30628974036E+02  0.37623361336E+02 -0.66233365315E+03  0.66410806309E+03  0.00000000000E+00 0. -1.
        -14    1    6    6    0    0  0.42086799913E+02 -0.54491037232E+00 -0.56251961422E+03  0.56409211307E+03  0.00000000000E+00 0.  1.
</event>
<event>
12    1  0.2625820E-002  0.2037587E+03  0.7818608E-02  0.1146606E+00
          2   -1    0    0  502    0  0.00000000000E+00  0.00000000000E+00  0.58533017607E+02  0.58533017607E+02  0.00000000000E+00 0.  1.
         -2   -1    0    0    0  501 -0.00000000000E+00 -0.00000000000E+00 -0.71235609897E+03  0.71235609897E+03  0.00000000000E+00 0. -1.
          6    2    1    2  502    0  0.10456277736E+03  0.18526240007E+02 -0.35456746129E+03  0.40976392684E+03  0.17581750525E+03 0.  0.
         24    2    3    3    0    0  0.48841702593E+02  0.37760561581E+02 -0.75509489928E+02  0.12450923594E+03  0.77391826711E+02 0.  0.
         -6    2    1    2    0  501 -0.10456277736E+03 -0.18526240007E+02 -0.29925562007E+03  0.36112518974E+03  0.17199093156E+03 0.  0.
        -24    2    5    5    0    0 -0.12828250025E+03  0.18065303835E+02 -0.18810991992E+03  0.24163869261E+03  0.78874334971E+02 0.  0.
          5    1    3    3  502    0  0.55721074769E+02 -0.19234321574E+02 -0.27905797136E+03  0.28525469090E+03  0.47000000000E+01 0. -1.
        -13    1    4    4    0    0 -0.19400447316E+02  0.19597934005E+02 -0.28609454726E+02  0.39736095342E+02  0.00000000000E+00 0.  1.
         14    1    4    4    0    0  0.68242149908E+02  0.18162627576E+02 -0.46900035202E+02  0.84773140596E+02  0.00000000000E+00 0. -1.
         -5    1    5    5    0  501  0.23719722893E+02 -0.36591543842E+02 -0.11114570015E+03  0.11948649713E+03  0.47000000000E+01 0.  1.
         11    1    6    6    0    0 -0.66040007917E+02  0.12784757476E+02 -0.15915900359E+03  0.17278981768E+03  0.00000000000E+00 0. -1.
        -12    1    6    6    0    0 -0.62242492337E+02  0.52805463589E+01 -0.28950916329E+02  0.68848874925E+02  0.00000000000E+00 0.  1.
</event>
<event>
12    1  0.2625820E-002  0.1839620E+03  0.7818608E-02  0.1164023E+00
          2   -1    0    0  502    0  0.00000000000E+00  0.00000000000E+00  0.20336209504E+03  0.20336209504E+03  0.00000000000E+00 0.  1.
         -2   -1    0    0    0  501 -0.00000000000E+00 -0.00000000000E+00 -0.20826127951E+03  0.20826127951E+03  0.00000000000E+00 0. -1.
          6    2    1    2  502    0  0.18818178275E+02  0.35003092373E+02 -0.94315187441E+02  0.21462223693E+03  0.18864784571E+03 0.  0.
         24    2    3    3    0    0  0.47930803908E+02  0.22701307717E+02  0.18222506943E+02  0.97636333784E+02  0.79925481420E+02 0.  0.
         -6    2    1    2    0  501 -0.18818178275E+02 -0.35003092373E+02  0.89416002969E+02  0.19700113763E+03  0.17098212284E+03 0.  0.
        -24    2    5    5    0    0 -0.45952061393E+02  0.20613992484E+02  0.84568285342E+01  0.94991404432E+02  0.80095694857E+02 0.  0.
          5    1    3    3  502    0 -0.29112625632E+02  0.12301784656E+02 -0.11253769438E+03  0.11698590314E+03  0.47000000000E+01 0. -1.
        -11    1    4    4    0    0  0.22815767307E+02 -0.28289453833E+02 -0.40911370367E+01  0.36573075318E+02  0.00000000000E+00 0.  1.
         12    1    4    4    0    0  0.25115036601E+02  0.50990761550E+02  0.22313643979E+02  0.61063258466E+02  0.00000000000E+00 0. -1.
         -5    1    5    5    0  501  0.27133883118E+02 -0.55617084858E+02  0.80959174435E+02  0.10200973319E+03  0.47000000000E+01 0.  1.
         13    1    6    6    0    0 -0.24185124370E+02  0.23826487108E+02 -0.33449411687E+02  0.47660097261E+02  0.00000000000E+00 0. -1.
        -14    1    6    6    0    0 -0.21766937023E+02 -0.32124946239E+01  0.41906240221E+02  0.47331307171E+02  0.00000000000E+00 0.  1.
</event>
<event>
12    1  0.2625820E-002  0.1896634E+03  0.7818608E-02  0.1158765E+00
          1   -1    0    0  502    0  0.00000000000E+00  0.00000000000E+00  0.19606608656E+04  0.19606608656E+04  0.00000000000E+00 0.  1.
         -1   -1    0    0    0  501 -0.00000000000E+00 -0.00000000000E+00 -0.18392472878E+02  0.18392472878E+02  0.00000000000E+00 0. -1.
          6    2    1    2  502    0  0.35812927961E+02 -0.81094259644E+02  0.94185798337E+03  0.96142654596E+03  0.17142257050E+03 0.  0.
         24    2    3    3    0    0  0.77383983988E+02 -0.97621853963E+02  0.75138391139E+03  0.76571304062E+03  0.78869328235E+02 0.  0.
         -6    2    1    2    0  501 -0.35812927961E+02  0.81094259644E+02  0.10004104093E+04  0.10176267925E+04  0.16396480403E+03 0.  0.
        -24    2    5    5    0    0 -0.24461955540E+02  0.88903503746E+02  0.99710696693E+03  0.10026992475E+04  0.51780857028E+02 0.  0.
          5    1    3    3  502    0 -0.41571056027E+02  0.16527594319E+02  0.19047407198E+03  0.19571350533E+03  0.47000000000E+01 0. -1.
        -13    1    4    4    0    0  0.61980242104E+02 -0.37333873627E+02  0.55526472624E+03  0.55995918131E+03  0.00000000000E+00 0.  1.
         14    1    4    4    0    0  0.15403741884E+02 -0.60287980336E+02  0.19611918515E+03  0.20575385931E+03  0.00000000000E+00 0. -1.
         -5    1    5    5    0  501 -0.11350972421E+02 -0.78092441022E+01  0.33034423918E+01  0.14927545009E+02  0.47000000000E+01 0.  1.
         13    1    6    6    0    0  0.88366143223E+01  0.44843356248E+02  0.30670419611E+03  0.31009107737E+03  0.00000000000E+00 0. -1.
        -14    1    6    6    0    0 -0.33298569862E+02  0.44060147498E+02  0.69040277082E+03  0.69260817011E+03  0.00000000000E+00 0.  1.
</event>
<event>
12    1  0.2625820E-002  0.2635785E+03  0.7818608E-02  0.1105012E+00
          1   -1    0    0  502    0  0.00000000000E+00  0.00000000000E+00  0.24303958220E+03  0.24303958220E+03  0.00000000000E+00 0.  1.
         -1   -1    0    0    0  501 -0.00000000000E+00 -0.00000000000E+00 -0.72521981495E+03  0.72521981495E+03  0.00000000000E+00 0. -1.
          6    2    1    2  502    0  0.14123095946E+03 -0.14128925790E+03  0.13568278176E+03  0.29658133390E+03  0.17216803431E+03 0.  0.
         24    2    3    3    0    0  0.55376570282E+01 -0.34010580060E+02  0.22395895956E+02  0.89754363844E+02  0.79792759521E+02 0.  0.
         -6    2    1    2    0  501 -0.14123095946E+03  0.14128925790E+03 -0.61786301452E+03  0.67167806325E+03  0.17172034717E+03 0.  0.
        -24    2    5    5    0    0 -0.17633197272E+02  0.65200934827E+02 -0.36947847660E+03  0.38395804587E+03  0.79670225087E+02 0.  0.
          5    1    3    3  502    0  0.13569330244E+03 -0.10727867784E+03  0.11328688581E+03  0.20682697006E+03  0.47000000000E+01 0. -1.
        -13    1    4    4    0    0 -0.14730120509E+02  0.17930812715E+02  0.24778336288E+02  0.33947848887E+02  0.00000000000E+00 0.  1.
         14    1    4    4    0    0  0.20267777537E+02 -0.51941392775E+02 -0.23824403319E+01  0.55806514957E+02  0.00000000000E+00 0. -1.
         -5    1    5    5    0  501 -0.12359776219E+03  0.76088323076E+02 -0.24838453792E+03  0.28772001738E+03  0.47000000000E+01 0.  1.
         11    1    6    6    0    0  0.23284190666E+02 -0.41049367527E+01 -0.97149496491E+02  0.99985142442E+02  0.00000000000E+00 0. -1.
        -12    1    6    6    0    0 -0.40917387939E+02  0.69305871580E+02 -0.27232898011E+03  0.28397290342E+03  0.00000000000E+00 0.  1.
</event>
<event>
12    1  0.2625820E-002  0.1807237E+03  0.7818608E-02  0.1167105E+00
          2   -1    0    0  502    0  0.00000000000E+00  0.00000000000E+00  0.35791067692E+02  0.35791067692E+02  0.00000000000E+00 0.  1.
         -2   -1    0    0    0  501 -0.00000000000E+00 -0.00000000000E+00 -0.99260351488E+03  0.99260351488E+03  0.00000000000E+00 0. -1.
          6    2    1    2  502    0  0.31100110385E+02 -0.41397407880E+02 -0.62387949915E+03  0.64946471537E+03  0.17290987480E+03 0.  0.
         24    2    3    3    0    0 -0.28149867170E+02 -0.40396325553E+02 -0.20196143975E+03  0.22337962897E+03  0.81766480613E+02 0.  0.
         -6    2    1    2    0  501 -0.31100110385E+02  0.41397407880E+02 -0.33293294803E+03  0.37892986720E+03  0.17338550725E+03 0.  0.
        -24    2    5    5    0    0 -0.16157013169E+02  0.55756507633E+02 -0.34204059082E+03  0.35581019901E+03  0.78989206438E+02 0.  0.
          5    1    3    3  502    0  0.59249977554E+02 -0.10010823273E+01 -0.42191805940E+03  0.42608508641E+03  0.47000000000E+01 0. -1.
        -11    1    4    4    0    0  0.26733352245E+02 -0.38229533483E+01 -0.37717659339E+02  0.46388672330E+02  0.00000000000E+00 0.  1.
         12    1    4    4    0    0 -0.54883219414E+02 -0.36573372204E+02 -0.16424378041E+03  0.17699095664E+03  0.00000000000E+00 0. -1.
         -5    1    5    5    0  501 -0.14943097216E+02 -0.14359099753E+02  0.91076427844E+01  0.23119668190E+02  0.47000000000E+01 0.  1.
         13    1    6    6    0    0 -0.31705678306E+02  0.15736016959E+02 -0.53866148479E+02  0.64454900656E+02  0.00000000000E+00 0. -1.
        -14    1    6    6    0    0  0.15548665137E+02  0.40020490675E+02 -0.28817444234E+03  0.29135529835E+03  0.00000000000E+00 0.  1.
</event>
<event>
12    1  0.2625820E-002  0.3289104E+03  0.7818608E-02  0.1071620E+00
         -2   -1    0    0    0  501 -0.00000000000E+00  0.00000000000E+00  0.61204532579E+02  0.61204532579E+02  0.00000000000E+00 0.  1.
          2   -1    0    0  502    0  0.00000000000E+00 -0.00000000000E+00 -0.18245342880E+04  0.18245342880E+04  0.00000000000E+00 0. -1.
          6    2    1    2  502    0 -0.25654089749E+03 -0.11217679987E+03 -0.71326921827E+03  0.78516621520E+03  0.17127796486E+03 0.  0.
         24    2    3    3    0    0 -0.70027838770E+02  0.72601313282E+01 -0.24544459384E+03  0.26754253836E+03  0.79870854977E+02 0.  0.
         -6    2    1    2    0  501  0.25654089749E+03  0.11217679987E+03 -0.10500605372E+04  0.11005726054E+04  0.17388519639E+03 0.  0.
        -24    2    5    5    0    0  0.97689180036E+02  0.10830145761E+03 -0.44526186851E+03  0.47523077406E+03  0.79459269084E+02 0.  0.
          5    1    3    3  502    0 -0.18651305872E+03 -0.11943693120E+03 -0.46782462443E+03  0.51762367684E+03  0.47000000000E+01 0. -1.
        -11    1    4    4    0    0 -0.57892672541E+02 -0.17482097979E+02 -0.82538590816E+02  0.10232206144E+03  0.00000000000E+00 0.  1.
         12    1    4    4    0    0 -0.12135166229E+02  0.24742229307E+02 -0.16290600303E+03  0.16522047692E+03  0.00000000000E+00 0. -1.
         -5    1    5    5    0  501  0.15885171745E+03  0.38753422531E+01 -0.60479866869E+03  0.62534183137E+03  0.47000000000E+01 0.  1.
         11    1    6    6    0    0  0.23228287147E+02 -0.99334650422E+01 -0.89995681835E+02  0.93474326959E+02  0.00000000000E+00 0. -1.
        -12    1    6    6    0    0  0.74460892889E+02  0.11823492266E+03 -0.35526618668E+03  0.38175644710E+03  0.00000000000E+00 0.  1.
</event>
<event>
12    1  0.2625820E-002  0.3884728E+03  0.7818608E-02  0.1047846E+00
          2   -1    0    0  502    0  0.00000000000E+00  0.00000000000E+00  0.14578727369E+04  0.14578727369E+04  0.00000000000E+00 0. -1.
         -2   -1    0    0    0  501 -0.00000000000E+00 -0.00000000000E+00 -0.33971140409E+03  0.33971140409E+03  0.00000000000E+00 0.  1.
          6    2    1    2  502    0 -0.24724266648E+03  0.24672700549E+03 -0.19000318099E+03  0.43319235414E+03  0.17190478623E+03 0.  0.
         24    2    3    3    0    0 -0.15335926579E+03  0.19883864313E+03 -0.19470885424E+03  0.32759111581E+03  0.79677668350E+02 0.  0.
         -6    2    1    2    0  501  0.24724266648E+03 -0.24672700549E+03  0.13081645138E+04  0.13643917868E+04  0.16812912151E+03 0.  0.
        -24    2    5    5    0    0  0.57862189977E+02 -0.12714726921E+03  0.46456980628E+03  0.49155824100E+03  0.79309131206E+02 0.  0.
          5    1    3    3  502    0 -0.93883400690E+02  0.47888362365E+02  0.47056732502E+01  0.10560123833E+03  0.47000000000E+01 0. -1.
        -13    1    4    4    0    0 -0.83992296968E+02  0.10219658809E+03 -0.15126251022E+03  0.20094575279E+03  0.00000000000E+00 0.  1.
         14    1    4    4    0    0 -0.69366968820E+02  0.96642055036E+02 -0.43446344021E+02  0.12664536302E+03  0.00000000000E+00 0. -1.
         -5    1    5    5    0  501  0.18938047650E+03 -0.11957973629E+03  0.84359470749E+03  0.87283354583E+03  0.47000000000E+01 0.  1.
         13    1    6    6    0    0  0.38575160212E+02 -0.90278590243E+02  0.19011439253E+03  0.21396670089E+03  0.00000000000E+00 0. -1.
        -14    1    6    6    0    0  0.19287029765E+02 -0.36868678966E+02  0.27445541375E+03  0.27759154011E+03  0.00000000000E+00 0.  1.
</event>
<event>
12    1  0.2625820E-002  0.1742453E+03  0.7818608E-02  0.1173492E+00
          2   -1    0    0  502    0  0.00000000000E+00  0.00000000000E+00  0.45748686101E+03  0.45748686101E+03  0.00000000000E+00 0. -1.
         -2   -1    0    0    0  501 -0.00000000000E+00 -0.00000000000E+00 -0.75367389348E+02  0.75367389348E+02  0.00000000000E+00 0.  1.
          6    2    1    2  502    0  0.29058968223E+02  0.32254364295E+01  0.98296576525E+02  0.19943558911E+03  0.17104826854E+03 0.  0.
         24    2    3    3    0    0  0.74410056275E+02 -0.11158149858E+02  0.25499283815E+02  0.11234285366E+03  0.79431369808E+02 0.  0.
         -6    2    1    2    0  501 -0.29058968223E+02 -0.32254364295E+01  0.28382289514E+03  0.33341866125E+03  0.17250432109E+03 0.  0.
        -24    2    5    5    0    0  0.45209168722E+01 -0.85790986889E+00  0.48743203035E+02  0.95894419325E+02  0.82454018197E+02 0.  0.
          5    1    3    3  502    0 -0.45351088052E+02  0.14383586287E+02  0.72797292710E+02  0.87092735449E+02  0.47000000000E+01 0. -1.
        -11    1    4    4    0    0 -0.39967629343E+00 -0.18067377334E+02 -0.18019574132E+02  0.25520480340E+02  0.00000000000E+00 0.  1.
         12    1    4    4    0    0  0.74809732569E+02  0.69092274769E+01  0.43518857947E+02  0.86822373317E+02  0.00000000000E+00 0. -1.
         -5    1    5    5    0  501 -0.33579885095E+02 -0.23675265606E+01  0.23507969210E+03  0.23752424193E+03  0.47000000000E+01 0.  1.
         11    1    6    6    0    0 -0.21319145005E+02  0.18554473526E+02  0.56038178034E+02  0.62761866041E+02  0.00000000000E+00 0. -1.
        -12    1    6    6    0    0  0.25840061877E+02 -0.19412383394E+02 -0.72949749989E+01  0.33132553284E+02  0.00000000000E+00 0.  1.
</event>
<event>
12    1  0.2625820E-002  0.1782074E+03  0.7818608E-02  0.1169549E+00
         -1   -1    0    0    0  501 -0.00000000000E+00  0.00000000000E+00  0.14112472726E+03  0.14112472726E+03  0.00000000000E+00 0. -1.
          1   -1    0    0  502    0  0.00000000000E+00 -0.00000000000E+00 -0.24162163376E+03  0.24162163376E+03  0.00000000000E+00 0.  1.
          6    2    1    2  502    0  0.14646396657E+02  0.54129830959E+02 -0.99791286362E+02  0.20243375441E+03  0.16696277596E+03 0.  0.
         24    2    3    3    0    0  0.41998231650E+00  0.57120834084E+02 -0.13207940166E+03  0.16671332113E+03  0.84174800422E+02 0.  0.
         -6    2    1    2    0  501 -0.14646396657E+02 -0.54129830959E+02 -0.70562013469E+00  0.18031260661E+03  0.17136972506E+03 0.  0.
        -24    2    5    5    0    0 -0.47088316690E+02 -0.86751768508E+02 -0.24804533751E+02  0.12816362174E+03  0.77893967262E+02 0.  0.
          5    1    3    3  502    0  0.14226414340E+02 -0.29910031246E+01  0.32288115299E+02  0.35720433287E+02  0.47000000000E+01 0. -1.
        -13    1    4    4    0    0  0.70087476217E+00 -0.21713097204E+02 -0.39813796181E+02  0.45355134020E+02  0.00000000000E+00 0.  1.
         14    1    4    4    0    0 -0.28089244567E+00  0.78833931288E+02 -0.92265605480E+02  0.12135818711E+03  0.00000000000E+00 0. -1.
         -5    1    5    5    0  501  0.32441920034E+02  0.32621937548E+02  0.24098913617E+02  0.52148984864E+02  0.47000000000E+01 0.  1.
         13    1    6    6    0    0 -0.16699996207E+02  0.12879797446E+02 -0.84732514872E+01  0.22728287360E+02  0.00000000000E+00 0. -1.
        -14    1    6    6    0    0 -0.30388320484E+02 -0.99631565953E+02 -0.16331282264E+02  0.10543533438E+03  0.00000000000E+00 0.  1.
</event>
<event>
12    1  0.2625820E-002  0.1858333E+03  0.7818608E-02  0.1162274E+00
          2   -1    0    0  502    0  0.00000000000E+00  0.00000000000E+00  0.11995598319E+03  0.11995598319E+03  0.00000000000E+00 0. -1.
         -2   -1    0    0    0  501 -0.00000000000E+00 -0.00000000000E+00 -0.30847976982E+03  0.30847976982E+03  0.00000000000E+00 0.  1.
          6    2    1    2  502    0  0.38126749967E+02 -0.60218546240E+02 -0.38867330803E+02  0.18975192619E+03  0.17150860537E+03 0.  0.
         24    2    3    3    0    0 -0.30863381185E+02 -0.17849583276E+02  0.21621288189E+02  0.88580140373E+02  0.78152448741E+02 0.  0.
         -6    2    1    2    0  501 -0.38126749967E+02  0.60218546240E+02 -0.14965645582E+03  0.23868382682E+03  0.17173523820E+03 0.  0.
        -24    2    5    5    0    0 -0.29635825071E+02  0.87117036981E+02 -0.16566172813E+03  0.20591366735E+03  0.80554143139E+02 0.  0.
          5    1    3    3  502    0  0.68990131151E+02 -0.42368962964E+02 -0.60488618992E+02  0.10117178582E+03  0.47000000000E+01 0. -1.
        -11    1    4    4    0    0  0.93128889081E+01 -0.18349924516E+02 -0.21417581645E+02  0.29701219387E+02  0.00000000000E+00 0.  1.
         12    1    4    4    0    0 -0.40176270093E+02  0.50034123940E+00  0.43038869834E+02  0.58878920986E+02  0.00000000000E+00 0. -1.
         -5    1    5    5    0  501 -0.84909248956E+01 -0.26898490741E+02  0.16005272305E+02  0.32770159464E+02  0.47000000000E+01 0.  1.
         11    1    6    6    0    0 -0.37143814279E+02  0.15310839026E+02 -0.10211183060E+03  0.10973108347E+03  0.00000000000E+00 0. -1.
        -12    1    6    6    0    0  0.75079892086E+01  0.71806197955E+02 -0.63549897524E+02  0.96182583881E+02  0.00000000000E+00 0.  1.
</event>
<event>
12    1  0.2625820E-002  0.1712789E+03  0.7818608E-02  0.1176521E+00
          2   -1    0    0  502    0  0.00000000000E+00  0.00000000000E+00  0.17718206609E+03  0.17718206609E+03  0.00000000000E+00 0. -1.
         -2   -1    0    0    0  501 -0.00000000000E+00 -0.00000000000E+00 -0.21610407482E+03  0.21610407482E+03  0.00000000000E+00 0.  1.
          6    2    1    2  502    0  0.14687010304E+02  0.11183291009E+01 -0.11456816774E+03  0.20624259769E+03  0.17086013318E+03 0.  0.
         24    2    3    3    0    0 -0.55714026411E+02 -0.86269801379E+01 -0.45417497928E+02  0.10696932758E+03  0.78747764405E+02 0.  0.
         -6    2    1    2    0  501 -0.14687010304E+02 -0.11183291009E+01  0.75646159014E+02  0.18704354322E+03  0.17042883193E+03 0.  0.
        -24    2    5    5    0    0  0.26754870755E+02 -0.50138748962E+02  0.73557126639E+02  0.12264723024E+03  0.80012342479E+02 0.  0.
          5    1    3    3  502    0  0.70401036715E+02  0.97453092389E+01 -0.69150669813E+02  0.99273270110E+02  0.47000000000E+01 0. -1.
        -11    1    4    4    0    0 -0.25581560329E+02  0.33700128328E+02 -0.83006782125E+01  0.43116309408E+02  0.00000000000E+00 0.  1.
         12    1    4    4    0    0 -0.30132466082E+02 -0.42327108466E+02 -0.37116819715E+02  0.63853018167E+02  0.00000000000E+00 0. -1.
         -5    1    5    5    0  501 -0.41441881060E+02  0.49020419862E+02  0.20890323750E+01  0.64396312980E+02  0.47000000000E+01 0.  1.
         13    1    6    6    0    0  0.16074472536E+02  0.12072409815E+02  0.52319771881E+02  0.56048998883E+02  0.00000000000E+00 0. -1.
        -14    1    6    6    0    0  0.10680398219E+02 -0.62211158777E+02  0.21237354758E+02  0.66598231355E+02  0.00000000000E+00 0.  1.
</event>
<event>
12    1  0.2625820E-002  0.2084552E+03  0.7818608E-02  0.1142795E+00
         -1   -1    0    0    0  501 -0.00000000000E+00  0.00000000000E+00  0.67416468406E+02  0.67416468406E+02  0.00000000000E+00 0.  1.
          1   -1    0    0  502    0  0.00000000000E+00 -0.00000000000E+00 -0.87395442761E+03  0.87395442761E+03  0.00000000000E+00 0. -1.
          6    2    1    2  502    0  0.36604172552E+02  0.10656921984E+03 -0.64830626137E+03  0.68185686204E+03  0.17869221505E+03 0.  0.
         24    2    3    3    0    0 -0.15746685760E+02  0.11735627463E+03 -0.33647835679E+03  0.36544620326E+03  0.79453065288E+02 0.  0.
         -6    2    1    2    0  501 -0.36604172552E+02 -0.10656921984E+03 -0.15823169783E+03  0.25951403397E+03  0.17208544262E+03 0.  0.
        -24    2    5    5    0    0  0.42362724768E+02 -0.75918470142E+02 -0.66253501585E+02  0.13438482909E+03  0.78176347177E+02 0.  0.
          5    1    3    3  502    0  0.52350858312E+02 -0.10787054784E+02 -0.31182790458E+03  0.31641065878E+03  0.47000000000E+01 0. -1.
        -11    1    4    4    0    0 -0.45043038693E+01 -0.87632761301E+01 -0.66788562356E+02  0.67511449573E+02  0.00000000000E+00 0.  1.
         12    1    4    4    0    0 -0.11242381890E+02  0.12611955076E+03 -0.26968979443E+03  0.29793475369E+03  0.00000000000E+00 0. -1.
         -5    1    5    5    0  501 -0.78966897320E+02 -0.30650749701E+02 -0.91978196248E+02  0.12512920488E+03  0.47000000000E+01 0.  1.
         13    1    6    6    0    0  0.21324467367E+01 -0.63157102547E+02 -0.67097357248E+02  0.92170615062E+02  0.00000000000E+00 0. -1.
        -14    1    6    6    0    0  0.40230278031E+02 -0.12761367595E+02  0.84385566328E+00  0.42214214025E+02  0.00000000000E+00 0.  1.
</event>
<event>
12    1  0.2625820E-002  0.2835411E+03  0.7818608E-02  0.1093770E+00
          3   -1    0    0  502    0  0.00000000000E+00  0.00000000000E+00  0.87185680181E+02  0.87185680181E+02  0.00000000000E+00 0.  1.
         -3   -1    0    0    0  501 -0.00000000000E+00 -0.00000000000E+00 -0.94908898082E+03  0.94908898082E+03  0.00000000000E+00 0. -1.
          6    2    1    2  502    0  0.73927737980E+02 -0.21335037074E+03 -0.34340164681E+03  0.44524254590E+03  0.17126745900E+03 0.  0.
         24    2    3    3    0    0  0.11517596465E+03 -0.16392472566E+03 -0.29141746759E+03  0.36236459055E+03  0.79038835698E+02 0.  0.
         -6    2    1    2    0  501 -0.73927737980E+02  0.21335037074E+03 -0.51850165383E+03  0.59103211510E+03  0.17173032612E+03 0.  0.
        -24    2    5    5    0    0 -0.76356109481E+01  0.80830688279E+02 -0.12052075182E+03  0.16633575213E+03  0.80934715027E+02 0.  0.
          5    1    3    3  502    0 -0.41248226670E+02 -0.49425645080E+02 -0.51984179211E+02  0.82877955351E+02  0.47000000000E+01 0. -1.
        -13    1    4    4    0    0  0.10608001734E+03 -0.14643662484E+03 -0.20334740170E+03  0.27211545519E+03  0.00000000000E+00 0.  1.
         14    1    4    4    0    0  0.90959473134E+01 -0.17488100829E+02 -0.88070065890E+02  0.90249135364E+02  0.00000000000E+00 0. -1.
         -5    1    5    5    0  501 -0.66292127032E+02  0.13251968247E+03 -0.39798090201E+03  0.42469636297E+03  0.47000000000E+01 0.  1.
         11    1    6    6    0    0 -0.31931724115E+00 -0.16711734810E+02 -0.15109587999E+02  0.22531837328E+02  0.00000000000E+00 0. -1.
        -12    1    6    6    0    0 -0.73162937070E+01  0.97542423088E+02 -0.10541116382E+03  0.14380391480E+03  0.00000000000E+00 0.  1.
</event>
<event>
12    1  0.2625820E-002  0.2036234E+03  0.7818608E-02  0.1146717E+00
         -2   -1    0    0    0  501 -0.00000000000E+00  0.00000000000E+00  0.66623190863E+02  0.66623190863E+02  0.00000000000E+00 0. -1.
          2   -1    0    0  502    0  0.00000000000E+00 -0.00000000000E+00 -0.69764439349E+03  0.69764439349E+03  0.00000000000E+00 0.  1.
          6    2    1    2  502    0  0.10299788847E+03  0.34521472889E+02 -0.44056733904E+03  0.48519999037E+03  0.17181138875E+03 0.  0.
         24    2    3    3    0    0  0.58928336825E+02  0.43689572495E+02 -0.11842622663E+03  0.15989526286E+03  0.78488192144E+02 0.  0.
         -6    2    1    2    0  501 -0.10299788847E+03 -0.34521472889E+02 -0.19045386359E+03  0.27906759398E+03  0.17264342078E+03 0.  0.
        -24    2    5    5    0    0 -0.46535760936E+02 -0.33771482450E+02 -0.23559921724E+02  0.10281716941E+03  0.81915873566E+02 0.  0.
          5    1    3    3  502    0  0.44069551643E+02 -0.91680996056E+01 -0.32214111241E+03  0.32530472751E+03  0.47000000000E+01 0. -1.
        -13    1    4    4    0    0  0.53079889910E+02  0.15227059697E+02 -0.11861328618E+03  0.13083749355E+03  0.00000000000E+00 0.  1.
         14    1    4    4    0    0  0.58484469144E+01  0.28462512797E+02  0.18705955100E+00  0.29057769311E+02  0.00000000000E+00 0. -1.
         -5    1    5    5    0  501 -0.56462127532E+02 -0.74999043912E+00 -0.16689394186E+03  0.17625042457E+03  0.47000000000E+01 0.  1.
         13    1    6    6    0    0 -0.51989530780E+02  0.35620845128E-01  0.12098230715E+02  0.53378645224E+02  0.00000000000E+00 0. -1.
        -14    1    6    6    0    0  0.54537698443E+01 -0.33807103295E+02 -0.35658152439E+02  0.49438524190E+02  0.00000000000E+00 0.  1.
</event>
<event>
12    1  0.2625820E-002  0.1921021E+03  0.7818608E-02  0.1156579E+00
         -1   -1    0    0    0  501 -0.00000000000E+00  0.00000000000E+00  0.87668812648E+01  0.87668812648E+01  0.00000000000E+00 0.  1.
          1   -1    0    0  502    0  0.00000000000E+00 -0.00000000000E+00 -0.42917662501E+04  0.42917662501E+04  0.00000000000E+00 0. -1.
          6    2    1    2  502    0  0.60322292442E+02  0.58490816114E+02 -0.18421479965E+04  0.18521235303E+04  0.17260468098E+03 0.  0.
         24    2    3    3    0    0  0.10132950601E+03  0.70548217690E+02 -0.12974410283E+04  0.13057218981E+04  0.79446418061E+02 0.  0.
         -6    2    1    2    0  501 -0.60322292442E+02 -0.58490816114E+02 -0.24408513724E+04  0.24484096011E+04  0.17289938776E+03 0.  0.
        -24    2    5    5    0    0 -0.11593886771E+02  0.97131306169E+01 -0.18325752463E+04  0.18343671177E+04  0.79636210937E+02 0.  0.
          5    1    3    3  502    0 -0.41007213566E+02 -0.12057401577E+02 -0.54470696813E+03  0.54640163216E+03  0.47000000000E+01 0. -1.
        -13    1    4    4    0    0  0.52615907529E+02  0.81173291111E+02 -0.88997642037E+03  0.89521816655E+03  0.00000000000E+00 0.  1.
         14    1    4    4    0    0  0.48713598478E+02 -0.10625073421E+02 -0.40746460797E+03  0.41050373155E+03  0.00000000000E+00 0. -1.
         -5    1    5    5    0  501 -0.48728405671E+02 -0.68203946731E+02 -0.60827612607E+03  0.61404248339E+03  0.47000000000E+01 0.  1.
         13    1    6    6    0    0  0.34374687678E+02  0.61554762771E+01 -0.76427510603E+03  0.76507251078E+03  0.00000000000E+00 0. -1.
        -14    1    6    6    0    0 -0.45968574449E+02  0.35576543398E+01 -0.10683001403E+04  0.10692946070E+04  0.00000000000E+00 0.  1.
</event>
<event>
12    1  0.2625820E-002  0.1748111E+03  0.7818608E-02  0.1172921E+00
          2   -1    0    0  502    0  0.00000000000E+00  0.00000000000E+00  0.37387227992E+02  0.37387227992E+02  0.00000000000E+00 0.  1.
         -2   -1    0    0    0  501 -0.00000000000E+00 -0.00000000000E+00 -0.81767870147E+03  0.81767870147E+03  0.00000000000E+00 0. -1.
          6    2    1    2  502    0 -0.27258682545E+02  0.21896038511E+02 -0.39473899485E+03  0.43115742726E+03  0.16986871620E+03 0.  0.
         24    2    3    3    0    0 -0.35943613943E+02 -0.30166911303E+02 -0.11955479246E+03  0.15091750501E+03  0.79251239713E+02 0.  0.
         -6    2    1    2    0  501  0.27258682545E+02 -0.21896038511E+02 -0.38555247863E+03  0.42390850221E+03  0.17269983264E+03 0.  0.
        -24    2    5    5    0    0  0.30694798969E+02  0.35563516089E+02 -0.33364610095E+03  0.34625691269E+03  0.79794702498E+02 0.  0.
          5    1    3    3  502    0  0.86849313984E+01  0.52062949814E+02 -0.27518420239E+03  0.28023992225E+03  0.47000000000E+01 0. -1.
        -11    1    4    4    0    0 -0.33900995781E+02  0.15914117289E+02 -0.23102032609E+02  0.44002733491E+02  0.00000000000E+00 0.  1.
         12    1    4    4    0    0 -0.20426181625E+01 -0.46081028593E+02 -0.96452759851E+02  0.10691477151E+03  0.00000000000E+00 0. -1.
         -5    1    5    5    0  501 -0.34361164244E+01 -0.57459554600E+02 -0.51906377675E+02  0.77651589515E+02  0.47000000000E+01 0.  1.
         11    1    6    6    0    0  0.91713381313E+01  0.96699708259E+01 -0.29374592990E+03  0.29404811360E+03  0.00000000000E+00 0. -1.
        -12    1    6    6    0    0  0.21523460838E+02  0.25893545263E+02 -0.39900171051E+02  0.52208799092E+02  0.00000000000E+00 0.  1.
</event>
<event>
12    1  0.2625820E-002  0.1808995E+03  0.7818608E-02  0.1166935E+00
          1   -1    0    0  502    0  0.00000000000E+00  0.00000000000E+00  0.88848480650E+03  0.88848480650E+03  0.00000000000E+00 0. -1.
         -1   -1    0    0    0  501 -0.00000000000E+00 -0.00000000000E+00 -0.44514389881E+02  0.44514389881E+02  0.00000000000E+00 0.  1.
          6    2    1    2  502    0  0.53086703909E+02  0.32290190311E+02  0.61418028892E+03  0.64003510010E+03  0.16901670788E+03 0.  0.
         24    2    3    3    0    0  0.20963371665E+02  0.11208769958E+02  0.58739198925E+03  0.59296028987E+03  0.77507785809E+02 0.  0.
         -6    2    1    2    0  501 -0.53086703909E+02 -0.32290190311E+02  0.22979012770E+03  0.29296409628E+03  0.17077354713E+03 0.  0.
        -24    2    5    5    0    0 -0.19860727568E+02  0.78680386175E+01  0.22318314681E+03  0.24021572142E+03  0.86235266952E+02 0.  0.
          5    1    3    3  502    0  0.32123332244E+02  0.21081420353E+02  0.26788299672E+02  0.47074810226E+02  0.47000000000E+01 0. -1.
        -11    1    4    4    0    0  0.13996749088E+02 -0.24443891105E+02  0.91451101389E+02  0.95690734884E+02  0.00000000000E+00 0.  1.
         12    1    4    4    0    0  0.69666225769E+01  0.35652661063E+02  0.49594088786E+03  0.49726955499E+03  0.00000000000E+00 0. -1.
         -5    1    5    5    0  501 -0.33225976341E+02 -0.40158228928E+02  0.66069808969E+01  0.52748374866E+02  0.47000000000E+01 0.  1.
         11    1    6    6    0    0 -0.33267111463E+02 -0.24463612327E+02  0.56995159863E+02  0.70381938600E+02  0.00000000000E+00 0. -1.
        -12    1    6    6    0    0  0.13406383895E+02  0.32331650944E+02  0.16618798694E+03  0.16983378282E+03  0.00000000000E+00 0.  1.
</event>
<event>
12    1  0.2625820E-002  0.1718202E+03  0.7818608E-02  0.1175963E+00
          2   -1    0    0  502    0  0.00000000000E+00  0.00000000000E+00  0.20195818359E+04  0.20195818359E+04  0.00000000000E+00 0.  1.
         -2   -1    0    0    0  501 -0.00000000000E+00 -0.00000000000E+00 -0.20775088181E+02  0.20775088181E+02  0.00000000000E+00 0. -1.
          6    2    1    2  502    0 -0.11627199473E+02  0.66102783854E+01  0.44845408010E+03  0.48062992498E+03  0.17238090172E+03 0.  0.
         24    2    3    3    0    0 -0.11932376589E+02  0.71394352587E+02  0.28794646546E+03  0.30747723583E+03  0.79934650733E+02 0.  0.
         -6    2    1    2    0  501  0.11627199473E+02 -0.66102783854E+01  0.15503526676E+04  0.15597269991E+04  0.17022347134E+03 0.  0.
        -24    2    5    5    0    0  0.40796332497E+02  0.51725120511E+02  0.82204634665E+03  0.82849102881E+03  0.79355906802E+02 0.  0.
          5    1    3    3  502    0  0.30517711593E+00 -0.64784074202E+02  0.16050761464E+03  0.17315268916E+03  0.47000000000E+01 0. -1.
        -11    1    4    4    0    0 -0.71868616376E+01  0.86418232638E+02  0.27006082400E+03  0.28364169400E+03  0.00000000000E+00 0.  1.
         12    1    4    4    0    0 -0.47455149514E+01 -0.15023880051E+02  0.17885641457E+02  0.23835541828E+02  0.00000000000E+00 0. -1.
         -5    1    5    5    0  501 -0.29169133024E+02 -0.58335398897E+02  0.72830632100E+03  0.73123597032E+03  0.47000000000E+01 0.  1.
         13    1    6    6    0    0  0.23287218193E+02  0.43770262210E+02  0.19680644434E+03  0.20295543086E+03  0.00000000000E+00 0. -1.
        -14    1    6    6    0    0  0.17509114304E+02  0.79548583008E+01  0.62523990232E+03  0.62553559795E+03  0.00000000000E+00 0.  1.
</event>
<event>
12    1  0.2625820E-002  0.2956378E+03  0.7818608E-02  0.1087442E+00
         -1   -1    0    0    0  501 -0.00000000000E+00  0.00000000000E+00  0.15278741733E+03  0.15278741733E+03  0.00000000000E+00 0. -1.
          1   -1    0    0  502    0  0.00000000000E+00 -0.00000000000E+00 -0.59388195412E+03  0.59388195412E+03  0.00000000000E+00 0.  1.
          6    2    1    2  502    0 -0.91149859155E+02  0.22347118996E+03 -0.14937037544E+03  0.33173175526E+03  0.17171714774E+03 0.  0.
         24    2    3    3    0    0 -0.12038328278E+03  0.22118247353E+03 -0.13131542480E+03  0.29697686320E+03  0.86819900456E+02 0.  0.
         -6    2    1    2    0  501  0.91149859155E+02 -0.22347118996E+03 -0.29172416135E+03  0.41493761618E+03  0.16977211031E+03 0.  0.
        -24    2    5    5    0    0  0.33418905780E+02 -0.18883573163E+03 -0.15509460157E+03  0.26254928146E+03  0.90011293495E+02 0.  0.
          5    1    3    3  502    0  0.29233423630E+02  0.22887164299E+01 -0.18054950640E+02  0.34754892067E+02  0.47000000000E+01 0. -1.
        -11    1    4    4    0    0 -0.17772390935E+02  0.10118552506E+03 -0.82367101645E+02  0.13167652712E+03  0.00000000000E+00 0.  1.
         12    1    4    4    0    0 -0.10261089185E+03  0.11999694847E+03 -0.48948323151E+02  0.16530033608E+03  0.00000000000E+00 0. -1.
         -5    1    5    5    0  501  0.57730953375E+02 -0.34635458326E+02 -0.13662955979E+03  0.15238833472E+03  0.47000000000E+01 0.  1.
         13    1    6    6    0    0 -0.27163429691E+02 -0.10088600333E+03 -0.86315504959E+02  0.13552196861E+03  0.00000000000E+00 0. -1.
        -14    1    6    6    0    0  0.60582335471E+02 -0.87949728307E+02 -0.68779096609E+02  0.12702731285E+03  0.00000000000E+00 0.  1.
</event>
<event>
12    1  0.2625820E-002  0.1986315E+03  0.7818608E-02  0.1150899E+00
          2   -1    0    0  502    0  0.00000000000E+00  0.00000000000E+00  0.15056536709E+04  0.15056536709E+04  0.00000000000E+00 0.  1.
         -2   -1    0    0    0  501 -0.00000000000E+00 -0.00000000000E+00 -0.81608886093E+02  0.81608886093E+02  0.00000000000E+00 0. -1.
          6    2    1    2  502    0  0.43433066185E+01  0.98473743117E+02  0.13658737811E+04  0.13802328412E+04  0.17238203992E+03 0.  0.
         24    2    3    3    0    0  0.60664749977E+02  0.59416900862E+02  0.62504031610E+03  0.63622084215E+03  0.83011946288E+02 0.  0.
         -6    2    1    2    0  501 -0.43433066185E+01 -0.98473743117E+02  0.58171003686E+02  0.20702971575E+03  0.17251520263E+03 0.  0.
        -24    2    5    5    0    0 -0.20292311418E+02  0.14440433950E+02  0.29211545042E+02  0.89281160000E+02  0.80607115889E+02 0.  0.
          5    1    3    3  502    0 -0.56321443358E+02  0.39056842255E+02  0.74083346499E+03  0.74401199907E+03  0.47000000000E+01 0. -1.
        -13    1    4    4    0    0 -0.18167000592E+02  0.55729996608E+01  0.18331759507E+03  0.18429986136E+03  0.00000000000E+00 0.  1.
         14    1    4    4    0    0  0.78831750569E+02  0.53843901201E+02  0.44172272104E+03  0.45192098079E+03  0.00000000000E+00 0. -1.
         -5    1    5    5    0  501  0.15949004799E+02 -0.11291417707E+03  0.28959458644E+02  0.11774855575E+03  0.47000000000E+01 0.  1.
         13    1    6    6    0    0 -0.21660301564E+02 -0.45343758049E+01 -0.24074891377E+02  0.32700605845E+02  0.00000000000E+00 0. -1.
        -14    1    6    6    0    0  0.13679901467E+01  0.18974809755E+02  0.53286436419E+02  0.56580554155E+02  0.00000000000E+00 0.  1.
</event>
<event>
12    1  0.2625820E-002  0.1900123E+03  0.7818608E-02  0.1158450E+00
         -2   -1    0    0    0  501 -0.00000000000E+00  0.00000000000E+00  0.72153403588E+03  0.72153403588E+03  0.00000000000E+00 0. -1.
          2   -1    0    0  502    0  0.00000000000E+00 -0.00000000000E+00 -0.50533590667E+02  0.50533590667E+02  0.00000000000E+00 0.  1.
          6    2    1    2  502    0 -0.72237319055E+02  0.35898827943E+02  0.29642525981E+03  0.35182365221E+03  0.17147883686E+03 0.  0.
         24    2    3    3    0    0 -0.11467786503E+03  0.20544225020E+02  0.19673931875E+03  0.24229584471E+03  0.80173804377E+02 0.  0.
         -6    2    1    2    0  501  0.72237319055E+02 -0.35898827943E+02  0.37457518541E+03  0.42024397434E+03  0.17260206352E+03 0.  0.
        -24    2    5    5    0    0  0.19011714950E+02  0.34827370738E+02  0.26249301317E+03  0.27734658652E+03  0.80275500819E+02 0.  0.
          5    1    3    3  502    0  0.42440545974E+02  0.15354602923E+02  0.99685941052E+02  0.10952780751E+03  0.47000000000E+01 0. -1.
        -11    1    4    4    0    0 -0.65232808582E+02  0.25252594170E+02  0.46339651874E+02  0.83906949435E+02  0.00000000000E+00 0.  1.
         12    1    4    4    0    0 -0.49445056447E+02 -0.47083691499E+01  0.15039966688E+03  0.15838889527E+03  0.00000000000E+00 0. -1.
         -5    1    5    5    0  501  0.53225604105E+02 -0.70726198681E+02  0.11208217224E+03  0.14289738782E+03  0.47000000000E+01 0.  1.
         13    1    6    6    0    0 -0.12563882632E+02 -0.54309448277E+01  0.17831313098E+03  0.17883768894E+03  0.00000000000E+00 0. -1.
        -14    1    6    6    0    0  0.31575597582E+02  0.40258315565E+02  0.84179882196E+02  0.98508897574E+02  0.00000000000E+00 0.  1.
</event>
<event>
12    1  0.2625820E-002  0.1774889E+03  0.7818608E-02  0.1170256E+00
          1   -1    0    0  502    0  0.00000000000E+00  0.00000000000E+00  0.68221936058E+03  0.68221936058E+03  0.00000000000E+00 0.  1.
         -1   -1    0    0    0  501 -0.00000000000E+00 -0.00000000000E+00 -0.49247736353E+02  0.49247736353E+02  0.00000000000E+00 0. -1.
          6    2    1    2  502    0  0.23281374571E+02  0.30186296704E+02  0.40753423121E+03  0.44443818813E+03  0.17317020112E+03 0.  0.
         24    2    3    3    0    0  0.20825634341E+02  0.49591093763E+02  0.41247811054E+03  0.42372324783E+03  0.80685906139E+02 0.  0.
         -6    2    1    2    0  501 -0.23281374571E+02 -0.30186296704E+02  0.22543739302E+03  0.28702890880E+03  0.17352331660E+03 0.  0.
        -24    2    5    5    0    0 -0.60979581322E+02 -0.59636666375E+02  0.20201482755E+03  0.23355755536E+03  0.80399625609E+02 0.  0.
          5    1    3    3  502    0  0.24557402302E+01 -0.19404797059E+02 -0.49438793321E+01  0.20714940305E+02  0.47000000000E+01 0. -1.
        -11    1    4    4    0    0  0.45271495604E+02  0.13010353865E+02  0.13989695722E+03  0.14761414655E+03  0.00000000000E+00 0.  1.
         12    1    4    4    0    0 -0.24445861263E+02  0.36580739899E+02  0.27258115332E+03  0.27610910128E+03  0.00000000000E+00 0. -1.
         -5    1    5    5    0  501  0.37698206751E+02  0.29450369671E+02  0.23422565464E+02  0.53471353442E+02  0.47000000000E+01 0.  1.
         13    1    6    6    0    0  0.11205727976E+02  0.11348045775E+02  0.29204822984E+02  0.33275639256E+02  0.00000000000E+00 0. -1.
        -14    1    6    6    0    0 -0.72185309298E+02 -0.70984712150E+02  0.17281000457E+03  0.20028191610E+03  0.00000000000E+00 0.  1.
</event>
<event>
12    1  0.2625820E-002  0.2238543E+03  0.7818608E-02  0.1131042E+00
          1   -1    0    0  502    0  0.00000000000E+00  0.00000000000E+00  0.20242753039E+03  0.20242753039E+03  0.00000000000E+00 0. -1.
         -1   -1    0    0    0  501 -0.00000000000E+00 -0.00000000000E+00 -0.36892586527E+03  0.36892586527E+03  0.00000000000E+00 0.  1.
          6    2    1    2  502    0  0.12824876292E+03 -0.52107532893E+02  0.79861147620E+02  0.24038531470E+03  0.17956713633E+03 0.  0.
         24    2    3    3    0    0  0.91935749552E+02 -0.42195021536E+02 -0.22188011894E+02  0.13151376755E+03  0.81061466155E+02 0.  0.
         -6    2    1    2    0  501 -0.12824876292E+03  0.52107532893E+02 -0.24635948250E+03  0.33096808096E+03  0.17229026617E+03 0.  0.
        -24    2    5    5    0    0 -0.69640619293E+02  0.19378261884E+02 -0.23994528695E+03  0.26337110185E+03  0.81026314670E+02 0.  0.
          5    1    3    3  502    0  0.36313013368E+02 -0.99125113570E+01  0.10204915951E+03  0.10887154715E+03  0.47000000000E+01 0. -1.
        -13    1    4    4    0    0  0.33492252751E+02  0.23941805432E+02 -0.10467729133E+02  0.42479576209E+02  0.00000000000E+00 0.  1.
         14    1    4    4    0    0  0.58443496801E+02 -0.66136826968E+02 -0.11720282761E+02  0.89034191341E+02  0.00000000000E+00 0. -1.
         -5    1    5    5    0  501 -0.58608143627E+02  0.32729271009E+02 -0.64141955524E+01  0.67596979110E+02  0.47000000000E+01 0.  1.
         13    1    6    6    0    0  0.42608032009E+00 -0.21878819349E+02 -0.91865457798E+02  0.94435833331E+02  0.00000000000E+00 0. -1.
        -14    1    6    6    0    0 -0.70066699613E+02  0.41257081233E+02 -0.14807982915E+03  0.16893526852E+03  0.00000000000E+00 0.  1.
</event>
<event>
12    1  0.2625820E-002  0.1991110E+03  0.7818608E-02  0.1150491E+00
         -1   -1    0    0    0  501 -0.00000000000E+00  0.00000000000E+00  0.43590174581E+02  0.43590174581E+02  0.00000000000E+00 0.  1.
          1   -1    0    0  502    0  0.00000000000E+00 -0.00000000000E+00 -0.91370795508E+03  0.91370795508E+03  0.00000000000E+00 0. -1.
          6    2    1    2  502    0  0.48954610924E+02 -0.77572147791E+02 -0.45443000211E+03  0.49418412029E+03  0.17116461633E+03 0.  0.
         24    2    3    3    0    0  0.64056257220E+02 -0.14207120527E+02 -0.38695222081E+03  0.40027710580E+03  0.78642824686E+02 0.  0.
         -6    2    1    2    0  501 -0.48954610924E+02  0.77572147791E+02 -0.41568777838E+03  0.46311400937E+03  0.18238493505E+03 0.  0.
        -24    2    5    5    0    0 -0.81152780099E+02  0.10028100654E+03 -0.38112489897E+03  0.41049179926E+03  0.81272840774E+02 0.  0.
          5    1    3    3  502    0 -0.15101646296E+02 -0.63365027264E+02 -0.67477781305E+02  0.93907014492E+02  0.47000000000E+01 0. -1.
        -13    1    4    4    0    0 -0.43069391744E+01  0.23422814102E+02 -0.10948407781E+03  0.11204437174E+03  0.00000000000E+00 0.  1.
         14    1    4    4    0    0  0.68363196394E+02 -0.37629934629E+02 -0.27746814300E+03  0.28823273405E+03  0.00000000000E+00 0. -1.
         -5    1    5    5    0  501  0.32198169175E+02 -0.22708858751E+02 -0.34562879406E+02  0.52622210110E+02  0.47000000000E+01 0.  1.
         11    1    6    6    0    0 -0.12789493360E+02  0.17741262296E+01 -0.14589083127E+03  0.14646109830E+03  0.00000000000E+00 0. -1.
        -12    1    6    6    0    0 -0.68363286739E+02  0.98506880312E+02 -0.23523406770E+03  0.26403070096E+03  0.00000000000E+00 0.  1.
</event>
<event>
12    1  0.2625820E-002  0.2648023E+03  0.7818608E-02  0.1104292E+00
         -2   -1    0    0    0  501 -0.00000000000E+00  0.00000000000E+00  0.11054319207E+03  0.11054319207E+03  0.00000000000E+00 0. -1.
          2   -1    0    0  502    0  0.00000000000E+00 -0.00000000000E+00 -0.83877056829E+03  0.83877056829E+03  0.00000000000E+00 0.  1.
          6    2    1    2  502    0  0.75773247500E+02 -0.18949122794E+03 -0.12837081029E+03  0.29305761274E+03  0.16659888640E+03 0.  0.
         24    2    3    3    0    0 -0.20785871744E+01 -0.16331503009E+03 -0.83386947807E+02  0.19929333714E+03  0.78027761628E+02 0.  0.
         -6    2    1    2    0  501 -0.75773247500E+02  0.18949122794E+03 -0.59985656593E+03  0.65625614761E+03  0.17086755424E+03 0.  0.
        -24    2    5    5    0    0 -0.10246390011E+03  0.78625617140E+02 -0.32923739020E+03  0.36255493402E+03  0.79799640221E+02 0.  0.
          5    1    3    3  502    0  0.77851834675E+02 -0.26176197848E+02 -0.44983862488E+02  0.93764275608E+02  0.47000000000E+01 0. -1.
        -13    1    4    4    0    0  0.26344136534E+02 -0.12491811786E+03 -0.81543620001E+02  0.15148568138E+03  0.00000000000E+00 0.  1.
         14    1    4    4    0    0 -0.28422723708E+02 -0.38396912227E+02 -0.18433278054E+01  0.47807655757E+02  0.00000000000E+00 0. -1.
         -5    1    5    5    0  501  0.26690652614E+02  0.11086561080E+03 -0.27061917573E+03  0.29370121359E+03  0.47000000000E+01 0.  1.
         11    1    6    6    0    0 -0.79827271176E+02  0.27491618304E+02 -0.26108562744E+03  0.27439731623E+03  0.00000000000E+00 0. -1.
        -12    1    6    6    0    0 -0.22636628938E+02  0.51133998836E+02 -0.68151762764E+02  0.88157617791E+02  0.00000000000E+00 0.  1.
</event>
<event>
12    1  0.2625820E-002  0.1737737E+03  0.7818608E-02  0.1173969E+00
          1   -1    0    0  502    0  0.00000000000E+00  0.00000000000E+00  0.16377270938E+03  0.16377270938E+03  0.00000000000E+00 0. -1.
         -1   -1    0    0    0  501 -0.00000000000E+00 -0.00000000000E+00 -0.19069783713E+03  0.19069783713E+03  0.00000000000E+00 0.  1.
          6    2    1    2  502    0 -0.11158570539E+02 -0.19539298041E+02  0.18797373970E+02  0.17459278325E+03  0.17211333716E+03 0.  0.
         24    2    3    3    0    0 -0.73070522079E+02 -0.27058449653E+02 -0.97160394378E+00  0.10899911074E+03  0.76212867905E+02 0.  0.
         -6    2    1    2    0  501  0.11158570539E+02  0.19539298041E+02 -0.45722501724E+02  0.17987776326E+03  0.17250844816E+03 0.  0.
        -24    2    5    5    0    0 -0.15391324817E+02  0.66964306482E+02  0.39894172063E+01  0.10607130519E+03  0.80709944328E+02 0.  0.
          5    1    3    3  502    0  0.61911951540E+02  0.75191516120E+01  0.19768977914E+02  0.65593672501E+02  0.47000000000E+01 0. -1.
        -13    1    4    4    0    0 -0.32436029958E+02 -0.29276110761E+02 -0.34974765845E+02  0.55968035043E+02  0.00000000000E+00 0.  1.
         14    1    4    4    0    0 -0.40634492121E+02  0.22176611082E+01  0.34003161901E+02  0.53031075701E+02  0.00000000000E+00 0. -1.
         -5    1    5    5    0  501  0.26549895356E+02 -0.47425008441E+02 -0.49711918930E+02  0.73806458070E+02  0.47000000000E+01 0.  1.
         13    1    6    6    0    0  0.88548349903E+01  0.61597829140E+02  0.30877387050E+02  0.69470235990E+02  0.00000000000E+00 0. -1.
        -14    1    6    6    0    0 -0.24246159807E+02  0.53664773418E+01 -0.26887969844E+02  0.36601069203E+02  0.00000000000E+00 0.  1.
</event>
<event>
12    1  0.2625820E-002  0.1780920E+03  0.7818608E-02  0.1169662E+00
         -1   -1    0    0    0  501 -0.00000000000E+00  0.00000000000E+00  0.64005189555E+02  0.64005189555E+02  0.00000000000E+00 0.  1.
          1   -1    0    0  502    0  0.00000000000E+00 -0.00000000000E+00 -0.51822682722E+03  0.51822682722E+03  0.00000000000E+00 0. -1.
          6    2    1    2  502    0 -0.14539592765E+02 -0.49919861594E+02 -0.28684008289E+03  0.33712664870E+03  0.16933325654E+03 0.  0.
         24    2    3    3    0    0  0.12842337647E+02 -0.33847725578E+02 -0.56443322097E+02  0.10450497934E+03  0.80155149151E+02 0.  0.
         -6    2    1    2    0  501  0.14539592765E+02  0.49919861594E+02 -0.16738155478E+03  0.24510536808E+03  0.17133786576E+03 0.  0.
        -24    2    5    5    0    0 -0.17959585257E+02  0.49340186815E+02 -0.18454946708E+03  0.20804649859E+03  0.80422876329E+02 0.  0.
          5    1    3    3  502    0 -0.27381930411E+02 -0.16072136017E+02 -0.23039676079E+03  0.23262166935E+03  0.47000000000E+01 0. -1.
        -13    1    4    4    0    0  0.44671067578E+02 -0.21555149739E+02 -0.48712639207E+02  0.69520140804E+02  0.00000000000E+00 0.  1.
         14    1    4    4    0    0 -0.31828729931E+02 -0.12292575839E+02 -0.77306828899E+01  0.34984838541E+02  0.00000000000E+00 0. -1.
         -5    1    5    5    0  501  0.32499178022E+02  0.57967477977E+00  0.17167912306E+02  0.37058869490E+02  0.47000000000E+01 0.  1.
         11    1    6    6    0    0  0.25205381108E+02  0.39066619319E+02 -0.60500387869E+02  0.76300779250E+02  0.00000000000E+00 0. -1.
        -12    1    6    6    0    0 -0.43164966365E+02  0.10273567495E+02 -0.12404907921E+03  0.13174571934E+03  0.00000000000E+00 0.  1.
</event>
<event>
12    1  0.2625820E-002  0.1780502E+03  0.7818608E-02  0.1169703E+00
         -2   -1    0    0    0  501 -0.00000000000E+00  0.00000000000E+00  0.39021533191E+02  0.39021533191E+02  0.00000000000E+00 0. -1.
          2   -1    0    0  502    0  0.00000000000E+00 -0.00000000000E+00 -0.11022366062E+04  0.11022366062E+04  0.00000000000E+00 0.  1.
          6    2    1    2  502    0  0.63694839411E+01  0.23312059894E+02 -0.24880629445E+03  0.30851328328E+03  0.18080888069E+03 0.  0.
         24    2    3    3    0    0 -0.37137644122E+02  0.27619996817E+02 -0.47942618900E+02  0.10289291787E+03  0.78398909466E+02 0.  0.
         -6    2    1    2    0  501 -0.63694839411E+01 -0.23312059894E+02 -0.81440877860E+03  0.83274485616E+03  0.17209972208E+03 0.  0.
        -24    2    5    5    0    0 -0.53902698180E+02  0.23016169940E+02 -0.35014053452E+03  0.36373227233E+03  0.79167714803E+02 0.  0.
          5    1    3    3  502    0  0.43507128063E+02 -0.43079369236E+01 -0.20086367555E+03  0.20562036541E+03  0.47000000000E+01 0. -1.
        -11    1    4    4    0    0 -0.12061340134E+02  0.52232730697E+01 -0.64210659027E+02  0.65542102805E+02  0.00000000000E+00 0.  1.
         12    1    4    4    0    0 -0.25076303988E+02  0.22396723748E+02  0.16268040128E+02  0.37350815064E+02  0.00000000000E+00 0. -1.
         -5    1    5    5    0  501  0.47533214239E+02 -0.46328229834E+02 -0.46426824408E+03  0.46901258383E+03  0.47000000000E+01 0.  1.
         13    1    6    6    0    0 -0.47171458557E+02 -0.20283811659E+02 -0.23478136470E+03  0.24033074861E+03  0.00000000000E+00 0. -1.
        -14    1    6    6    0    0 -0.67312396232E+01  0.43299981599E+02 -0.11535916982E+03  0.12340152372E+03  0.00000000000E+00 0.  1.
</event>
<event>
12    1  0.2625820E-002  0.1987950E+03  0.7818608E-02  0.1150760E+00
          2   -1    0    0  502    0  0.00000000000E+00  0.00000000000E+00  0.19013004232E+04  0.19013004232E+04  0.00000000000E+00 0. -1.
         -2   -1    0    0    0  501 -0.00000000000E+00 -0.00000000000E+00 -0.20883119110E+02  0.20883119110E+02  0.00000000000E+00 0.  1.
          6    2    1    2  502    0  0.27198179412E+02  0.97171708331E+02  0.10075833404E+04  0.10270765581E+04  0.17169736890E+03 0.  0.
         24    2    3    3    0    0  0.20751172205E+02 -0.69228175964E+01  0.62639738897E+03  0.63185250292E+03  0.79908447498E+02 0.  0.
         -6    2    1    2    0  501 -0.27198179412E+02 -0.97171708331E+02  0.87283396375E+03  0.89510698426E+03  0.17086633122E+03 0.  0.
        -24    2    5    5    0    0 -0.69193292357E+02 -0.21222550365E+02  0.57389090884E+03  0.58378576079E+03  0.78847516781E+02 0.  0.
          5    1    3    3  502    0  0.64470072076E+01  0.10409452593E+03  0.38118595140E+03  0.39522405516E+03  0.47000000000E+01 0. -1.
        -13    1    4    4    0    0 -0.16720588984E+02 -0.21929287419E+02  0.94926176436E+02  0.98850648533E+02  0.00000000000E+00 0.  1.
         14    1    4    4    0    0  0.37471761189E+02  0.15006469823E+02  0.53147121253E+03  0.53300185438E+03  0.00000000000E+00 0. -1.
         -5    1    5    5    0  501  0.41995112944E+02 -0.75949157967E+02  0.29894305490E+03  0.31132122347E+03  0.47000000000E+01 0.  1.
         13    1    6    6    0    0  0.17270246976E+02 -0.95780233242E+01  0.10020009346E+03  0.10212765880E+03  0.00000000000E+00 0. -1.
        -14    1    6    6    0    0 -0.86463539333E+02 -0.11644527040E+02  0.47369081538E+03  0.48165810200E+03  0.00000000000E+00 0.  1.
</event>
<event>
12    1  0.2625820E-002  0.2713634E+03  0.7818608E-02  0.1100502E+00
          2   -1    0    0  502    0  0.00000000000E+00  0.00000000000E+00  0.17930402978E+04  0.17930402978E+04  0.00000000000E+00 0.  1.
         -2   -1    0    0    0  501 -0.00000000000E+00 -0.00000000000E+00 -0.41097203666E+02  0.41097203666E+02  0.00000000000E+00 0. -1.
          6    2    1    2  502    0 -0.20729169646E+01 -0.21085954622E+03  0.90034277729E+03  0.94037392007E+03  0.17093843252E+03 0.  0.
         24    2    3    3    0    0  0.22539243668E+02 -0.13185716125E+03  0.77299187154E+03  0.78842827691E+03  0.78793311129E+02 0.  0.
         -6    2    1    2    0  501  0.20729169646E+01  0.21085954622E+03  0.85160031681E+03  0.89376358136E+03  0.17065812188E+03 0.  0.
        -24    2    5    5    0    0  0.32015539384E+01  0.34224260634E+02  0.37547528653E+03  0.38590687678E+03  0.82224550985E+02 0.  0.
          5    1    3    3  502    0 -0.24612160633E+02 -0.79002384963E+02  0.12735090574E+03  0.15194564316E+03  0.47000000000E+01 0. -1.
        -13    1    4    4    0    0 -0.87815342142E+01  0.80297357726E+01  0.59945408675E+02  0.61115006512E+02  0.00000000000E+00 0.  1.
         14    1    4    4    0    0  0.31320777882E+02 -0.13988689703E+03  0.71304646287E+03  0.72731327040E+03  0.00000000000E+00 0. -1.
         -5    1    5    5    0  501 -0.11286369738E+01  0.17663528558E+03  0.47612503028E+03  0.50785670459E+03  0.47000000000E+01 0.  1.
         11    1    6    6    0    0 -0.35214608467E+02  0.15447254432E+02  0.10010737447E+03  0.10723885836E+03  0.00000000000E+00 0. -1.
        -12    1    6    6    0    0  0.38416162405E+02  0.18777006202E+02  0.27536791206E+03  0.27866801842E+03  0.00000000000E+00 0.  1.
</event>
<event>
12    1  0.2625820E-002  0.1995615E+03  0.7818608E-02  0.1150109E+00
          2   -1    0    0  502    0  0.00000000000E+00  0.00000000000E+00  0.19831337201E+03  0.19831337201E+03  0.00000000000E+00 0. -1.
         -2   -1    0    0    0  501 -0.00000000000E+00 -0.00000000000E+00 -0.20398844008E+03  0.20398844008E+03  0.00000000000E+00 0.  1.
          6    2    1    2  502    0  0.88528747378E+02  0.49901383693E+02 -0.27888183847E+02  0.20306768992E+03  0.17358354957E+03 0.  0.
         24    2    3    3    0    0  0.11356140604E+03  0.35256206245E+01  0.81077451000E+01  0.13907439104E+03  0.79795537283E+02 0.  0.
         -6    2    1    2    0  501 -0.88528747378E+02 -0.49901383693E+02  0.22213115777E+02  0.19923412218E+03  0.16992152813E+03 0.  0.
        -24    2    5    5    0    0 -0.10292204041E+03 -0.43320553270E+02 -0.33282502118E+02  0.14133483186E+03  0.79988705532E+02 0.  0.
          5    1    3    3  502    0 -0.25032658663E+02  0.46375763069E+02 -0.35995928947E+02  0.63993298874E+02  0.47000000000E+01 0. -1.
        -11    1    4    4    0    0  0.31495546767E+02 -0.22652374781E+02 -0.25701865789E+02  0.46536925709E+02  0.00000000000E+00 0.  1.
         12    1    4    4    0    0  0.82065859274E+02  0.26177995406E+02  0.33809610889E+02  0.92537465334E+02  0.00000000000E+00 0. -1.
         -5    1    5    5    0  501  0.14393293033E+02 -0.65808304234E+01  0.55495617896E+02  0.57899290315E+02  0.47000000000E+01 0.  1.
         13    1    6    6    0    0 -0.26730971370E+02 -0.50404187104E+02  0.19644962647E+01  0.57087530631E+02  0.00000000000E+00 0. -1.
        -14    1    6    6    0    0 -0.76191069041E+02  0.70836338342E+01 -0.35246998383E+02  0.84247301232E+02  0.00000000000E+00 0.  1.
</event>
<event>
12    1  0.2625820E-002  0.2061928E+03  0.7818608E-02  0.1144617E+00
         -2   -1    0    0    0  501 -0.00000000000E+00  0.00000000000E+00  0.22713259245E+03  0.22713259245E+03  0.00000000000E+00 0. -1.
          2   -1    0    0  502    0  0.00000000000E+00 -0.00000000000E+00 -0.18749620265E+03  0.18749620265E+03  0.00000000000E+00 0.  1.
          6    2    1    2  502    0 -0.10758837323E+03  0.50358067723E+02  0.27552132195E+02  0.20531039211E+03  0.16517277039E+03 0.  0.
         24    2    3    3    0    0 -0.55644227136E+02 -0.13564530187E+02  0.62014572587E+02  0.11590098189E+03  0.79416332684E+02 0.  0.
         -6    2    1    2    0  501  0.10758837323E+03 -0.50358067723E+02  0.12084257611E+02  0.20931840299E+03  0.17192141085E+03 0.  0.
        -24    2    5    5    0    0  0.23546544862E+02 -0.84603918468E+02  0.45605849652E+01  0.11813450716E+03  0.78884092512E+02 0.  0.
          5    1    3    3  502    0 -0.51944146098E+02  0.63922597910E+02 -0.34462440393E+02  0.89409410217E+02  0.47000000000E+01 0. -1.
        -13    1    4    4    0    0 -0.65057044697E+02 -0.48996755193E+01  0.73802180437E+02  0.98504759896E+02  0.00000000000E+00 0.  1.
         14    1    4    4    0    0  0.94128175608E+01 -0.86648546676E+01 -0.11787607850E+02  0.17396221994E+02  0.00000000000E+00 0. -1.
         -5    1    5    5    0  501  0.84041828371E+02  0.34245850745E+02  0.75236726456E+01  0.91183895833E+02  0.47000000000E+01 0.  1.
         11    1    6    6    0    0  0.42805781671E+02 -0.58009000867E+02  0.28475404451E+02  0.77512758851E+02  0.00000000000E+00 0. -1.
        -12    1    6    6    0    0 -0.19259236808E+02 -0.26594917601E+02 -0.23914819485E+02  0.40621748309E+02  0.00000000000E+00 0.  1.
</event>
<event>
12    1  0.2625820E-002  0.2022744E+03  0.7818608E-02  0.1147834E+00
          2   -1    0    0  502    0  0.00000000000E+00  0.00000000000E+00  0.99410205054E+03  0.99410205054E+03  0.00000000000E+00 0. -1.
         -2   -1    0    0    0  501 -0.00000000000E+00 -0.00000000000E+00 -0.42239896901E+02  0.42239896901E+02  0.00000000000E+00 0.  1.
          6    2    1    2  502    0  0.31969157661E+02  0.97547659309E+02  0.38629902469E+03  0.43464223454E+03  0.17073184439E+03 0.  0.
         24    2    3    3    0    0 -0.12581498625E+02  0.98503630469E+01  0.27127237905E+03  0.28321966041E+03  0.79808199143E+02 0.  0.
         -6    2    1    2    0  501 -0.31969157661E+02 -0.97547659309E+02  0.56556312895E+03  0.60169971290E+03  0.17788569027E+03 0.  0.
        -24    2    5    5    0    0 -0.66355480926E+02 -0.12345241351E+03  0.41678907335E+03  0.44675041430E+03  0.78925615390E+02 0.  0.
          5    1    3    3  502    0  0.44550656286E+02  0.87697296262E+02  0.11502664564E+03  0.15142257413E+03  0.47000000000E+01 0. -1.
        -13    1    4    4    0    0 -0.39876249383E+02  0.26668316623E+02  0.18699137325E+03  0.19304685454E+03  0.00000000000E+00 0.  1.
         14    1    4    4    0    0  0.27294750758E+02 -0.16817953576E+02  0.84281005794E+02  0.90172805873E+02  0.00000000000E+00 0. -1.
         -5    1    5    5    0  501  0.34386323265E+02  0.25904754197E+02  0.14877405560E+03  0.15494929860E+03  0.47000000000E+01 0.  1.
         11    1    6    6    0    0 -0.60295556484E+02 -0.35466138455E+02  0.22567075834E+03  0.23626403086E+03  0.00000000000E+00 0. -1.
        -12    1    6    6    0    0 -0.60599244415E+01 -0.87986275051E+02  0.19111831501E+03  0.21048638344E+03  0.00000000000E+00 0.  1.
</event>
<event>
12    1  0.2625820E-002  0.2024272E+03  0.7818608E-02  0.1147707E+00
         -1   -1    0    0    0  501 -0.00000000000E+00  0.00000000000E+00  0.65741154840E+03  0.65741154840E+03  0.00000000000E+00 0.  1.
          1   -1    0    0  502    0  0.00000000000E+00 -0.00000000000E+00 -0.10679120341E+03  0.10679120341E+03  0.00000000000E+00 0. -1.
          6    2    1    2  502    0  0.70304189057E+02  0.69529885622E+02  0.23570107352E+02  0.19706300024E+03  0.16882296085E+03 0.  0.
         24    2    3    3    0    0 -0.13138220629E+02  0.80924055715E+02  0.28804773709E+02  0.11255291458E+03  0.71534103460E+02 0.  0.
         -6    2    1    2    0  501 -0.70304189057E+02 -0.69529885622E+02  0.52705023764E+03  0.56713975157E+03  0.18463060642E+03 0.  0.
        -24    2    5    5    0    0 -0.35405789182E+02  0.32807878949E+02  0.16114572573E+03  0.18556522648E+03  0.78336335926E+02 0.  0.
          5    1    3    3  502    0  0.83442409687E+02 -0.11394170093E+02 -0.52346663563E+01  0.84510085660E+02  0.47000000000E+01 0. -1.
        -13    1    4    4    0    0 -0.11371004237E+02  0.11218292187E+01 -0.17029658912E+02  0.20507742948E+02  0.00000000000E+00 0.  1.
         14    1    4    4    0    0 -0.17672163925E+01  0.79802226496E+02  0.45834432621E+02  0.92045171634E+02  0.00000000000E+00 0. -1.
         -5    1    5    5    0  501 -0.34898399875E+02 -0.10233776457E+03  0.36590451191E+03  0.38157452510E+03  0.47000000000E+01 0.  1.
         11    1    6    6    0    0 -0.37469924904E+02  0.22982736355E+02  0.28164917376E+02  0.52205976799E+02  0.00000000000E+00 0. -1.
        -12    1    6    6    0    0  0.20641357222E+01  0.98251425938E+01  0.13298080836E+03  0.13335924968E+03  0.00000000000E+00 0.  1.
</event>
<event>
12    1  0.2625820E-002  0.1789092E+03  0.7818608E-02  0.1168863E+00
          2   -1    0    0  502    0  0.00000000000E+00  0.00000000000E+00  0.17293952271E+03  0.17293952271E+03  0.00000000000E+00 0. -1.
         -2   -1    0    0    0  501 -0.00000000000E+00 -0.00000000000E+00 -0.18765400070E+03  0.18765400070E+03  0.00000000000E+00 0.  1.
          6    2    1    2  502    0  0.71039447404E+01 -0.46508305528E+02  0.13755784151E+02  0.17854591002E+03  0.17168556105E+03 0.  0.
         24    2    3    3    0    0  0.68954637388E+02 -0.52036567919E+01  0.10025218014E+02  0.10392962955E+03  0.76935315948E+02 0.  0.
         -6    2    1    2    0  501 -0.71039447404E+01  0.46508305528E+02 -0.28470262138E+02  0.18204761338E+03  0.17354333522E+03 0.  0.
        -24    2    5    5    0    0  0.36841190064E+02 -0.22995833280E+02 -0.56721091457E+02  0.94971786994E+02  0.62580160395E+02 0.  0.
          5    1    3    3  502    0 -0.61850692648E+02 -0.41304648736E+02  0.37305661372E+01  0.74616280475E+02  0.47000000000E+01 0. -1.
        -13    1    4    4    0    0  0.63038794632E+02 -0.34840538864E+02  0.14226022114E+02  0.73417521629E+02  0.00000000000E+00 0.  1.
         14    1    4    4    0    0  0.59158427562E+01  0.29636882072E+02 -0.42008040999E+01  0.30512107917E+02  0.00000000000E+00 0. -1.
         -5    1    5    5    0  501 -0.43945134805E+02  0.69504138808E+02  0.28250829320E+02  0.87075826391E+02  0.47000000000E+01 0.  1.
         13    1    6    6    0    0  0.18102997536E+02  0.16700544499E+02 -0.18451512177E+01  0.24698811497E+02  0.00000000000E+00 0. -1.
        -14    1    6    6    0    0  0.18738192528E+02 -0.39696377779E+02 -0.54875940240E+02  0.70272975497E+02  0.00000000000E+00 0.  1.
</event>
<event>
12    1  0.2625820E-002  0.1869705E+03  0.7818608E-02  0.1161222E+00
          1   -1    0    0  502    0  0.00000000000E+00  0.00000000000E+00  0.36555430570E+03  0.36555430570E+03  0.00000000000E+00 0. -1.
         -1   -1    0    0    0  501 -0.00000000000E+00 -0.00000000000E+00 -0.10153130432E+03  0.10153130432E+03  0.00000000000E+00 0.  1.
          6    2    1    2  502    0  0.61824540896E+02 -0.30448984395E+01  0.75242812167E+02  0.20088634069E+03  0.17567667981E+03 0.  0.
         24    2    3    3    0    0  0.60425361385E+01 -0.11835692152E+02 -0.27162949408E+02  0.83848141311E+02  0.78205429026E+02 0.  0.
         -6    2    1    2    0  501 -0.61824540896E+02  0.30448984395E+01  0.18878018922E+03  0.26619926933E+03  0.17717941723E+03 0.  0.
        -24    2    5    5    0    0 -0.32722040765E+00  0.61072257748E+02  0.86204514076E+02  0.13318440556E+03  0.81098334734E+02 0.  0.
          5    1    3    3  502    0  0.55782004758E+02  0.87907937125E+01  0.10240576158E+03  0.11703819937E+03  0.47000000000E+01 0. -1.
        -13    1    4    4    0    0  0.20884599941E+02 -0.75934857694E+01 -0.50896454085E+02  0.55536263642E+02  0.00000000000E+00 0.  1.
         14    1    4    4    0    0 -0.14842063803E+02 -0.42422063827E+01  0.23733504677E+02  0.28311877670E+02  0.00000000000E+00 0. -1.
         -5    1    5    5    0  501 -0.61497320489E+02 -0.58027359309E+02  0.10257567514E+03  0.13301486378E+03  0.47000000000E+01 0.  1.
         11    1    6    6    0    0 -0.18469994388E+02  0.54721071440E+02  0.95675352746E+02  0.11175557917E+03  0.00000000000E+00 0. -1.
        -12    1    6    6    0    0  0.18142773980E+02  0.63511863087E+01 -0.94708386705E+01  0.21428826388E+02  0.00000000000E+00 0.  1.
</event>
<event>
12    1  0.2625820E-002  0.2253812E+03  0.7818608E-02  0.1129934E+00
          1   -1    0    0  502    0  0.00000000000E+00  0.00000000000E+00  0.28315920641E+03  0.28315920641E+03  0.00000000000E+00 0. -1.
         -1   -1    0    0    0  501 -0.00000000000E+00 -0.00000000000E+00 -0.25422261584E+03  0.25422261584E+03  0.00000000000E+00 0.  1.
          6    2    1    2  502    0 -0.14437984471E+03  0.90682186113E+01 -0.13132043357E+03  0.26058294132E+03  0.17242575470E+03 0.  0.
         24    2    3    3    0    0 -0.24115020470E+02  0.50727837356E+02 -0.57276086903E+02  0.11326082127E+03  0.79953835477E+02 0.  0.
         -6    2    1    2    0  501  0.14437984471E+03 -0.90682186113E+01  0.16025702414E+03  0.27679888093E+03  0.17322682977E+03 0.  0.
        -24    2    5    5    0    0  0.74304028748E+02 -0.27819180644E+02  0.13026523401E+02  0.11260043725E+03  0.78830023827E+02 0.  0.
          5    1    3    3  502    0 -0.12026482424E+03 -0.41659618745E+02 -0.74044346667E+02  0.14732212005E+03  0.47000000000E+01 0. -1.
        -13    1    4    4    0    0 -0.20617690980E+02  0.71506225990E+02 -0.53977167874E+02  0.91933476973E+02  0.00000000000E+00 0.  1.
         14    1    4    4    0    0 -0.34973294900E+01 -0.20778388634E+02 -0.32989190290E+01  0.21327344292E+02  0.00000000000E+00 0. -1.
         -5    1    5    5    0  501  0.70075815960E+02  0.18750962033E+02  0.14723050074E+03  0.16419844368E+03  0.47000000000E+01 0.  1.
         13    1    6    6    0    0  0.65681691288E+02 -0.13745146602E+02  0.42065014229E+02  0.79198983880E+02  0.00000000000E+00 0. -1.
        -14    1    6    6    0    0  0.86223374604E+01 -0.14074034042E+02 -0.29038490828E+02  0.33401453368E+02  0.00000000000E+00 0.  1.
</event>
<event>
12    1  0.2625820E-002  0.3318645E+03  0.7818608E-02  0.1070315E+00
         -2   -1    0    0    0  501 -0.00000000000E+00  0.00000000000E+00  0.13254505174E+03  0.13254505174E+03  0.00000000000E+00 0. -1.
          2   -1    0    0  502    0  0.00000000000E+00 -0.00000000000E+00 -0.84404487541E+03  0.84404487541E+03  0.00000000000E+00 0.  1.
          6    2    1    2  502    0  0.14726175655E+03 -0.24330328821E+03 -0.29529060669E+03  0.44452560276E+03  0.17182535936E+03 0.  0.
         24    2    3    3    0    0  0.91287003933E+02 -0.11690562407E+03 -0.24378197113E+03  0.29692894980E+03  0.82078680252E+02 0.  0.
         -6    2    1    2    0  501 -0.14726175655E+03  0.24330328821E+03 -0.41620921698E+03  0.53206432439E+03  0.17023459695E+03 0.  0.
        -24    2    5    5    0    0 -0.13920532454E+03  0.12440914773E+03 -0.19254216161E+03  0.27858895203E+03  0.75389400963E+02 0.  0.
          5    1    3    3  502    0  0.55974752617E+02 -0.12639766414E+03 -0.51508635552E+02  0.14759665297E+03  0.47000000000E+01 0. -1.
        -13    1    4    4    0    0 -0.15882531644E+01 -0.61069235141E+02 -0.91795089765E+02  0.11026473840E+03  0.00000000000E+00 0.  1.
         14    1    4    4    0    0  0.92875257097E+02 -0.55836388927E+02 -0.15198688137E+03  0.18666421140E+03  0.00000000000E+00 0. -1.
         -5    1    5    5    0  501 -0.80564320143E+01  0.11889414048E+03 -0.22366705537E+03  0.25347537236E+03  0.47000000000E+01 0.  1.
         11    1    6    6    0    0 -0.49226199138E+02  0.38933467588E+02 -0.19651788612E+02  0.65766453269E+02  0.00000000000E+00 0. -1.
        -12    1    6    6    0    0 -0.89979125398E+02  0.85475680138E+02 -0.17289037300E+03  0.21282249876E+03  0.00000000000E+00 0.  1.
</event>
<event>
12    1  0.2625820E-002  0.2107225E+03  0.7818608E-02  0.1140995E+00
         -2   -1    0    0    0  501 -0.00000000000E+00  0.00000000000E+00  0.13473796345E+03  0.13473796345E+03  0.00000000000E+00 0. -1.
          2   -1    0    0  502    0  0.00000000000E+00 -0.00000000000E+00 -0.41714610621E+03  0.41714610621E+03  0.00000000000E+00 0.  1.
          6    2    1    2  502    0 -0.11364064772E+03  0.51352541921E+02 -0.26734342015E+03  0.34005398728E+03  0.16915356806E+03 0.  0.
         24    2    3    3    0    0 -0.14266204379E+03  0.16582731868E+02 -0.21831589833E+03  0.27314383097E+03  0.79487578897E+02 0.  0.
         -6    2    1    2    0  501  0.11364064772E+03 -0.51352541921E+02 -0.15064722612E+02  0.21183008238E+03  0.17056892318E+03 0.  0.
        -24    2    5    5    0    0  0.62396359133E+02 -0.60794109098E+02 -0.72020021928E+02  0.13449240447E+03  0.72884113274E+02 0.  0.
          5    1    3    3  502    0  0.29021396069E+02  0.34769810053E+02 -0.49027521821E+02  0.66910156305E+02  0.47000000000E+01 0. -1.
        -11    1    4    4    0    0 -0.12146684861E+03  0.10336331873E+02 -0.21943027394E+03  0.25101928251E+03  0.00000000000E+00 0.  1.
         12    1    4    4    0    0 -0.21195195181E+02  0.62463999943E+01  0.11143756138E+01  0.22124548463E+02  0.00000000000E+00 0. -1.
         -5    1    5    5    0  501  0.51244288589E+02  0.94415671775E+01  0.56955299316E+02  0.77337677906E+02  0.47000000000E+01 0.  1.
         13    1    6    6    0    0  0.14846497369E+02 -0.18313546699E+02  0.13998830222E+02  0.27418455909E+02  0.00000000000E+00 0. -1.
        -14    1    6    6    0    0  0.47549861764E+02 -0.42480562399E+02 -0.86018852150E+02  0.10707394856E+03  0.00000000000E+00 0.  1.
</event>
<event>
12    1  0.2625820E-002  0.2362177E+03  0.7818608E-02  0.1122338E+00
         -1   -1    0    0    0  501 -0.00000000000E+00  0.00000000000E+00  0.17404755678E+03  0.17404755678E+03  0.00000000000E+00 0.  1.
          1   -1    0    0  502    0  0.00000000000E+00 -0.00000000000E+00 -0.32273078453E+03  0.32273078453E+03  0.00000000000E+00 0. -1.
          6    2    1    2  502    0 -0.39732980184E+02 -0.15698968030E+03 -0.54365925833E+02  0.24307211410E+03  0.17292752623E+03 0.  0.
         24    2    3    3    0    0 -0.82856819177E+02 -0.70366814938E+02 -0.53977616602E+02  0.14619370022E+03  0.81500145768E+02 0.  0.
         -6    2    1    2    0  501  0.39732980184E+02  0.15698968030E+03 -0.94317301924E+02  0.25370622720E+03  0.17101645197E+03 0.  0.
        -24    2    5    5    0    0  0.48058636726E+01  0.63468810587E+01 -0.39720454136E+02  0.89645073301E+02  0.79969653405E+02 0.  0.
          5    1    3    3  502    0  0.43123838993E+02 -0.86622865363E+02 -0.38830923069E+00  0.96878413887E+02  0.47000000000E+01 0. -1.
        -13    1    4    4    0    0  0.25009138703E+01 -0.20170275269E+02  0.15217020868E+02  0.25390003914E+02  0.00000000000E+00 0.  1.
         14    1    4    4    0    0 -0.85357733047E+02 -0.50196539669E+02 -0.69194637471E+02  0.12080369630E+03  0.00000000000E+00 0. -1.
         -5    1    5    5    0  501  0.34927116511E+02  0.15064279924E+03 -0.54596847788E+02  0.16406115390E+03  0.47000000000E+01 0.  1.
         13    1    6    6    0    0  0.29410699244E+02 -0.54635755702E+01 -0.51785629597E+02  0.59804609528E+02  0.00000000000E+00 0. -1.
        -14    1    6    6    0    0 -0.24604835572E+02  0.11810456629E+02  0.12065175461E+02  0.29840463773E+02  0.00000000000E+00 0.  1.
</event>
<event>
12    1  0.2625820E-002  0.2152204E+03  0.7818608E-02  0.1137497E+00
          3   -1    0    0  502    0  0.00000000000E+00  0.00000000000E+00  0.98527320000E+02  0.98527320000E+02  0.00000000000E+00 0.  1.
         -3   -1    0    0    0  501 -0.00000000000E+00 -0.00000000000E+00 -0.49567134845E+03  0.49567134845E+03  0.00000000000E+00 0. -1.
          6    2    1    2  502    0  0.24096221623E+02 -0.12698243898E+03 -0.26605296396E+03  0.34222497620E+03  0.17212956457E+03 0.  0.
         24    2    3    3    0    0  0.25753570139E+02 -0.86492231451E+02 -0.61564366870E+02  0.13370667952E+03  0.77091843959E+02 0.  0.
         -6    2    1    2    0  501 -0.24096221623E+02  0.12698243898E+03 -0.13109106449E+03  0.25197369225E+03  0.17204855911E+03 0.  0.
        -24    2    5    5    0    0 -0.46186378585E+02  0.16779771120E+02 -0.92203531026E+02  0.13294876504E+03  0.82213993381E+02 0.  0.
          5    1    3    3  502    0 -0.16573485163E+01 -0.40490207526E+02 -0.20448859709E+03  0.20851829668E+03  0.47000000000E+01 0. -1.
        -11    1    4    4    0    0  0.30475810997E+02 -0.34084337255E+02 -0.66667278717E+02  0.80839613764E+02  0.00000000000E+00 0.  1.
         12    1    4    4    0    0 -0.47222408578E+01 -0.52407894196E+02  0.51029118470E+01  0.52867065760E+02  0.00000000000E+00 0. -1.
         -5    1    5    5    0  501  0.22090156962E+02  0.11020266786E+03 -0.38887533467E+02  0.11902492721E+03  0.47000000000E+01 0.  1.
         11    1    6    6    0    0 -0.59246363751E+02  0.16901849289E+02 -0.10020640448E+03  0.11763132077E+03  0.00000000000E+00 0. -1.
        -12    1    6    6    0    0  0.13059985166E+02 -0.12207816876E+00  0.80028734541E+01  0.15317444275E+02  0.00000000000E+00 0.  1.
</event>
<event>
12    1  0.2625820E-002  0.1799794E+03  0.7818608E-02  0.1167823E+00
          4   -1    0    0  502    0  0.00000000000E+00  0.00000000000E+00  0.17122462091E+03  0.17122462091E+03  0.00000000000E+00 0. -1.
         -4   -1    0    0    0  501 -0.00000000000E+00 -0.00000000000E+00 -0.24639886870E+03  0.24639886870E+03  0.00000000000E+00 0.  1.
          6    2    1    2  502    0  0.44553158782E+02  0.17498037828E+02 -0.13896680904E+03  0.23246150698E+03  0.18009834238E+03 0.  0.
         24    2    3    3    0    0  0.70060006394E+02 -0.20108313457E+02 -0.26259582574E+02  0.11084799692E+03  0.79277764718E+02 0.  0.
         -6    2    1    2    0  501 -0.44553158782E+02 -0.17498037828E+02  0.63792561244E+02  0.18516198263E+03  0.16710566614E+03 0.  0.
        -24    2    5    5    0    0 -0.83149501870E+02  0.33689272097E+01  0.77278264594E+02  0.13902022146E+03  0.80184178386E+02 0.  0.
          5    1    3    3  502    0 -0.25506847612E+02  0.37606351285E+02 -0.11270722646E+03  0.12161351006E+03  0.47000000000E+01 0. -1.
        -11    1    4    4    0    0  0.74417423707E+02 -0.38400742093E+02 -0.34174447321E+02  0.90445910876E+02  0.00000000000E+00 0.  1.
         12    1    4    4    0    0 -0.43574173132E+01  0.18292428636E+02  0.79148647473E+01  0.20402086046E+02  0.00000000000E+00 0. -1.
         -5    1    5    5    0  501  0.38596343088E+02 -0.20866965037E+02 -0.13485703350E+02  0.46141761177E+02  0.47000000000E+01 0.  1.
         13    1    6    6    0    0 -0.49458989476E+02 -0.37065190209E+02  0.51325142031E+02  0.80338597011E+02  0.00000000000E+00 0. -1.
        -14    1    6    6    0    0 -0.33690512394E+02  0.40434117419E+02  0.25953122563E+02  0.58681624446E+02  0.00000000000E+00 0.  1.
</event>
<event>
12    1  0.2625820E-002  0.3673894E+03  0.7818608E-02  0.1055696E+00
         -1   -1    0    0    0  501 -0.00000000000E+00  0.00000000000E+00  0.22927047939E+03  0.22927047939E+03  0.00000000000E+00 0. -1.
          1   -1    0    0  502    0  0.00000000000E+00 -0.00000000000E+00 -0.69097150968E+03  0.69097150968E+03  0.00000000000E+00 0.  1.
          6    2    1    2  502    0  0.31723258209E+03  0.67376357069E+02 -0.40825904832E+03  0.54973406758E+03  0.17422976180E+03 0.  0.
         24    2    3    3    0    0  0.94575556374E+02  0.48678875372E+02 -0.14121173109E+03  0.20150697707E+03  0.96696122168E+02 0.  0.
         -6    2    1    2    0  501 -0.31723258209E+03 -0.67376357069E+02 -0.53441981977E+02  0.37050792148E+03  0.17100874191E+03 0.  0.
        -24    2    5    5    0    0 -0.32907627613E+03 -0.52525830105E+02 -0.44090102522E+02  0.34882016252E+03  0.93174086007E+02 0.  0.
          5    1    3    3  502    0  0.22265702572E+03  0.18697481697E+02 -0.26704731723E+03  0.34822709051E+03  0.47000000000E+01 0. -1.
        -11    1    4    4    0    0  0.50443368900E+02  0.67196764730E+02 -0.12569909652E+03  0.15119590445E+03  0.00000000000E+00 0.  1.
         12    1    4    4    0    0  0.44132187474E+02 -0.18517889358E+02 -0.15512634566E+02  0.50311072625E+02  0.00000000000E+00 0. -1.
         -5    1    5    5    0  501  0.11843694033E+02 -0.14850526964E+02 -0.93518794556E+01  0.21687758962E+02  0.47000000000E+01 0.  1.
         13    1    6    6    0    0 -0.11867716255E+03  0.25827015657E+02 -0.12576646712E+02  0.12210436393E+03  0.00000000000E+00 0. -1.
        -14    1    6    6    0    0 -0.21039911358E+03 -0.78352845762E+02 -0.31513455810E+02  0.22671579859E+03  0.00000000000E+00 0.  1.
</event>
<event>
12    1  0.2625820E-002  0.1814937E+03  0.7818608E-02  0.1166365E+00
          2   -1    0    0  502    0  0.00000000000E+00  0.00000000000E+00  0.21264818435E+03  0.21264818435E+03  0.00000000000E+00 0.  1.
         -2   -1    0    0    0  501 -0.00000000000E+00 -0.00000000000E+00 -0.23270360873E+03  0.23270360873E+03  0.00000000000E+00 0. -1.
          6    2    1    2  502    0 -0.63855211140E+02  0.38706042508E+02 -0.13875278995E+03  0.23484139671E+03  0.17413356705E+03 0.  0.
         24    2    3    3    0    0 -0.29897627292E+02 -0.41409686544E+02 -0.37363180599E+02  0.10114924875E+03  0.78908383590E+02 0.  0.
         -6    2    1    2    0  501  0.63855211140E+02 -0.38706042508E+02  0.11869736558E+03  0.21051039637E+03  0.15700291930E+03 0.  0.
        -24    2    5    5    0    0  0.14297848010E+02 -0.46423345899E+02  0.13919555764E+02  0.94252199064E+02  0.79562349724E+02 0.  0.
          5    1    3    3  502    0 -0.33957583848E+02  0.80115729052E+02 -0.10138960935E+03  0.13369214796E+03  0.47000000000E+01 0. -1.
        -13    1    4    4    0    0  0.14007225761E+02 -0.39951052342E+02 -0.38474046547E+02  0.57206129169E+02  0.00000000000E+00 0.  1.
         14    1    4    4    0    0 -0.43904853053E+02 -0.14586342016E+01  0.11108659478E+01  0.43943119581E+02  0.00000000000E+00 0. -1.
         -5    1    5    5    0  501  0.49557363130E+02  0.77173033913E+01  0.10477780981E+03  0.11625819731E+03  0.47000000000E+01 0.  1.
         11    1    6    6    0    0 -0.32954019981E+02 -0.18118267134E+02  0.72724957496E+00  0.37613400920E+02  0.00000000000E+00 0. -1.
        -12    1    6    6    0    0  0.47251867991E+02 -0.28305078765E+02  0.13192306189E+02  0.56638798144E+02  0.00000000000E+00 0.  1.
</event>
<event>
12    1  0.2625820E-002  0.2070694E+03  0.7818608E-02  0.1143908E+00
         -2   -1    0    0    0  501 -0.00000000000E+00  0.00000000000E+00  0.73738460336E+02  0.73738460336E+02  0.00000000000E+00 0. -1.
          2   -1    0    0  502    0  0.00000000000E+00 -0.00000000000E+00 -0.60313120988E+03  0.60313120988E+03  0.00000000000E+00 0.  1.
          6    2    1    2  502    0  0.11061593851E+03  0.33274832329E+02 -0.20114318200E+03  0.28900600318E+03  0.17240298689E+03 0.  0.
         24    2    3    3    0    0 -0.13372670925E+01  0.46146493589E+02 -0.69481835125E+02  0.11563933922E+03  0.80083982232E+02 0.  0.
         -6    2    1    2    0  501 -0.11061593851E+03 -0.33274832329E+02 -0.32824956754E+03  0.38786366704E+03  0.17131066895E+03 0.  0.
        -24    2    5    5    0    0 -0.94818195069E+02 -0.81941716272E+02 -0.27649937349E+03  0.31493763002E+03  0.83838369975E+02 0.  0.
          5    1    3    3  502    0  0.11195320560E+03 -0.12871661260E+02 -0.13166134687E+03  0.17336666395E+03  0.47000000000E+01 0. -1.
        -11    1    4    4    0    0  0.29707501636E+02  0.14433790433E+01 -0.49330204614E+02  0.57602847879E+02  0.00000000000E+00 0.  1.
         12    1    4    4    0    0 -0.31044768728E+02  0.44703114546E+02 -0.20151630511E+02  0.58036491346E+02  0.00000000000E+00 0. -1.
         -5    1    5    5    0  501 -0.15797743443E+02  0.48666883944E+02 -0.51750194047E+02  0.72926037014E+02  0.47000000000E+01 0.  1.
         11    1    6    6    0    0 -0.80324397718E+02 -0.74513785060E+02 -0.14150125912E+03  0.17896066430E+03  0.00000000000E+00 0. -1.
        -12    1    6    6    0    0 -0.14493797351E+02 -0.74279312119E+01 -0.13499811437E+03  0.13597696572E+03  0.00000000000E+00 0.  1.
</event>
<event>
12    1  0.2625820E-002  0.1778633E+03  0.7818608E-02  0.1169887E+00
         -1   -1    0    0    0  501 -0.00000000000E+00  0.00000000000E+00  0.25801646563E+03  0.25801646563E+03  0.00000000000E+00 0. -1.
          1   -1    0    0  502    0  0.00000000000E+00 -0.00000000000E+00 -0.25422039510E+03  0.25422039510E+03  0.00000000000E+00 0.  1.
          6    2    1    2  502    0 -0.76294129004E+01 -0.15995177988E+02  0.18614851733E+03  0.25986531783E+03  0.18045680716E+03 0.  0.
         24    2    3    3    0    0 -0.62833431732E+02 -0.51669972798E+02  0.96888359152E+02  0.14891649847E+03  0.78555350842E+02 0.  0.
         -6    2    1    2    0  501  0.76294129004E+01  0.15995177988E+02 -0.18235244680E+03  0.25237154289E+03  0.17356533971E+03 0.  0.
        -24    2    5    5    0    0 -0.26289104995E+02  0.50227963178E+02 -0.48008726938E+02  0.10956862099E+03  0.80538683355E+02 0.  0.
          5    1    3    3  502    0  0.55204018831E+02  0.35674794810E+02  0.89260158178E+02  0.11094881936E+03  0.47000000000E+01 0. -1.
        -13    1    4    4    0    0 -0.78775082832E+01  0.14166784150E+02 -0.38071956491E+01  0.16650755197E+02  0.00000000000E+00 0.  1.
         14    1    4    4    0    0 -0.54955923448E+02 -0.65836756948E+02  0.10069555480E+03  0.13226574328E+03  0.00000000000E+00 0. -1.
         -5    1    5    5    0  501  0.33918517896E+02 -0.34232785190E+02 -0.13434371986E+03  0.14280292190E+03  0.47000000000E+01 0.  1.
         13    1    6    6    0    0  0.24767901549E+01  0.29721778880E+02  0.17903806070E+02  0.34785987137E+02  0.00000000000E+00 0. -1.
        -14    1    6    6    0    0 -0.28765895150E+02  0.20506184298E+02 -0.65912533007E+02  0.74782633851E+02  0.00000000000E+00 0.  1.
</event>
<event>
12    1  0.2625820E-002  0.1782125E+03  0.7818608E-02  0.1169544E+00
         -4   -1    0    0    0  501 -0.00000000000E+00  0.00000000000E+00  0.54219650472E+02  0.54219650472E+02  0.00000000000E+00 0.  1.
          4   -1    0    0  502    0  0.00000000000E+00 -0.00000000000E+00 -0.89179549496E+03  0.89179549496E+03  0.00000000000E+00 0. -1.
          6    2    1    2  502    0 -0.19781121191E+02  0.41418548474E+02 -0.14101859395E+03  0.22691195026E+03  0.17174399674E+03 0.  0.
         24    2    3    3    0    0  0.30030255430E+01 -0.38257385952E+01 -0.42868728361E+01  0.81022209655E+02  0.80762409204E+02 0.  0.
         -6    2    1    2    0  501  0.19781121191E+02 -0.41418548474E+02 -0.69655725054E+03  0.71910319517E+03  0.17265750235E+03 0.  0.
        -24    2    5    5    0    0  0.43070977377E+02 -0.31977339074E+02 -0.20661835947E+03  0.22849769090E+03  0.81500852587E+02 0.  0.
          5    1    3    3  502    0 -0.22784146734E+02  0.45244287069E+02 -0.13673172111E+03  0.14588974060E+03  0.47000000000E+01 0. -1.
        -11    1    4    4    0    0 -0.29010830148E+02 -0.41792358373E+01  0.24321231925E+02  0.38086961029E+02  0.00000000000E+00 0.  1.
         12    1    4    4    0    0  0.32013855691E+02  0.35349724206E+00 -0.28608104761E+02  0.42935248626E+02  0.00000000000E+00 0. -1.
         -5    1    5    5    0  501 -0.23289856186E+02 -0.94412093999E+01 -0.48993889107E+03  0.49060550427E+03  0.47000000000E+01 0.  1.
         11    1    6    6    0    0  0.65235845025E+02 -0.33586490149E+02 -0.17584120327E+03  0.19053581438E+03  0.00000000000E+00 0. -1.
        -12    1    6    6    0    0 -0.22164867648E+02  0.16091510750E+01 -0.30777156200E+02  0.37961876518E+02  0.00000000000E+00 0.  1.
</event>
<event>
12    1  0.2625820E-002  0.1958409E+03  0.7818608E-02  0.1153296E+00
          2   -1    0    0  502    0  0.00000000000E+00  0.00000000000E+00  0.24258800321E+04  0.24258800321E+04  0.00000000000E+00 0.  1.
         -2   -1    0    0    0  501 -0.00000000000E+00 -0.00000000000E+00 -0.21299479450E+02  0.21299479450E+02  0.00000000000E+00 0. -1.
          6    2    1    2  502    0 -0.74616424358E+02 -0.59023535505E+02  0.57544046626E+03  0.60745053717E+03  0.16974403194E+03 0.  0.
         24    2    3    3    0    0 -0.64494508942E+02  0.22190495657E+02  0.21630391577E+03  0.23907664569E+03  0.75619433725E+02 0.  0.
         -6    2    1    2    0  501  0.74616424358E+02  0.59023535505E+02  0.18291400864E+04  0.18397289744E+04  0.17262055203E+03 0.  0.
        -24    2    5    5    0    0  0.77945015817E+02  0.10018414778E+03  0.12229233074E+04  0.12320891562E+04  0.79937375738E+02 0.  0.
          5    1    3    3  502    0 -0.10121915416E+02 -0.81214031162E+02  0.35913655049E+03  0.36837389148E+03  0.47000000000E+01 0. -1.
        -13    1    4    4    0    0 -0.72667915705E+02 -0.70309947779E+00  0.18915836290E+03  0.20263762379E+03  0.00000000000E+00 0.  1.
         14    1    4    4    0    0  0.81734067633E+01  0.22893595135E+02  0.27145552871E+02  0.36439021900E+02  0.00000000000E+00 0. -1.
         -5    1    5    5    0  501 -0.33285914589E+01 -0.41160612272E+02  0.60621677899E+03  0.60763981819E+03  0.47000000000E+01 0.  1.
         11    1    6    6    0    0 -0.16092940286E+01 -0.76783327863E+01  0.16793819730E+02  0.18535884192E+02  0.00000000000E+00 0. -1.
        -12    1    6    6    0    0  0.79554309846E+02  0.10786248056E+03  0.12061294877E+04  0.12135532720E+04  0.00000000000E+00 0.  1.
</event>
<event>
12    1  0.2625820E-002  0.2190849E+03  0.7818608E-02  0.1134567E+00
         -1   -1    0    0    0  501 -0.00000000000E+00  0.00000000000E+00  0.36671234051E+02  0.36671234051E+02  0.00000000000E+00 0.  1.
          1   -1    0    0  502    0  0.00000000000E+00 -0.00000000000E+00 -0.13274230519E+04  0.13274230519E+04  0.00000000000E+00 0. -1.
          6    2    1    2  502    0  0.53871069715E+02  0.12100051009E+03 -0.57116417140E+03  0.61250396936E+03  0.17717050034E+03 0.  0.
         24    2    3    3    0    0 -0.31658942263E+02  0.48159172315E+02 -0.36815050803E+03  0.38043096155E+03  0.76624574635E+02 0.  0.
         -6    2    1    2    0  501 -0.53871069715E+02 -0.12100051009E+03 -0.71958764646E+03  0.75159031661E+03  0.17186741252E+03 0.  0.
        -24    2    5    5    0    0 -0.20278899367E+02 -0.12711619742E+03 -0.68855816439E+03  0.70521409104E+03  0.81515685929E+02 0.  0.
          5    1    3    3  502    0  0.85530011978E+02  0.72841337773E+02 -0.20301366337E+03  0.23207300781E+03  0.47000000000E+01 0. -1.
        -13    1    4    4    0    0 -0.36776220992E+02  0.54911809471E+02 -0.17451174759E+03  0.18660693260E+03  0.00000000000E+00 0.  1.
         14    1    4    4    0    0  0.51172787292E+01 -0.67526371563E+01 -0.19363876045E+03  0.19382402895E+03  0.00000000000E+00 0. -1.
         -5    1    5    5    0  501 -0.33592170349E+02  0.61156873299E+01 -0.31029482078E+02  0.46376225572E+02  0.47000000000E+01 0.  1.
         11    1    6    6    0    0  0.13817102007E+02 -0.50056189922E+02 -0.43343809838E+03  0.43653764967E+03  0.00000000000E+00 0. -1.
        -12    1    6    6    0    0 -0.34096001373E+02 -0.77060007496E+02 -0.25512006601E+03  0.26867644137E+03  0.00000000000E+00 0.  1.
</event>
<event>
12    1  0.2625820E-002  0.1927821E+03  0.7818608E-02  0.1155976E+00
          2   -1    0    0  502    0  0.00000000000E+00  0.00000000000E+00  0.21799802991E+04  0.21799802991E+04  0.00000000000E+00 0. -1.
         -2   -1    0    0    0  501 -0.00000000000E+00 -0.00000000000E+00 -0.17115512233E+02  0.17115512233E+02  0.00000000000E+00 0.  1.
          6    2    1    2  502    0  0.16105343171E+02 -0.86180577521E+02  0.10137132662E+04  0.10319189200E+04  0.17191741463E+03 0.  0.
         24    2    3    3    0    0  0.15174250169E+02  0.12234989522E+01  0.23728099789E+03  0.25056784863E+03  0.79058332845E+02 0.  0.
         -6    2    1    2    0  501 -0.16105343171E+02  0.86180577521E+02  0.11491515207E+04  0.11651768913E+04  0.17146864588E+03 0.  0.
        -24    2    5    5    0    0 -0.39477530820E+02  0.23054869634E+02  0.94989179110E+03  0.95480188332E+03  0.85218654854E+02 0.  0.
          5    1    3    3  502    0  0.93109300139E+00 -0.87404076473E+02  0.77643226827E+03  0.78135107137E+03  0.47000000000E+01 0. -1.
        -13    1    4    4    0    0  0.12889826428E+02  0.37651431030E+02  0.16321487504E+03  0.16799664675E+03  0.00000000000E+00 0.  1.
         14    1    4    4    0    0  0.22844237416E+01 -0.36427932078E+02  0.74066122850E+02  0.82571201889E+02  0.00000000000E+00 0. -1.
         -5    1    5    5    0  501  0.23372187649E+02  0.63125707888E+02  0.19925972959E+03  0.21037500799E+03  0.47000000000E+01 0.  1.
         11    1    6    6    0    0  0.18367965243E+01 -0.28936488546E+02  0.22161841945E+03  0.22350708720E+03  0.00000000000E+00 0. -1.
        -12    1    6    6    0    0 -0.41314327344E+02  0.51991358179E+02  0.72827337165E+03  0.73129479612E+03  0.00000000000E+00 0.  1.
</event>
<event>
12    1  0.2625820E-002  0.1755678E+03  0.7818608E-02  0.1172163E+00
         -1   -1    0    0    0  501 -0.00000000000E+00  0.00000000000E+00  0.18931092154E+04  0.18931092154E+04  0.00000000000E+00 0.  1.
          1   -1    0    0  502    0  0.00000000000E+00 -0.00000000000E+00 -0.27639903081E+02  0.27639903081E+02  0.00000000000E+00 0. -1.
          6    2    1    2  502    0 -0.20426389845E+01  0.30583285754E+02  0.15512855333E+04  0.15612952300E+04  0.17382888067E+03 0.  0.
         24    2    3    3    0    0  0.43453269166E+02  0.23197492822E+02  0.13985616512E+04  0.14016985454E+04  0.79735873799E+02 0.  0.
         -6    2    1    2    0  501  0.20426389845E+01 -0.30583285754E+02  0.31418377904E+03  0.35945388847E+03  0.17191899599E+03 0.  0.
        -24    2    5    5    0    0  0.33259744450E+02 -0.70958864576E+02  0.26727576346E+03  0.28997621605E+03  0.80675281715E+02 0.  0.
          5    1    3    3  502    0 -0.45495908150E+02  0.73857929323E+01  0.15272388205E+03  0.15959668463E+03  0.47000000000E+01 0. -1.
        -11    1    4    4    0    0  0.15348022029E+02  0.26635884352E+02  0.12547202873E+04  0.12550968215E+04  0.00000000000E+00 0.  1.
         12    1    4    4    0    0  0.28105247137E+02 -0.34383915297E+01  0.14384136394E+03  0.14660172385E+03  0.00000000000E+00 0. -1.
         -5    1    5    5    0  501 -0.31217105466E+02  0.40375578822E+02  0.46908015579E+02  0.69477672417E+02  0.47000000000E+01 0.  1.
         11    1    6    6    0    0 -0.16192658513E+02 -0.37888067572E+02  0.50452788150E+02  0.65139785739E+02  0.00000000000E+00 0. -1.
        -12    1    6    6    0    0  0.49452402963E+02 -0.33070797004E+02  0.21682297531E+03  0.22483643031E+03  0.00000000000E+00 0.  1.
</event>
<event>
12    1  0.2625820E-002  0.2752282E+03  0.7818608E-02  0.1098324E+00
         -2   -1    0    0    0  501 -0.00000000000E+00  0.00000000000E+00  0.11118034824E+03  0.11118034824E+03  0.00000000000E+00 0. -1.
          2   -1    0    0  502    0  0.00000000000E+00 -0.00000000000E+00 -0.74414675738E+03  0.74414675738E+03  0.00000000000E+00 0.  1.
          6    2    1    2  502    0 -0.15927324244E+03  0.14451507144E+03 -0.19217245277E+03  0.33563498304E+03  0.17166251369E+03 0.  0.
         24    2    3    3    0    0 -0.31351976187E+02  0.47141884992E+02 -0.23141346711E+02  0.10231333249E+03  0.82019463220E+02 0.  0.
         -6    2    1    2    0  501  0.15927324244E+03 -0.14451507144E+03 -0.44079395637E+03  0.51969212258E+03  0.17183718649E+03 0.  0.
        -24    2    5    5    0    0  0.13911608848E+03 -0.67728211707E+02 -0.38520226252E+03  0.42266089508E+03  0.79505046652E+02 0.  0.
          5    1    3    3  502    0 -0.12792126625E+03  0.97373186452E+02 -0.16903110606E+03  0.23332165055E+03  0.47000000000E+01 0. -1.
        -13    1    4    4    0    0 -0.30458435002E+02 -0.17043788965E+02 -0.13398954663E+02  0.37386347657E+02  0.00000000000E+00 0.  1.
         14    1    4    4    0    0 -0.89354118519E+00  0.64185673957E+02 -0.97423920480E+01  0.64926984837E+02  0.00000000000E+00 0. -1.
         -5    1    5    5    0  501  0.20157153958E+02 -0.76786859737E+02 -0.55591693850E+02  0.97031227494E+02  0.47000000000E+01 0.  1.
         11    1    6    6    0    0  0.17037463654E+02  0.17106351475E+02 -0.72622252923E+02  0.76530347236E+02  0.00000000000E+00 0. -1.
        -12    1    6    6    0    0  0.12207862483E+03 -0.84834563183E+02 -0.31258000960E+03  0.34613054784E+03  0.00000000000E+00 0.  1.
</event>
<event>
12    1  0.2625820E-002  0.1742848E+03  0.7818608E-02  0.1173452E+00
         -2   -1    0    0    0  501 -0.00000000000E+00  0.00000000000E+00  0.39737050569E+03  0.39737050569E+03  0.00000000000E+00 0.  1.
          2   -1    0    0  502    0  0.00000000000E+00 -0.00000000000E+00 -0.11080347469E+03  0.11080347469E+03  0.00000000000E+00 0. -1.
          6    2    1    2  502    0  0.32438378972E+02  0.11714455417E+01  0.28416016797E+03  0.33278734562E+03  0.17013757852E+03 0.  0.
         24    2    3    3    0    0 -0.35585115557E+02 -0.15400437762E+02  0.22127717684E+03  0.23856323141E+03  0.80282952475E+02 0.  0.
         -6    2    1    2    0  501 -0.32438378972E+02 -0.11714455417E+01  0.24068630216E+01  0.17538663476E+03  0.17233994879E+03 0.  0.
        -24    2    5    5    0    0 -0.73805546052E+02  0.94347846711E+01 -0.38373166616E+02  0.11615121082E+03  0.80512918652E+02 0.  0.
          5    1    3    3  502    0  0.68023494529E+02  0.16571883304E+02  0.62882991131E+02  0.94224114205E+02  0.47000000000E+01 0. -1.
        -13    1    4    4    0    0  0.57135623843E+01 -0.82266633328E+01  0.17811588979E+03  0.17839728973E+03  0.00000000000E+00 0.  1.
         14    1    4    4    0    0 -0.41298677941E+02 -0.71737744291E+01  0.43161287049E+02  0.60165941686E+02  0.00000000000E+00 0. -1.
         -5    1    5    5    0  501  0.41367167081E+02 -0.10606230213E+02  0.40780029637E+02  0.59235423935E+02  0.47000000000E+01 0.  1.
         11    1    6    6    0    0 -0.17543286930E+02  0.26775738148E+02  0.16197769833E+02  0.35875824970E+02  0.00000000000E+00 0. -1.
        -12    1    6    6    0    0 -0.56262259123E+02 -0.17340953477E+02 -0.54570936449E+02  0.80275385854E+02  0.00000000000E+00 0.  1.
</event>
<event>
12    1  0.2625820E-002  0.1716920E+03  0.7818608E-02  0.1176095E+00
          2   -1    0    0  502    0  0.00000000000E+00  0.00000000000E+00  0.73513788674E+03  0.73513788674E+03  0.00000000000E+00 0. -1.
         -2   -1    0    0    0  501 -0.00000000000E+00 -0.00000000000E+00 -0.42292792280E+02  0.42292792280E+02  0.00000000000E+00 0.  1.
          6    2    1    2  502    0 -0.83858493287E+00 -0.17518100807E+02  0.25732560095E+03  0.30918206469E+03  0.17049779220E+03 0.  0.
         24    2    3    3    0    0  0.11788445687E+02 -0.21582760535E+01  0.27164252647E+03  0.28423350811E+03  0.82797338959E+02 0.  0.
         -6    2    1    2    0  501  0.83858493287E+00  0.17518100807E+02  0.43551949352E+03  0.46824861433E+03  0.17109046879E+03 0.  0.
        -24    2    5    5    0    0 -0.48583728256E+02 -0.36302553621E+02  0.29234633688E+03  0.30743856904E+03  0.73306473100E+02 0.  0.
          5    1    3    3  502    0 -0.12627030620E+02 -0.15359824754E+02 -0.14316925527E+02  0.24948556577E+02  0.47000000000E+01 0. -1.
        -13    1    4    4    0    0  0.37274970148E+02 -0.16120434363E+02  0.73519216906E+02  0.83990279545E+02  0.00000000000E+00 0.  1.
         14    1    4    4    0    0 -0.25486524461E+02  0.13962158309E+02  0.19812330957E+03  0.20024322857E+03  0.00000000000E+00 0. -1.
         -5    1    5    5    0  501  0.49422313189E+02  0.53820654429E+02  0.14317315664E+03  0.16081004529E+03  0.47000000000E+01 0.  1.
         11    1    6    6    0    0 -0.27149327415E+02 -0.57069053869E+02  0.22636805732E+03  0.23502438227E+03  0.00000000000E+00 0. -1.
        -12    1    6    6    0    0 -0.21434400841E+02  0.20766500247E+02  0.65978279564E+02  0.72414186774E+02  0.00000000000E+00 0.  1.
</event>
<event>
12    1  0.2625820E-002  0.2241228E+03  0.7818608E-02  0.1130846E+00
         -2   -1    0    0    0  501 -0.00000000000E+00  0.00000000000E+00  0.21319439692E+02  0.21319439692E+02  0.00000000000E+00 0. -1.
          2   -1    0    0  502    0  0.00000000000E+00 -0.00000000000E+00 -0.28173641877E+04  0.28173641877E+04  0.00000000000E+00 0.  1.
          6    2    1    2  502    0  0.92324483516E+02 -0.10858018448E+03 -0.83374373983E+03  0.86383848073E+03  0.17542756444E+03 0.  0.
         24    2    3    3    0    0  0.60562052729E+02 -0.50392876020E+02 -0.21772722983E+03  0.24424744992E+03  0.77746163861E+02 0.  0.
         -6    2    1    2    0  501 -0.92324483516E+02  0.10858018448E+03 -0.19623010082E+04  0.19748451467E+04  0.17051287309E+03 0.  0.
        -24    2    5    5    0    0 -0.10714722876E+02  0.27039495058E+01 -0.59439766037E+03  0.60041741517E+03  0.84085534744E+02 0.  0.
          5    1    3    3  502    0  0.31762430787E+02 -0.58187308458E+02 -0.61601650999E+03  0.61959103081E+03  0.47000000000E+01 0. -1.
        -13    1    4    4    0    0  0.30400453572E+02 -0.49986740058E+02 -0.20185395770E+03  0.21016156166E+03  0.00000000000E+00 0.  1.
         14    1    4    4    0    0  0.30161599157E+02 -0.40613596195E+00 -0.15873272133E+02  0.34085888258E+02  0.00000000000E+00 0. -1.
         -5    1    5    5    0  501 -0.81609760640E+02  0.10587623497E+03 -0.13679033478E+04  0.13744277315E+04  0.47000000000E+01 0.  1.
         13    1    6    6    0    0 -0.29735501868E+02  0.32836891074E+02 -0.22603047105E+03  0.23033070861E+03  0.00000000000E+00 0. -1.
        -14    1    6    6    0    0  0.19020778991E+02 -0.30132941568E+02 -0.36836718932E+03  0.37008670656E+03  0.00000000000E+00 0.  1.
</event>
<event>
12    1  0.2625820E-002  0.1777467E+03  0.7818608E-02  0.1170002E+00
         -2   -1    0    0    0  501 -0.00000000000E+00  0.00000000000E+00  0.66494765584E+02  0.66494765584E+02  0.00000000000E+00 0. -1.
          2   -1    0    0  502    0  0.00000000000E+00 -0.00000000000E+00 -0.56247900147E+03  0.56247900147E+03  0.00000000000E+00 0.  1.
          6    2    1    2  502    0 -0.43600397548E+02 -0.61957904457E+01 -0.12463993734E+03  0.21749090380E+03  0.17270725743E+03 0.  0.
         24    2    3    3    0    0  0.14234173942E+02 -0.23374606854E+02 -0.13356330035E+03  0.15632174654E+03  0.76474500889E+02 0.  0.
         -6    2    1    2    0  501  0.43600397548E+02  0.61957904457E+01 -0.37134429855E+03  0.41148286326E+03  0.17170374546E+03 0.  0.
        -24    2    5    5    0    0  0.43437597546E+02 -0.48649455654E+02 -0.32002897693E+03  0.33622743318E+03  0.79854532312E+02 0.  0.
          5    1    3    3  502    0 -0.57834571490E+02  0.17178816408E+02  0.89233630106E+01  0.61169157261E+02  0.47000000000E+01 0. -1.
        -13    1    4    4    0    0  0.18460891653E+02  0.15833333299E+02 -0.94467323679E+01  0.26090989181E+02  0.00000000000E+00 0.  1.
         14    1    4    4    0    0 -0.42267177112E+01 -0.39207940153E+02 -0.12411656798E+03  0.13023075735E+03  0.00000000000E+00 0. -1.
         -5    1    5    5    0  501  0.16280000222E+00  0.54845246100E+02 -0.51315321611E+02  0.75255430074E+02  0.47000000000E+01 0.  1.
         11    1    6    6    0    0 -0.21969622662E+02 -0.25581148884E+02 -0.10835043056E+03  0.11347632044E+03  0.00000000000E+00 0. -1.
        -12    1    6    6    0    0  0.65407220208E+02 -0.23068306770E+02 -0.21167854638E+03  0.22275111274E+03  0.00000000000E+00 0.  1.
</event>
<event>
12    1  0.2625820E-002  0.1727634E+03  0.7818608E-02  0.1174996E+00
         -2   -1    0    0    0  501 -0.00000000000E+00  0.00000000000E+00  0.28956940157E+03  0.28956940157E+03  0.00000000000E+00 0. -1.
          2   -1    0    0  502    0  0.00000000000E+00 -0.00000000000E+00 -0.11035645790E+03  0.11035645790E+03  0.00000000000E+00 0.  1.
          6    2    1    2  502    0  0.25449876417E+01  0.55117948804E+00  0.14109935179E+03  0.22326483002E+03  0.17300686832E+03 0.  0.
         24    2    3    3    0    0 -0.33796765312E+02 -0.51328687718E+02  0.57716936725E+02  0.11844612572E+03  0.83194857921E+02 0.  0.
         -6    2    1    2    0  501 -0.25449876417E+01 -0.55117948804E+00  0.38113591871E+02  0.17666102945E+03  0.17248099222E+03 0.  0.
        -24    2    5    5    0    0  0.15490134342E+02  0.44065802101E+02  0.71027430660E+02  0.11816870982E+03  0.82080502545E+02 0.  0.
          5    1    3    3  502    0  0.36341752954E+02  0.51879867206E+02  0.83382415069E+02  0.10481870430E+03  0.47000000000E+01 0. -1.
        -11    1    4    4    0    0 -0.16399516424E+02 -0.49475814996E+02 -0.59106383277E+01  0.52456992422E+02  0.00000000000E+00 0.  1.
         12    1    4    4    0    0 -0.17397248888E+02 -0.18528727215E+01  0.63627575053E+02  0.65989133297E+02  0.00000000000E+00 0. -1.
         -5    1    5    5    0  501 -0.18035121984E+02 -0.44616981589E+02 -0.32913838789E+02  0.58492319623E+02  0.47000000000E+01 0.  1.
         11    1    6    6    0    0 -0.29511333067E+02  0.93085086063E+01  0.47371602262E+02  0.56582999326E+02  0.00000000000E+00 0. -1.
        -12    1    6    6    0    0  0.45001467409E+02  0.34757293494E+02  0.23655828398E+02  0.61585710496E+02  0.00000000000E+00 0.  1.
</event>
<event>
12    1  0.2625820E-002  0.1959799E+03  0.7818608E-02  0.1153176E+00
          2   -1    0    0  502    0  0.00000000000E+00  0.00000000000E+00  0.30320772731E+03  0.30320772731E+03  0.00000000000E+00 0.  1.
         -2   -1    0    0    0  501 -0.00000000000E+00 -0.00000000000E+00 -0.13308778592E+03  0.13308778592E+03  0.00000000000E+00 0. -1.
          6    2    1    2  502    0 -0.91708558022E+02  0.14659961354E+02  0.13317734973E+03  0.23740344385E+03  0.17320165874E+03 0.  0.
         24    2    3    3    0    0 -0.72575827831E+02  0.11683883313E+02  0.16673608206E+03  0.19837528837E+03  0.78409629881E+02 0.  0.
         -6    2    1    2    0  501  0.91708558022E+02 -0.14659961354E+02  0.36942591656E+02  0.19889206937E+03  0.17195326720E+03 0.  0.
        -24    2    5    5    0    0  0.44803664909E+02  0.40348618086E+02 -0.22971914680E+02  0.10488222479E+03  0.82687319711E+02 0.  0.
          5    1    3    3  502    0 -0.19132730191E+02  0.29760780414E+01 -0.33558732332E+02  0.39028155488E+02  0.47000000000E+01 0. -1.
        -13    1    4    4    0    0 -0.74578007091E+02 -0.27592395470E+01  0.76146808713E+02  0.10662002167E+03  0.00000000000E+00 0.  1.
         14    1    4    4    0    0  0.20021792599E+01  0.14443122860E+02  0.90589273349E+02  0.91755266692E+02  0.00000000000E+00 0. -1.
         -5    1    5    5    0  501  0.46904893113E+02 -0.55008579441E+02  0.59914506336E+02  0.94009844588E+02  0.47000000000E+01 0.  1.
         13    1    6    6    0    0  0.17862232635E+02 -0.22851269327E+02  0.71403484288E+01  0.29870126217E+02  0.00000000000E+00 0. -1.
        -14    1    6    6    0    0  0.26941432274E+02  0.63199887413E+02 -0.30112263109E+02  0.75012098568E+02  0.00000000000E+00 0.  1.
</event>
<event>
12    1  0.2625820E-002  0.1729265E+03  0.7818608E-02  0.1174830E+00
          1   -1    0    0  502    0  0.00000000000E+00  0.00000000000E+00  0.12274802412E+03  0.12274802412E+03  0.00000000000E+00 0.  1.
         -1   -1    0    0    0  501 -0.00000000000E+00 -0.00000000000E+00 -0.49987280627E+03  0.49987280627E+03  0.00000000000E+00 0. -1.
          6    2    1    2  502    0  0.39013625979E+01 -0.14347113955E+02  0.34786226893E+02  0.17554866677E+03  0.17142401382E+03 0.  0.
         24    2    3    3    0    0  0.46546276227E+02  0.16704010882E+02 -0.25474120329E+02  0.95322982229E+02  0.77407753644E+02 0.  0.
         -6    2    1    2    0  501 -0.39013625979E+01  0.14347113955E+02 -0.41191100905E+03  0.44707216363E+03  0.17315247559E+03 0.  0.
        -24    2    5    5    0    0  0.64798488018E+02  0.49463655468E+01 -0.25587271144E+03  0.27625622799E+03  0.81383957045E+02 0.  0.
          5    1    3    3  502    0 -0.42644913629E+02 -0.31051124837E+02  0.60260347222E+02  0.80225684537E+02  0.47000000000E+01 0. -1.
        -11    1    4    4    0    0  0.22388079319E+00 -0.19458490697E+02  0.14484211021E+02  0.24258510913E+02  0.00000000000E+00 0.  1.
         12    1    4    4    0    0  0.46322395434E+02  0.36162501579E+02 -0.39958331350E+02  0.71064471316E+02  0.00000000000E+00 0. -1.
         -5    1    5    5    0  501 -0.68699850616E+02  0.94007484080E+01 -0.15603829761E+03  0.17081593564E+03  0.47000000000E+01 0.  1.
         13    1    6    6    0    0  0.15006098338E+01 -0.20254237720E+02 -0.14285484466E+03  0.14429134631E+03  0.00000000000E+00 0. -1.
        -14    1    6    6    0    0  0.63297878184E+02  0.25200603267E+02 -0.11301786677E+03  0.13196488168E+03  0.00000000000E+00 0.  1.
</event>
<event>
12    1  0.2625820E-002  0.3206936E+03  0.7818608E-02  0.1075331E+00
          1   -1    0    0  502    0  0.00000000000E+00  0.00000000000E+00  0.83220599815E+03  0.83220599815E+03  0.00000000000E+00 0. -1.
         -1   -1    0    0    0  501 -0.00000000000E+00 -0.00000000000E+00 -0.27550510362E+03  0.27550510362E+03  0.00000000000E+00 0.  1.
          6    2    1    2  502    0  0.19293493037E+03  0.18969009512E+03 -0.13297501384E+03  0.34708016111E+03  0.17197692981E+03 0.  0.
         24    2    3    3    0    0  0.12555238271E+03  0.73812006879E+02 -0.13289536143E+03  0.21295247788E+03  0.80473396744E+02 0.  0.
         -6    2    1    2    0  501 -0.19293493037E+03 -0.18969009512E+03  0.68967590838E+03  0.76063094066E+03  0.17233789413E+03 0.  0.
        -24    2    5    5    0    0 -0.64239688544E+02 -0.11202689535E+03  0.47333767276E+03  0.49715729861E+03  0.80250010839E+02 0.  0.
          5    1    3    3  502    0  0.67382547665E+02  0.11587808824E+03 -0.79652409246E-01  0.13412768323E+03  0.47000000000E+01 0. -1.
        -13    1    4    4    0    0  0.93107325280E+02  0.65976138995E+02 -0.51923507548E+02  0.12537095187E+03  0.00000000000E+00 0.  1.
         14    1    4    4    0    0  0.32445057428E+02  0.78358678844E+01 -0.80971853882E+02  0.87581526009E+02  0.00000000000E+00 0. -1.
         -5    1    5    5    0  501 -0.12869524183E+03 -0.77663199763E+02  0.21633823562E+03  0.26347364205E+03  0.47000000000E+01 0.  1.
         13    1    6    6    0    0 -0.33046777031E+02 -0.11145202523E+03  0.41533370590E+03  0.43129540996E+03  0.00000000000E+00 0. -1.
        -14    1    6    6    0    0 -0.31192911512E+02 -0.57487012162E+00  0.58003966864E+02  0.65861888647E+02  0.00000000000E+00 0.  1.
</event>
<event>
12    1  0.2625820E-002  0.2536165E+03  0.7818608E-02  0.1111040E+00
          2   -1    0    0  502    0  0.00000000000E+00  0.00000000000E+00  0.10145259313E+04  0.10145259313E+04  0.00000000000E+00 0. -1.
         -2   -1    0    0    0  501 -0.00000000000E+00 -0.00000000000E+00 -0.86316388119E+02  0.86316388119E+02  0.00000000000E+00 0.  1.
          6    2    1    2  502    0 -0.15892201508E+03 -0.97381761426E+02  0.18026995995E+03  0.31101908154E+03  0.17174456699E+03 0.  0.
         24    2    3    3    0    0 -0.37958821237E+02 -0.85499002662E+01  0.12507090207E+02  0.85875428992E+02  0.75526082215E+02 0.  0.
         -6    2    1    2    0  501  0.15892201508E+03  0.97381761426E+02  0.74793958323E+03  0.78982323787E+03  0.17224317862E+03 0.  0.
        -24    2    5    5    0    0  0.28612720478E+02  0.48503355585E+02  0.10964906830E+03  0.13651895787E+03  0.58679164979E+02 0.  0.
          5    1    3    3  502    0 -0.12096319384E+03 -0.88831861160E+02  0.16776286974E+03  0.22514365255E+03  0.47000000000E+01 0. -1.
        -13    1    4    4    0    0  0.10299160827E+02  0.14709522449E+01  0.31409480903E+02  0.33087639760E+02  0.00000000000E+00 0.  1.
         14    1    4    4    0    0 -0.48257982064E+02 -0.10020852511E+02 -0.18902390696E+02  0.52787789232E+02  0.00000000000E+00 0. -1.
         -5    1    5    5    0  501  0.13030929460E+03  0.48878405841E+02  0.63829051493E+03  0.65330428000E+03  0.47000000000E+01 0.  1.
         13    1    6    6    0    0  0.82644534972E+01 -0.92527293395E+01  0.48186698161E+02  0.49758135732E+02  0.00000000000E+00 0. -1.
        -14    1    6    6    0    0  0.20348266981E+02  0.57756084924E+02  0.61462370138E+02  0.86760822137E+02  0.00000000000E+00 0.  1.
</event>
<event>
12    1  0.2625820E-002  0.2185124E+03  0.7818608E-02  0.1134997E+00
         -2   -1    0    0    0  501 -0.00000000000E+00  0.00000000000E+00  0.11926663997E+03  0.11926663997E+03  0.00000000000E+00 0. -1.
          2   -1    0    0  502    0  0.00000000000E+00 -0.00000000000E+00 -0.40039268018E+03  0.40039268018E+03  0.00000000000E+00 0.  1.
          6    2    1    2  502    0 -0.13396556797E+03 -0.16749944209E+02 -0.13749007912E+03  0.25786061455E+03  0.17135122015E+03 0.  0.
         24    2    3    3    0    0 -0.13246335029E+02 -0.43255336056E+02 -0.53938207822E+02  0.10860019047E+03  0.82693298506E+02 0.  0.
         -6    2    1    2    0  501  0.13396556797E+03  0.16749944209E+02 -0.14363596108E+03  0.26179870559E+03  0.17227866641E+03 0.  0.
        -24    2    5    5    0    0  0.97043114875E+01 -0.13776858907E+02 -0.95406687383E+02  0.12497437145E+03  0.78944170266E+02 0.  0.
          5    1    3    3  502    0 -0.12071923294E+03  0.26505391847E+02 -0.83551871300E+02  0.14926042408E+03  0.47000000000E+01 0. -1.
        -13    1    4    4    0    0  0.11512908663E+02 -0.12748481734E+02 -0.65443605015E+02  0.67660448489E+02  0.00000000000E+00 0.  1.
         14    1    4    4    0    0 -0.24759243692E+02 -0.30506854322E+02  0.11505397193E+02  0.40939741980E+02  0.00000000000E+00 0. -1.
         -5    1    5    5    0  501  0.12426125649E+03  0.30526803116E+02 -0.48229273701E+02  0.13682433414E+03  0.47000000000E+01 0.  1.
         11    1    6    6    0    0  0.21530926044E+02  0.19569359538E+02 -0.72535981693E+01  0.29985918286E+02  0.00000000000E+00 0. -1.
        -12    1    6    6    0    0 -0.11826614557E+02 -0.33346218445E+02 -0.88153089214E+02  0.94988453164E+02  0.00000000000E+00 0.  1.
</event>
<event>
12    1  0.2625820E-002  0.2636096E+03  0.7818608E-02  0.1104994E+00
          2   -1    0    0  502    0  0.00000000000E+00  0.00000000000E+00  0.67765526626E+03  0.67765526626E+03  0.00000000000E+00 0.  1.
         -2   -1    0    0    0  501 -0.00000000000E+00 -0.00000000000E+00 -0.10262996148E+03  0.10262996148E+03  0.00000000000E+00 0. -1.
          6    2    1    2  502    0 -0.20096969174E+03  0.12490715550E+01  0.29889551231E+03  0.39862016114E+03  0.17078971986E+03 0.  0.
         24    2    3    3    0    0 -0.76266566075E+02 -0.58879855154E+02  0.13133949783E+03  0.18121853887E+03  0.79414537052E+02 0.  0.
         -6    2    1    2    0  501  0.20096969174E+03 -0.12490715550E+01  0.27612979246E+03  0.38166506659E+03  0.17038246269E+03 0.  0.
        -24    2    5    5    0    0  0.19897927168E+03  0.41699203506E+02  0.24466157130E+03  0.32817810514E+03  0.80684633527E+02 0.  0.
          5    1    3    3  502    0 -0.12470312567E+03  0.60128926709E+02  0.16755601449E+03  0.21740162228E+03  0.47000000000E+01 0. -1.
        -13    1    4    4    0    0 -0.14788556704E+02 -0.20138310357E+02 -0.61288456479E+01  0.25725778947E+02  0.00000000000E+00 0.  1.
         14    1    4    4    0    0 -0.61478009371E+02 -0.38741544797E+02  0.13746834347E+03  0.15549275992E+03  0.00000000000E+00 0. -1.
         -5    1    5    5    0  501  0.19904200584E+01 -0.42948275061E+02  0.31468221159E+02  0.53486961454E+02  0.47000000000E+01 0.  1.
         11    1    6    6    0    0 -0.55210727726E+01 -0.36744135350E+01  0.19721155098E+02  0.20806429722E+02  0.00000000000E+00 0. -1.
        -12    1    6    6    0    0  0.20450034446E+03  0.45373617041E+02  0.22494041621E+03  0.30737167542E+03  0.00000000000E+00 0.  1.
</event>
<event>
12    1  0.2625820E-002  0.2068530E+03  0.7818608E-02  0.1144083E+00
         -1   -1    0    0    0  501 -0.00000000000E+00  0.00000000000E+00  0.57609027069E+03  0.57609027069E+03  0.00000000000E+00 0. -1.
          1   -1    0    0  502    0  0.00000000000E+00 -0.00000000000E+00 -0.92426643966E+02  0.92426643966E+02  0.00000000000E+00 0.  1.
          6    2    1    2  502    0 -0.11546630666E+03 -0.75641803071E+01  0.93052461952E+02  0.22619218337E+03  0.17062959399E+03 0.  0.
         24    2    3    3    0    0 -0.98793382027E+02 -0.48581491952E+02  0.86474016353E+01  0.13076309725E+03  0.70027968373E+02 0.  0.
         -6    2    1    2    0  501  0.11546630666E+03  0.75641803071E+01  0.39061116477E+03  0.44232473129E+03  0.17229161636E+03 0.  0.
        -24    2    5    5    0    0  0.70729382616E+02 -0.59982345148E+02  0.27545431020E+03  0.30144493633E+03  0.79959022835E+02 0.  0.
          5    1    3    3  502    0 -0.16672924634E+02  0.41017311645E+02  0.84405060316E+02  0.95429086119E+02  0.47000000000E+01 0. -1.
        -13    1    4    4    0    0 -0.75915902374E+02 -0.16452468035E+02  0.33012742038E+02  0.84402304913E+02  0.00000000000E+00 0.  1.
         14    1    4    4    0    0 -0.22877479653E+02 -0.32129023917E+02 -0.24365340402E+02  0.46360792337E+02  0.00000000000E+00 0. -1.
         -5    1    5    5    0  501  0.44736924045E+02  0.67546525455E+02  0.11515685457E+03  0.14087979496E+03  0.47000000000E+01 0.  1.
         11    1    6    6    0    0  0.29714793581E+02 -0.33151701320E+02  0.23108224776E+03  0.23533170099E+03  0.00000000000E+00 0. -1.
        -12    1    6    6    0    0  0.41014589035E+02 -0.26830643828E+02  0.44372062441E+02  0.66113235341E+02  0.00000000000E+00 0.  1.
</event>
<event>
12    1  0.2625820E-002  0.2036168E+03  0.7818608E-02  0.1146723E+00
          1   -1    0    0  502    0  0.00000000000E+00  0.00000000000E+00  0.14503592942E+04  0.14503592942E+04  0.00000000000E+00 0. -1.
         -1   -1    0    0    0  501 -0.00000000000E+00 -0.00000000000E+00 -0.35460191035E+02  0.35460191035E+02  0.00000000000E+00 0.  1.
          6    2    1    2  502    0  0.43777708418E+02 -0.10168005063E+03  0.10330336665E+04  0.10528055242E+04  0.17025156447E+03 0.  0.
         24    2    3    3    0    0  0.12605325344E+02 -0.11999232525E+03  0.56329402740E+03  0.58165323947E+03  0.80394510549E+02 0.  0.
         -6    2    1    2    0  501 -0.43777708418E+02  0.10168005063E+03  0.38186543665E+03  0.43301396102E+03  0.17153588045E+03 0.  0.
        -24    2    5    5    0    0 -0.82768732632E+02  0.10634938963E+03  0.34468503703E+03  0.37873159914E+03  0.80430054440E+02 0.  0.
          5    1    3    3  502    0  0.31172383074E+02  0.18312274619E+02  0.46973963910E+03  0.47115228474E+03  0.47000000000E+01 0. -1.
        -13    1    4    4    0    0  0.26438321539E+02 -0.54117671118E+02  0.13141302983E+03  0.14455826363E+03  0.00000000000E+00 0.  1.
         14    1    4    4    0    0 -0.13832996195E+02 -0.65874654135E+02  0.43188099757E+03  0.43709497584E+03  0.00000000000E+00 0. -1.
         -5    1    5    5    0  501  0.38991024214E+02 -0.46693389955E+01  0.37180399621E+02  0.54282361886E+02  0.47000000000E+01 0.  1.
         11    1    6    6    0    0 -0.11668470944E+02  0.68051908349E+02  0.21635714735E+03  0.22710709071E+03  0.00000000000E+00 0. -1.
        -12    1    6    6    0    0 -0.71100261688E+02  0.38297481279E+02  0.12832788968E+03  0.15162450842E+03  0.00000000000E+00 0.  1.
</event>
<event>
12    1  0.2625820E-002  0.1887719E+03  0.7818608E-02  0.1159574E+00
         -2   -1    0    0    0  501 -0.00000000000E+00  0.00000000000E+00  0.53605084829E+02  0.53605084829E+02  0.00000000000E+00 0.  1.
          2   -1    0    0  502    0  0.00000000000E+00 -0.00000000000E+00 -0.12834913149E+04  0.12834913149E+04  0.00000000000E+00 0. -1.
          6    2    1    2  502    0  0.46932241164E+02  0.64479263015E+02 -0.15113333258E+03  0.24198895134E+03  0.17133930586E+03 0.  0.
         24    2    3    3    0    0  0.70844522946E+02  0.88030068720E+02 -0.73158459062E+02  0.15696772711E+03  0.80737028628E+02 0.  0.
         -6    2    1    2    0  501 -0.46932241164E+02 -0.64479263015E+02 -0.10787528975E+04  0.10951074484E+04  0.17085754023E+03 0.  0.
        -24    2    5    5    0    0  0.13274632654E+02 -0.74179494951E+02 -0.88656336262E+03  0.89341989432E+03  0.80781794203E+02 0.  0.
          5    1    3    3  502    0 -0.23912281781E+02 -0.23550805705E+02 -0.77974873516E+02  0.85021224227E+02  0.47000000000E+01 0. -1.
        -11    1    4    4    0    0  0.48389927000E+02  0.79157981686E+02 -0.14980227602E+02  0.93978605643E+02  0.00000000000E+00 0.  1.
         12    1    4    4    0    0  0.22454595946E+02  0.88720870340E+01 -0.58178231460E+02  0.62989121467E+02  0.00000000000E+00 0. -1.
         -5    1    5    5    0  501 -0.60206873818E+02  0.97002319361E+01 -0.19218953487E+03  0.20168755407E+03  0.47000000000E+01 0.  1.
         13    1    6    6    0    0 -0.94793402460E+01 -0.31597304875E+02 -0.69782134989E+03  0.69860066127E+03  0.00000000000E+00 0. -1.
        -14    1    6    6    0    0  0.22753972900E+02 -0.42582190075E+02 -0.18874201274E+03  0.19481923305E+03  0.00000000000E+00 0.  1.
</event>
<event>
12    1  0.2625820E-002  0.1782543E+03  0.7818608E-02  0.1169503E+00
         -1   -1    0    0    0  501 -0.00000000000E+00  0.00000000000E+00  0.43872871369E+02  0.43872871369E+02  0.00000000000E+00 0.  1.
          1   -1    0    0  502    0  0.00000000000E+00 -0.00000000000E+00 -0.80532555723E+03  0.80532555723E+03  0.00000000000E+00 0. -1.
          6    2    1    2  502    0  0.29385857471E+02 -0.39371018656E+02 -0.51880963348E+03  0.54916243543E+03  0.17321183263E+03 0.  0.
         24    2    3    3    0    0  0.19718337901E+02  0.10632917163E+02 -0.10737403771E+03  0.13455998247E+03  0.77944423351E+02 0.  0.
         -6    2    1    2    0  501 -0.29385857471E+02  0.39371018656E+02 -0.24264305238E+03  0.30003599317E+03  0.16950616685E+03 0.  0.
        -24    2    5    5    0    0 -0.15001693427E+02  0.93926441123E+02 -0.17648032200E+03  0.21295674658E+03  0.71819528763E+02 0.  0.
          5    1    3    3  502    0  0.96675195705E+01 -0.50003935819E+02 -0.41143559577E+03  0.41460245296E+03  0.47000000000E+01 0. -1.
        -13    1    4    4    0    0  0.14903925629E+02 -0.28066989817E+02 -0.16798000399E+02  0.35945176783E+02  0.00000000000E+00 0.  1.
         14    1    4    4    0    0  0.48144122715E+01  0.38699906981E+02 -0.90576037314E+02  0.98614805691E+02  0.00000000000E+00 0. -1.
         -5    1    5    5    0  501 -0.14384164045E+02 -0.54555422467E+02 -0.66162730384E+02  0.87079246596E+02  0.47000000000E+01 0.  1.
         13    1    6    6    0    0 -0.17571789956E+02  0.40443980230E+02 -0.14337950314E+03  0.15000721736E+03  0.00000000000E+00 0. -1.
        -14    1    6    6    0    0  0.25700965290E+01  0.53482460893E+02 -0.33100818856E+02  0.62949529214E+02  0.00000000000E+00 0.  1.
</event>
<event>
12    1  0.2625820E-002  0.2223182E+03  0.7818608E-02  0.1132166E+00
         -1   -1    0    0    0  501 -0.00000000000E+00  0.00000000000E+00  0.22612505374E+02  0.22612505374E+02  0.00000000000E+00 0. -1.
          1   -1    0    0  502    0  0.00000000000E+00 -0.00000000000E+00 -0.24031842515E+04  0.24031842515E+04  0.00000000000E+00 0.  1.
          6    2    1    2  502    0 -0.95814740013E+02  0.10268622594E+03 -0.15518763184E+04  0.15676262742E+04  0.17148499223E+03 0.  0.
         24    2    3    3    0    0 -0.98026692710E+02  0.48681157460E+02 -0.13977288399E+04  0.14042097044E+04  0.78612317603E+02 0.  0.
         -6    2    1    2    0  501  0.95814740013E+02 -0.10268622594E+03 -0.82869542773E+03  0.85817048268E+03  0.17319220534E+03 0.  0.
        -24    2    5    5    0    0  0.93569015397E+02 -0.52374870075E+01 -0.39356371210E+03  0.41222990374E+03  0.79110720753E+02 0.  0.
          5    1    3    3  502    0  0.22119526972E+01  0.54005068482E+02 -0.15414747847E+03  0.16341656977E+03  0.47000000000E+01 0. -1.
        -13    1    4    4    0    0 -0.78992467737E+02  0.53712150364E+02 -0.13361478580E+04  0.13395581000E+04  0.00000000000E+00 0.  1.
         14    1    4    4    0    0 -0.19034224973E+02 -0.50309929042E+01 -0.61580981936E+02  0.64651604358E+02  0.00000000000E+00 0. -1.
         -5    1    5    5    0  501  0.22457246158E+01 -0.97448738934E+02 -0.43513171563E+03  0.44594057894E+03  0.47000000000E+01 0.  1.
         13    1    6    6    0    0 -0.37095775829E+01 -0.22598713469E+02 -0.95742701046E+02  0.98443525027E+02  0.00000000000E+00 0. -1.
        -14    1    6    6    0    0  0.97278592980E+02  0.17361226461E+02 -0.29782101106E+03  0.31378637871E+03  0.00000000000E+00 0.  1.
</event>
<event>
12    1  0.2625820E-002  0.1823382E+03  0.7818608E-02  0.1165559E+00
         -1   -1    0    0    0  501 -0.00000000000E+00  0.00000000000E+00  0.16681044615E+04  0.16681044615E+04  0.00000000000E+00 0. -1.
          1   -1    0    0  502    0  0.00000000000E+00 -0.00000000000E+00 -0.20082653395E+02  0.20082653395E+02  0.00000000000E+00 0.  1.
          6    2    1    2  502    0  0.15862078000E+02 -0.66456848395E+02  0.73779805802E+03  0.75923739811E+03  0.16561199850E+03 0.  0.
         24    2    3    3    0    0 -0.55222858687E+01 -0.83944678112E+02  0.35967366095E+03  0.38007613312E+03  0.89529436284E+02 0.  0.
         -6    2    1    2    0  501 -0.15862078000E+02  0.66456848395E+02  0.91022375012E+03  0.92894971683E+03  0.17254617611E+03 0.  0.
        -24    2    5    5    0    0 -0.24410478800E+02 -0.21126189944E+02  0.30317474854E+03  0.31553758450E+03  0.81282542433E+02 0.  0.
          5    1    3    3  502    0  0.21384363868E+02  0.17487829716E+02  0.37812439707E+03  0.37916126499E+03  0.47000000000E+01 0. -1.
        -11    1    4    4    0    0  0.31163063125E+01 -0.18734184958E+01 -0.49995417934E+01  0.61819479161E+01  0.00000000000E+00 0.  1.
         12    1    4    4    0    0 -0.86385921811E+01 -0.82071259616E+02  0.36467320274E+03  0.37389418520E+03  0.00000000000E+00 0. -1.
         -5    1    5    5    0  501  0.85484008008E+01  0.87583038339E+02  0.60704900158E+03  0.61341213233E+03  0.47000000000E+01 0.  1.
         13    1    6    6    0    0 -0.10742898591E+02  0.26216068289E+02  0.19000225111E+03  0.19210296076E+03  0.00000000000E+00 0. -1.
        -14    1    6    6    0    0 -0.13667580209E+02 -0.47342258233E+02  0.11317249743E+03  0.12343462374E+03  0.00000000000E+00 0.  1.
</event>
<event>
12    1  0.2625820E-002  0.3856571E+03  0.7818608E-02  0.1048862E+00
         -2   -1    0    0    0  501 -0.00000000000E+00  0.00000000000E+00  0.20865378596E+03  0.20865378596E+03  0.00000000000E+00 0. -1.
          2   -1    0    0  502    0  0.00000000000E+00 -0.00000000000E+00 -0.14130409324E+04  0.14130409324E+04  0.00000000000E+00 0.  1.
          6    2    1    2  502    0  0.30914977227E+03 -0.15401416253E+03 -0.11731291257E+04  0.12349493809E+04  0.17197117169E+03 0.  0.
         24    2    3    3    0    0  0.21068741924E+03 -0.17262197986E+03 -0.90948111569E+03  0.95286171899E+03  0.81252810102E+02 0.  0.
         -6    2    1    2    0  501 -0.30914977227E+03  0.15401416253E+03 -0.31258020753E+02  0.38674533746E+03  0.17117519748E+03 0.  0.
        -24    2    5    5    0    0 -0.32368396824E+03  0.15882392345E+03 -0.27376961756E+02  0.37026719218E+03  0.79699094213E+02 0.  0.
          5    1    3    3  502    0  0.98462353021E+02  0.18607817329E+02 -0.26364800996E+03  0.28208766188E+03  0.47000000000E+01 0. -1.
        -13    1    4    4    0    0  0.64376253950E+02 -0.55016527624E+02 -0.16996762326E+03  0.18989500610E+03  0.00000000000E+00 0.  1.
         14    1    4    4    0    0  0.14631116529E+03 -0.11760545223E+03 -0.73951349243E+03  0.76296671289E+03  0.00000000000E+00 0. -1.
         -5    1    5    5    0  501  0.14534195971E+02 -0.48097609231E+01 -0.38810589971E+01  0.16478145272E+02  0.47000000000E+01 0.  1.
         11    1    6    6    0    0 -0.14789299432E+03  0.10343636132E+03  0.15163180112E+02  0.18111140395E+03  0.00000000000E+00 0. -1.
        -12    1    6    6    0    0 -0.17579097392E+03  0.55387562134E+02 -0.42540141868E+02  0.18915578823E+03  0.00000000000E+00 0.  1.
</event>
<event>
12    1  0.2625820E-002  0.1804481E+03  0.7818608E-02  0.1167370E+00
         -4   -1    0    0    0  501 -0.00000000000E+00  0.00000000000E+00  0.53831604747E+03  0.53831604747E+03  0.00000000000E+00 0.  1.
          4   -1    0    0  502    0  0.00000000000E+00 -0.00000000000E+00 -0.81924571422E+02  0.81924571422E+02  0.00000000000E+00 0. -1.
          6    2    1    2  502    0 -0.61934057835E+01 -0.59333175481E+02  0.38656524673E+03  0.42648720642E+03  0.16999959788E+03 0.  0.
         24    2    3    3    0    0 -0.42924517747E+02 -0.63248606832E+02  0.36933990823E+03  0.38545907613E+03  0.79522519279E+02 0.  0.
         -6    2    1    2    0  501  0.61934057835E+01  0.59333175481E+02  0.69826229320E+02  0.19375341247E+03  0.17060450918E+03 0.  0.
        -24    2    5    5    0    0  0.38735094304E+02  0.93744486764E+02  0.72157291215E+02  0.14610235072E+03  0.76490430001E+02 0.  0.
          5    1    3    3  502    0  0.36731111964E+02  0.39154313508E+01  0.17225338497E+02  0.41028130290E+02  0.47000000000E+01 0. -1.
        -11    1    4    4    0    0  0.82490286168E+01 -0.23638676463E+02  0.23516536926E+03  0.23649436441E+03  0.00000000000E+00 0.  1.
         12    1    4    4    0    0 -0.51173546364E+02 -0.39609930369E+02  0.13417453897E+03  0.14896471172E+03  0.00000000000E+00 0. -1.
         -5    1    5    5    0  501 -0.32541688520E+02 -0.34411311283E+02 -0.23310618946E+01  0.47651061746E+02  0.47000000000E+01 0.  1.
         13    1    6    6    0    0  0.86973916379E+01  0.70428804034E+02  0.78533218218E+01  0.71397028808E+02  0.00000000000E+00 0. -1.
        -14    1    6    6    0    0  0.30037702666E+02  0.23315682730E+02  0.64303969393E+02  0.74705321914E+02  0.00000000000E+00 0.  1.
</event>
<event>
12    1  0.2625820E-002  0.2596833E+03  0.7818608E-02  0.1107334E+00
          2   -1    0    0  502    0  0.00000000000E+00  0.00000000000E+00  0.89941381065E+03  0.89941381065E+03  0.00000000000E+00 0. -1.
         -2   -1    0    0    0  501 -0.00000000000E+00 -0.00000000000E+00 -0.83687005212E+02  0.83687005212E+02  0.00000000000E+00 0.  1.
          6    2    1    2  502    0 -0.18003714536E+03 -0.69627626961E+02  0.56511121112E+03  0.62153045588E+03  0.17230219532E+03 0.  0.
         24    2    3    3    0    0 -0.72524279947E+02 -0.59447268442E+02  0.43054199800E+03  0.44892217378E+03  0.85854278681E+02 0.  0.
         -6    2    1    2    0  501  0.18003714536E+03  0.69627626961E+02  0.25061559432E+03  0.36157035998E+03  0.17511016233E+03 0.  0.
        -24    2    5    5    0    0  0.90513377649E+02 -0.29803892361E+02  0.93974023093E+02  0.15551259172E+03  0.79196626414E+02 0.  0.
          5    1    3    3  502    0 -0.10751286542E+03 -0.10180358519E+02  0.13456921312E+03  0.17260828210E+03  0.47000000000E+01 0. -1.
        -13    1    4    4    0    0 -0.27814712357E+01  0.19043480749E+02  0.10854817999E+03  0.11024109089E+03  0.00000000000E+00 0.  1.
         14    1    4    4    0    0 -0.69742808712E+02 -0.78490749191E+02  0.32199381801E+03  0.33868108289E+03  0.00000000000E+00 0. -1.
         -5    1    5    5    0  501  0.89523767716E+02  0.99431519322E+02  0.15664157123E+03  0.20605776825E+03  0.47000000000E+01 0.  1.
         11    1    6    6    0    0  0.72865614467E+00 -0.33593563402E+02  0.19885705978E+02  0.39044842733E+02  0.00000000000E+00 0. -1.
        -12    1    6    6    0    0  0.89784721504E+02  0.37896710409E+01  0.74088317115E+02  0.11646774899E+03  0.00000000000E+00 0.  1.
</event>
<event>
12    1  0.2625820E-002  0.1893604E+03  0.7818608E-02  0.1159040E+00
         -2   -1    0    0    0  501 -0.00000000000E+00  0.00000000000E+00  0.64373785370E+02  0.64373785370E+02  0.00000000000E+00 0.  1.
          2   -1    0    0  502    0  0.00000000000E+00 -0.00000000000E+00 -0.57768902903E+03  0.57768902903E+03  0.00000000000E+00 0. -1.
          6    2    1    2  502    0 -0.20399340127E+02 -0.76690595585E+02 -0.31964643427E+03  0.37244450714E+03  0.17390654797E+03 0.  0.
         24    2    3    3    0    0 -0.68694861287E+02 -0.85177467904E+02 -0.18859407149E+03  0.23243987808E+03  0.80538115935E+02 0.  0.
         -6    2    1    2    0  501  0.20399340127E+02  0.76690595585E+02 -0.19366880939E+03  0.26961830726E+03  0.16996718316E+03 0.  0.
        -24    2    5    5    0    0 -0.18454585630E+02  0.34625402277E+02 -0.27539758979E+02  0.93834179917E+02  0.80665511729E+02 0.  0.
          5    1    3    3  502    0  0.48295521160E+02  0.84868723192E+01 -0.13105236278E+03  0.14000462905E+03  0.47000000000E+01 0. -1.
        -11    1    4    4    0    0 -0.10422374898E+02 -0.75093958241E+02 -0.92410855287E+02  0.11953030845E+03  0.00000000000E+00 0.  1.
         12    1    4    4    0    0 -0.58272486389E+02 -0.10083509663E+02 -0.96183216199E+02  0.11290956964E+03  0.00000000000E+00 0. -1.
         -5    1    5    5    0  501  0.38853925757E+02  0.42065193308E+02 -0.16612905041E+03  0.17578412734E+03  0.47000000000E+01 0.  1.
         11    1    6    6    0    0  0.16755878398E+02  0.17292342694E+02 -0.44877824101E+02  0.50929398904E+02  0.00000000000E+00 0. -1.
        -12    1    6    6    0    0 -0.35210464028E+02  0.17333059583E+02  0.17338065122E+02  0.42904781013E+02  0.00000000000E+00 0.  1.
</event>
<event>
12    1  0.2625820E-002  0.1796066E+03  0.7818608E-02  0.1168184E+00
          1   -1    0    0  502    0  0.00000000000E+00  0.00000000000E+00  0.39790897211E+03  0.39790897211E+03  0.00000000000E+00 0.  1.
         -1   -1    0    0    0  501 -0.00000000000E+00 -0.00000000000E+00 -0.81109242870E+02  0.81109242870E+02  0.00000000000E+00 0. -1.
          6    2    1    2  502    0  0.46743158740E+02 -0.10818184834E+02  0.15249243624E+03  0.23493329832E+03  0.17215619518E+03 0.  0.
         24    2    3    3    0    0 -0.26650671891E+02  0.13845941307E+02  0.12778974114E+03  0.15352514984E+03  0.79610208467E+02 0.  0.
         -6    2    1    2    0  501 -0.46743158740E+02  0.10818184834E+02  0.16430729300E+03  0.24408491666E+03  0.17400748258E+03 0.  0.
        -24    2    5    5    0    0 -0.90968479462E+02  0.17978029337E+02  0.80991897593E+02  0.14937120341E+03  0.84578928443E+02 0.  0.
          5    1    3    3  502    0  0.73393830632E+02 -0.24664126141E+02  0.24702695104E+02  0.81408148477E+02  0.47000000000E+01 0. -1.
        -11    1    4    4    0    0 -0.38491303209E+02 -0.51925043275E+01  0.20500255762E+02  0.43918139877E+02  0.00000000000E+00 0.  1.
         12    1    4    4    0    0  0.11840631318E+02  0.19038445634E+02  0.10728948537E+03  0.10960700997E+03  0.00000000000E+00 0. -1.
         -5    1    5    5    0  501  0.44225320722E+02 -0.71598445026E+01  0.83315395404E+02  0.94713713250E+02  0.47000000000E+01 0.  1.
         11    1    6    6    0    0 -0.37026631086E+02  0.16078393979E+02 -0.11770845346E+02  0.42048055397E+02  0.00000000000E+00 0. -1.
        -12    1    6    6    0    0 -0.53941848376E+02  0.18996353572E+01  0.92762742939E+02  0.10732314801E+03  0.00000000000E+00 0.  1.
</event>
<event>
12    1  0.2625820E-002  0.2010835E+03  0.7818608E-02  0.1148828E+00
          4   -1    0    0  502    0  0.00000000000E+00  0.00000000000E+00  0.26314858528E+02  0.26314858528E+02  0.00000000000E+00 0.  1.
         -4   -1    0    0    0  501 -0.00000000000E+00 -0.00000000000E+00 -0.16290555757E+04  0.16290555757E+04  0.00000000000E+00 0. -1.
          6    2    1    2  502    0  0.10119860557E+03  0.24990529360E+02 -0.99705594242E+03  0.10170509155E+04  0.17148273407E+03 0.  0.
         24    2    3    3    0    0  0.11846392974E+03  0.34337759754E+02 -0.97897836117E+03  0.98995200264E+03  0.79959686647E+02 0.  0.
         -6    2    1    2    0  501 -0.10119860557E+03 -0.24990529360E+02 -0.60568477474E+03  0.63831951872E+03  0.17242991994E+03 0.  0.
        -24    2    5    5    0    0 -0.10268315789E+02  0.39051432077E+02 -0.18332796653E+03  0.20153919193E+03  0.73337915939E+02 0.  0.
          5    1    3    3  502    0 -0.17265324170E+02 -0.93472303944E+01 -0.18077581247E+02  0.27098912865E+02  0.47000000000E+01 0. -1.
        -13    1    4    4    0    0  0.83175014223E+02 -0.15530812536E+02 -0.50262112653E+03  0.50969332541E+03  0.00000000000E+00 0.  1.
         14    1    4    4    0    0  0.35288915520E+02  0.49868572291E+02 -0.47635723464E+03  0.48025867723E+03  0.00000000000E+00 0. -1.
         -5    1    5    5    0  501 -0.90930289785E+02 -0.64041961437E+02 -0.42235680821E+03  0.43678032679E+03  0.47000000000E+01 0.  1.
         11    1    6    6    0    0 -0.14959266675E+02  0.26687600840E+02 -0.18561464597E+03  0.18811912316E+03  0.00000000000E+00 0. -1.
        -12    1    6    6    0    0  0.46909508861E+01  0.12363831238E+02  0.22866794368E+01  0.13420068775E+02  0.00000000000E+00 0.  1.
</event>
<event>
12    1  0.2625820E-002  0.1917621E+03  0.7818608E-02  0.1156882E+00
          2   -1    0    0  502    0  0.00000000000E+00  0.00000000000E+00  0.46452864478E+03  0.46452864478E+03  0.00000000000E+00 0. -1.
         -2   -1    0    0    0  501 -0.00000000000E+00 -0.00000000000E+00 -0.79474399081E+02  0.79474399081E+02  0.00000000000E+00 0.  1.
          6    2    1    2  502    0  0.69868748123E+02 -0.40014189130E+02  0.20744221469E+03  0.28119523722E+03  0.17191774690E+03 0.  0.
         24    2    3    3    0    0  0.78518582860E+02 -0.83110374459E+02  0.12708230258E+03  0.18947879209E+03  0.81730036262E+02 0.  0.
         -6    2    1    2    0  501 -0.69868748123E+02  0.40014189130E+02  0.17761203101E+03  0.26280780664E+03  0.17617926206E+03 0.  0.
        -24    2    5    5    0    0  0.13189156210E+02  0.60089736409E+02  0.13619304079E+03  0.16773275302E+03  0.76164308002E+02 0.  0.
          5    1    3    3  502    0 -0.86498347363E+01  0.43096185329E+02  0.80359912117E+02  0.91716445125E+02  0.47000000000E+01 0. -1.
        -13    1    4    4    0    0  0.31244539143E+02 -0.50042796190E+01 -0.16180030869E+01  0.31684096559E+02  0.00000000000E+00 0.  1.
         14    1    4    4    0    0  0.47274043717E+02 -0.78106094840E+02  0.12870030566E+03  0.15779469553E+03  0.00000000000E+00 0. -1.
         -5    1    5    5    0  501 -0.83057904333E+02 -0.20075547279E+02  0.41418990214E+02  0.95075053621E+02  0.47000000000E+01 0.  1.
         13    1    6    6    0    0 -0.30361101432E+02  0.27124618209E+02  0.77588756799E+02  0.87621667268E+02  0.00000000000E+00 0. -1.
        -14    1    6    6    0    0  0.43550257642E+02  0.32965118200E+02  0.58604283993E+02  0.80111085756E+02  0.00000000000E+00 0.  1.
</event>
<event>
12    1  0.2625820E-002  0.2508393E+03  0.7818608E-02  0.1112776E+00
          1   -1    0    0  502    0  0.00000000000E+00  0.00000000000E+00  0.78898469985E+03  0.78898469985E+03  0.00000000000E+00 0. -1.
         -1   -1    0    0    0  501 -0.00000000000E+00 -0.00000000000E+00 -0.11788847372E+03  0.11788847372E+03  0.00000000000E+00 0.  1.
          6    2    1    2  502    0 -0.13263692457E+03  0.12595012358E+03  0.59455538536E+03  0.64577980841E+03  0.17343433139E+03 0.  0.
         24    2    3    3    0    0 -0.50262570505E+02  0.10093338458E+02  0.16580893528E+03  0.19405651111E+03  0.86816617141E+02 0.  0.
         -6    2    1    2    0  501  0.13263692457E+03 -0.12595012358E+03  0.76540840763E+02  0.26109336516E+03  0.16986835384E+03 0.  0.
        -24    2    5    5    0    0  0.13795763078E+03 -0.15182308304E+03  0.55907965603E+02  0.22724775269E+03  0.80207755575E+02 0.  0.
          5    1    3    3  502    0 -0.82374354061E+02  0.11585678512E+03  0.42874645008E+03  0.45172329730E+03  0.47000000000E+01 0. -1.
        -11    1    4    4    0    0 -0.62746446992E+02 -0.91869513912E+01  0.65568240124E+02  0.91217930249E+02  0.00000000000E+00 0.  1.
         12    1    4    4    0    0  0.12483876487E+02  0.19280289849E+02  0.10024069516E+03  0.10283858086E+03  0.00000000000E+00 0. -1.
         -5    1    5    5    0  501 -0.53207062103E+01  0.25872959459E+02  0.20632875160E+02  0.33845612465E+02  0.47000000000E+01 0.  1.
         13    1    6    6    0    0 -0.99008537393E+01 -0.39529833042E+01 -0.46425313720E+00  0.10670919021E+02  0.00000000000E+00 0. -1.
        -14    1    6    6    0    0  0.14785848452E+03 -0.14787009973E+03  0.56372218740E+02  0.21657683367E+03  0.00000000000E+00 0.  1.
</event>
<event>
12    1  0.2625820E-002  0.1993056E+03  0.7818608E-02  0.1150326E+00
          2   -1    0    0  502    0  0.00000000000E+00  0.00000000000E+00  0.17853161348E+03  0.17853161348E+03  0.00000000000E+00 0. -1.
         -2   -1    0    0    0  501 -0.00000000000E+00 -0.00000000000E+00 -0.23407547287E+03  0.23407547287E+03  0.00000000000E+00 0.  1.
          6    2    1    2  502    0 -0.62766051451E+02 -0.83070642454E+02  0.17867103758E+02  0.20172219324E+03  0.17184964649E+03 0.  0.
         24    2    3    3    0    0 -0.85414320335E+02 -0.22810321732E+02  0.49343035775E+02  0.12990941838E+03  0.81399047347E+02 0.  0.
         -6    2    1    2    0  501  0.62766051451E+02  0.83070642454E+02 -0.73410963141E+02  0.21088489311E+03  0.16805641844E+03 0.  0.
        -24    2    5    5    0    0 -0.18367740927E+02  0.78136291767E+02 -0.57560201926E+02  0.12793685688E+03  0.81314257698E+02 0.  0.
          5    1    3    3  502    0  0.22648268883E+02 -0.60260320722E+02 -0.31475932018E+02  0.71812774862E+02  0.47000000000E+01 0. -1.
        -13    1    4    4    0    0 -0.42571199668E+02 -0.20820109160E+02 -0.17476494135E+02  0.50509522210E+02  0.00000000000E+00 0.  1.
         14    1    4    4    0    0 -0.42843120666E+02 -0.19902125718E+01  0.66819529911E+02  0.79399896171E+02  0.00000000000E+00 0. -1.
         -5    1    5    5    0  501  0.81133792379E+02  0.49343506871E+01 -0.15850761214E+02  0.82948036225E+02  0.47000000000E+01 0.  1.
         11    1    6    6    0    0  0.26993712604E+02  0.58292163044E+02 -0.26509951507E+02  0.69493987664E+02  0.00000000000E+00 0. -1.
        -12    1    6    6    0    0 -0.45361453531E+02  0.19844128722E+02 -0.31050250420E+02  0.58442869217E+02  0.00000000000E+00 0.  1.
</event>
<event>
12    1  0.2625820E-002  0.2480407E+03  0.7818608E-02  0.1114549E+00
         -2   -1    0    0    0  501 -0.00000000000E+00  0.00000000000E+00  0.61795425118E+02  0.61795425118E+02  0.00000000000E+00 0. -1.
          2   -1    0    0  502    0  0.00000000000E+00 -0.00000000000E+00 -0.10384982376E+04  0.10384982376E+04  0.00000000000E+00 0.  1.
          6    2    1    2  502    0  0.17950880681E+03 -0.38597850482E+01 -0.59972722494E+03  0.64891127398E+03  0.17080628646E+03 0.  0.
         24    2    3    3    0    0  0.13968448914E+03 -0.48991130193E+02 -0.53351899169E+03  0.55930974082E+03  0.79202173873E+02 0.  0.
         -6    2    1    2    0  501 -0.17950880681E+03  0.38597850482E+01 -0.37697558757E+03  0.45138238877E+03  0.17145599320E+03 0.  0.
        -24    2    5    5    0    0 -0.60372980799E+02 -0.13065819019E+02 -0.27636405351E+03  0.29446014083E+03  0.80709801302E+02 0.  0.
          5    1    3    3  502    0  0.39824317677E+02  0.45131345145E+02 -0.66208233259E+02  0.89601533159E+02  0.47000000000E+01 0. -1.
        -13    1    4    4    0    0  0.13321837728E+03 -0.33581171959E+02 -0.36560279922E+03  0.39056399982E+03  0.00000000000E+00 0.  1.
         14    1    4    4    0    0  0.64661118563E+01 -0.15409958234E+02 -0.16791619246E+03  0.16874574100E+03  0.00000000000E+00 0. -1.
         -5    1    5    5    0  501 -0.11913582602E+03  0.16925604067E+02 -0.10061153406E+03  0.15692224794E+03  0.47000000000E+01 0.  1.
         11    1    6    6    0    0  0.91054130035E+01 -0.21860759311E+02 -0.29361972861E+02  0.37721701896E+02  0.00000000000E+00 0. -1.
        -12    1    6    6    0    0 -0.69478393803E+02  0.87949402920E+01 -0.24700208065E+03  0.25673843893E+03  0.00000000000E+00 0.  1.
</event>
<event>
12    1  0.2625820E-002  0.1846013E+03  0.7818608E-02  0.1163423E+00
         -2   -1    0    0    0  501 -0.00000000000E+00  0.00000000000E+00  0.66198940530E+02  0.66198940530E+02  0.00000000000E+00 0. -1.
          2   -1    0    0  502    0  0.00000000000E+00 -0.00000000000E+00 -0.52957644902E+03  0.52957644902E+03  0.00000000000E+00 0.  1.
          6    2    1    2  502    0  0.35844048363E+02 -0.67235337218E+02 -0.28534385836E+03  0.34173258402E+03  0.17191467390E+03 0.  0.
         24    2    3    3    0    0  0.67020919875E+02  0.42343225620E+01 -0.22043128542E+03  0.24016663642E+03  0.67678123994E+02 0.  0.
         -6    2    1    2    0  501 -0.35844048363E+02  0.67235337218E+02 -0.17803365013E+03  0.25404280553E+03  0.16442743108E+03 0.  0.
        -24    2    5    5    0    0  0.15242201393E+02  0.68118209588E+02 -0.17390291218E+03  0.20256720574E+03  0.76933963865E+02 0.  0.
          5    1    3    3  502    0 -0.31176871512E+02 -0.71469659780E+02 -0.64912572938E+02  0.10156594760E+03  0.47000000000E+01 0. -1.
        -11    1    4    4    0    0  0.74944413415E+02 -0.93243846930E+01 -0.14920448691E+03  0.16722914868E+03  0.00000000000E+00 0.  1.
         12    1    4    4    0    0 -0.79234935397E+01  0.13558707255E+02 -0.71226798511E+02  0.72937487744E+02  0.00000000000E+00 0. -1.
         -5    1    5    5    0  501 -0.51086249755E+02 -0.88287236986E+00 -0.41307379479E+01  0.51475599789E+02  0.47000000000E+01 0.  1.
         13    1    6    6    0    0  0.40908777408E+02  0.36933217286E+02 -0.58837300206E+02  0.80618971115E+02  0.00000000000E+00 0. -1.
        -14    1    6    6    0    0 -0.25666576015E+02  0.31184992302E+02 -0.11506561198E+03  0.12194823463E+03  0.00000000000E+00 0.  1.
</event>
<event>
12    1  0.2625820E-002  0.1786941E+03  0.7818608E-02  0.1169073E+00
          1   -1    0    0  502    0  0.00000000000E+00  0.00000000000E+00  0.23715367047E+03  0.23715367047E+03  0.00000000000E+00 0. -1.
         -1   -1    0    0    0  501 -0.00000000000E+00 -0.00000000000E+00 -0.14481321320E+03  0.14481321320E+03  0.00000000000E+00 0.  1.
          6    2    1    2  502    0  0.47224099183E+02  0.46531405911E+01  0.96785452883E+02  0.20325106876E+03  0.17231310398E+03 0.  0.
         24    2    3    3    0    0  0.59591443801E+02  0.10550852262E+02  0.13204264611E+03  0.16513422353E+03  0.78559472584E+02 0.  0.
         -6    2    1    2    0  501 -0.47224099183E+02 -0.46531405911E+01 -0.44449956117E+01  0.17871581491E+03  0.17224348247E+03 0.  0.
        -24    2    5    5    0    0 -0.54163853502E+02 -0.51668621986E+02  0.36921866893E+02  0.11553414831E+03  0.79884577032E+02 0.  0.
          5    1    3    3  502    0 -0.12367344617E+02 -0.58977116707E+01 -0.35257193228E+02  0.38116845228E+02  0.47000000000E+01 0. -1.
        -13    1    4    4    0    0  0.33256451788E+01 -0.21798007769E+02  0.52055351453E+01  0.22656360138E+02  0.00000000000E+00 0.  1.
         14    1    4    4    0    0  0.56265798622E+02  0.32348860031E+02  0.12683711097E+03  0.14247786340E+03  0.00000000000E+00 0. -1.
         -5    1    5    5    0  501  0.69397543191E+01  0.47015481395E+02 -0.41366862505E+02  0.63181666600E+02  0.47000000000E+01 0.  1.
         13    1    6    6    0    0  0.15831787063E+01 -0.26857868628E+02  0.46544699987E+02  0.53761144509E+02  0.00000000000E+00 0. -1.
        -14    1    6    6    0    0 -0.55747032209E+02 -0.24810753358E+02 -0.96228330938E+01  0.61773003805E+02  0.00000000000E+00 0.  1.
</event>
<event>
12    1  0.2625820E-002  0.3388875E+03  0.7818608E-02  0.1067271E+00
         -2   -1    0    0    0  501 -0.00000000000E+00  0.00000000000E+00  0.19502455044E+03  0.19502455044E+03  0.00000000000E+00 0.  1.
          2   -1    0    0  502    0  0.00000000000E+00 -0.00000000000E+00 -0.64482856853E+03  0.64482856853E+03  0.00000000000E+00 0. -1.
          6    2    1    2  502    0 -0.14968147776E+03 -0.25090620521E+03 -0.34862379553E+03  0.48621676702E+03  0.17178394896E+03 0.  0.
         24    2    3    3    0    0 -0.56204683011E+02 -0.19715814111E+03 -0.28671960892E+03  0.36179416509E+03  0.81587895894E+02 0.  0.
         -6    2    1    2    0  501  0.14968147776E+03  0.25090620521E+03 -0.10118022257E+03  0.35363635195E+03  0.17164720617E+03 0.  0.
        -24    2    5    5    0    0  0.19982829586E+02  0.10916459075E+03 -0.29297477369E+01  0.13779458025E+03  0.81624393243E+02 0.  0.
          5    1    3    3  502    0 -0.93476794745E+02 -0.53748064101E+02 -0.61904186614E+02  0.12442260193E+03  0.47000000000E+01 0. -1.
        -11    1    4    4    0    0 -0.19454068001E+02 -0.71896641261E+02 -0.44844380169E+02  0.86940245106E+02  0.00000000000E+00 0.  1.
         12    1    4    4    0    0 -0.36750615011E+02 -0.12526149985E+03 -0.24187522875E+03  0.27485391998E+03  0.00000000000E+00 0. -1.
         -5    1    5    5    0  501  0.12969864817E+03  0.14174161447E+03 -0.98250474829E+02  0.21584177171E+03  0.47000000000E+01 0.  1.
         13    1    6    6    0    0  0.13384823694E+02  0.62845299883E+02 -0.42063844681E+02  0.76798777673E+02  0.00000000000E+00 0. -1.
        -14    1    6    6    0    0  0.65980058923E+01  0.46319290865E+02  0.39134096945E+02  0.60995802574E+02  0.00000000000E+00 0.  1.
</event>
<event>
12    1  0.2625820E-002  0.2081031E+03  0.7818608E-02  0.1143077E+00
          2   -1    0    0  502    0  0.00000000000E+00  0.00000000000E+00  0.81258212413E+03  0.81258212413E+03  0.00000000000E+00 0. -1.
         -2   -1    0    0    0  501 -0.00000000000E+00 -0.00000000000E+00 -0.53993151895E+02  0.53993151895E+02  0.00000000000E+00 0.  1.
          6    2    1    2  502    0 -0.10536007952E+02  0.11556464504E+03  0.33404931127E+03  0.39469824895E+03  0.17530422332E+03 0.  0.
         24    2    3    3    0    0  0.63342230536E+02  0.65576071701E+02  0.18164328447E+03  0.21804452384E+03  0.78972604343E+02 0.  0.
         -6    2    1    2    0  501  0.10536007952E+02 -0.11556464504E+03  0.42453966096E+03  0.47187702708E+03  0.17019932522E+03 0.  0.
        -24    2    5    5    0    0 -0.35325182076E+02 -0.10649842564E+02  0.23817432548E+03  0.25309747410E+03  0.77265997986E+02 0.  0.
          5    1    3    3  502    0 -0.73878238488E+02  0.49988573341E+02  0.15240602681E+03  0.17665372511E+03  0.47000000000E+01 0. -1.
        -11    1    4    4    0    0  0.65581183086E+02  0.53174127117E+02  0.18635605702E+03  0.20458973424E+03  0.00000000000E+00 0.  1.
         12    1    4    4    0    0 -0.22389525500E+01  0.12401944583E+02 -0.47127725546E+01  0.13454789598E+02  0.00000000000E+00 0. -1.
         -5    1    5    5    0  501  0.45861190028E+02 -0.10491480248E+03  0.18636533549E+03  0.21877955298E+03  0.47000000000E+01 0.  1.
         11    1    6    6    0    0  0.10120146436E+02 -0.19953174603E+02  0.16464733050E+03  0.16616043446E+03  0.00000000000E+00 0. -1.
        -12    1    6    6    0    0 -0.45445328511E+02  0.93033320390E+01  0.73526994979E+02  0.86937039639E+02  0.00000000000E+00 0.  1.
</event>
<event>
12    1  0.2625820E-002  0.1841140E+03  0.7818608E-02  0.1163880E+00
          2   -1    0    0  502    0  0.00000000000E+00  0.00000000000E+00  0.22363829106E+04  0.22363829106E+04  0.00000000000E+00 0. -1.
         -2   -1    0    0    0  501 -0.00000000000E+00 -0.00000000000E+00 -0.34879373281E+02  0.34879373281E+02  0.00000000000E+00 0.  1.
          6    2    1    2  502    0 -0.56872269264E+02 -0.35646748536E+02  0.24618752620E+03  0.30727464439E+03  0.17118488056E+03 0.  0.
         24    2    3    3    0    0 -0.57317766704E+00 -0.68521164398E+02  0.91584915142E+02  0.13942241092E+03  0.79720345471E+02 0.  0.
         -6    2    1    2    0  501  0.56872269264E+02  0.35646748536E+02  0.19553160111E+04  0.19639876395E+04  0.17170206484E+03 0.  0.
        -24    2    5    5    0    0  0.54408708552E+02  0.68107496378E+02  0.85205430450E+03  0.86023574139E+03  0.80062814846E+02 0.  0.
          5    1    3    3  502    0 -0.56299091597E+02  0.32874415863E+02  0.15460261106E+03  0.16785223347E+03  0.47000000000E+01 0. -1.
        -13    1    4    4    0    0 -0.19391944804E+02 -0.54049396628E+02  0.99088711193E+02  0.11452492080E+03  0.00000000000E+00 0.  1.
         14    1    4    4    0    0  0.18818767137E+02 -0.14471767770E+02 -0.75037960507E+01  0.24897490117E+02  0.00000000000E+00 0. -1.
         -5    1    5    5    0  501  0.24635607122E+01 -0.32460747842E+02  0.11032617066E+04  0.11037518981E+04  0.47000000000E+01 0.  1.
         13    1    6    6    0    0  0.33356772473E+02  0.19245869699E+02  0.11526855823E+03  0.12153155264E+03  0.00000000000E+00 0. -1.
        -14    1    6    6    0    0  0.21051936079E+02  0.48861626679E+02  0.73678574627E+03  0.73870418875E+03  0.00000000000E+00 0.  1.
</event>
<event>
12    1  0.2625820E-002  0.2511833E+03  0.7818608E-02  0.1112559E+00
         -2   -1    0    0    0  501 -0.00000000000E+00  0.00000000000E+00  0.18706944316E+03  0.18706944316E+03  0.00000000000E+00 0. -1.
          2   -1    0    0  502    0  0.00000000000E+00 -0.00000000000E+00 -0.35224519089E+03  0.35224519089E+03  0.00000000000E+00 0.  1.
          6    2    1    2  502    0  0.38356018722E+02  0.17853257186E+03 -0.13837391349E+03  0.28730891582E+03  0.17336092347E+03 0.  0.
         24    2    3    3    0    0 -0.21779245128E+02  0.15135249163E+03 -0.13993840359E+03  0.22113078991E+03  0.77033481068E+02 0.  0.
         -6    2    1    2    0  501 -0.38356018722E+02 -0.17853257186E+03 -0.26801834239E+02  0.25200571823E+03  0.17159102632E+03 0.  0.
        -24    2    5    5    0    0  0.32515297423E+02 -0.55750520486E+02  0.11530805067E+02  0.10507152606E+03  0.82107862125E+02 0.  0.
          5    1    3    3  502    0  0.60135263850E+02  0.27180080225E+02  0.15644901006E+01  0.66178125907E+02  0.47000000000E+01 0. -1.
        -11    1    4    4    0    0 -0.13165047142E+02  0.38723865921E+01 -0.41238604305E+02  0.43461895140E+02  0.00000000000E+00 0.  1.
         12    1    4    4    0    0 -0.86141979859E+01  0.14748010504E+03 -0.98699799281E+02  0.17766889477E+03  0.00000000000E+00 0. -1.
         -5    1    5    5    0  501 -0.70871316145E+02 -0.12278205137E+03 -0.38332639306E+02  0.14693419217E+03  0.47000000000E+01 0.  1.
         13    1    6    6    0    0  0.90580963018E+01  0.21622244634E+02  0.49011848264E+01  0.23949784641E+02  0.00000000000E+00 0. -1.
        -14    1    6    6    0    0  0.23457201121E+02 -0.77372765121E+02  0.66296202402E+01  0.81121741422E+02  0.00000000000E+00 0.  1.
</event>
<event>
12    1  0.2625820E-002  0.1739627E+03  0.7818608E-02  0.1173777E+00
         -2   -1    0    0    0  501 -0.00000000000E+00  0.00000000000E+00  0.32666184579E+02  0.32666184579E+02  0.00000000000E+00 0. -1.
          2   -1    0    0  502    0  0.00000000000E+00 -0.00000000000E+00 -0.99418368506E+03  0.99418368506E+03  0.00000000000E+00 0.  1.
          6    2    1    2  502    0  0.35028649779E+01  0.38897714515E+02 -0.61700748232E+03  0.64130008131E+03  0.17041789458E+03 0.  0.
         24    2    3    3    0    0 -0.62579442089E+02  0.33925520184E+02 -0.34344383309E+03  0.35978497656E+03  0.80152575612E+02 0.  0.
         -6    2    1    2    0  501 -0.35028649779E+01 -0.38897714515E+02 -0.34451001816E+03  0.38554978833E+03  0.16863031877E+03 0.  0.
        -24    2    5    5    0    0 -0.51058385166E+02 -0.46543909806E+02 -0.14064828051E+03  0.17602248729E+03  0.80179068250E+02 0.  0.
          5    1    3    3  502    0  0.66082307067E+02  0.49721943307E+01 -0.27356364923E+03  0.28151510475E+03  0.47000000000E+01 0. -1.
        -13    1    4    4    0    0 -0.21973128791E+02  0.28229528801E+02 -0.29111495135E+03  0.29330468728E+03  0.00000000000E+00 0.  1.
         14    1    4    4    0    0 -0.40606313298E+02  0.56959913830E+01 -0.52328881747E+02  0.66480289277E+02  0.00000000000E+00 0. -1.
         -5    1    5    5    0  501  0.47555520188E+02  0.76461952908E+01 -0.20386173765E+03  0.20952730104E+03  0.47000000000E+01 0.  1.
         11    1    6    6    0    0 -0.34474682558E+02 -0.21046265846E+02 -0.96345701270E+01  0.41524378202E+02  0.00000000000E+00 0. -1.
        -12    1    6    6    0    0 -0.16583702608E+02 -0.25497643959E+02 -0.13101371039E+03  0.13449810909E+03  0.00000000000E+00 0.  1.
</event>
<event>
12    1  0.2932602E-002  0.1891847E+03  0.7818608E-02  0.1159199E+00
          2   -1    0    0  502    0  0.00000000000E+00  0.00000000000E+00  0.98441339267E+03  0.98441339267E+03  0.00000000000E+00 0. -1.
         -2   -1    0    0    0  501 -0.00000000000E+00 -0.00000000000E+00 -0.65130286698E+02  0.65130286698E+02  0.00000000000E+00 0.  1.
          6    2    1    2  502    0 -0.78280494105E+02 -0.60586534413E+01  0.11003849369E+03  0.21834281197E+03  0.17146594533E+03 0.  0.
         24    2    3    3    0    0 -0.32814516737E+02 -0.23769348074E+02  0.13603122434E+03  0.16285825692E+03  0.79853261894E+02 0.  0.
         -6    2    1    2    0  501  0.78280494105E+02  0.60586534413E+01  0.80924461228E+03  0.83120086740E+03  0.17278164375E+03 0.  0.
        -24    2    5    5    0    0  0.63739165967E+02  0.60926062271E+02  0.67606472898E+03  0.68635317466E+03  0.79009469367E+02 0.  0.
          5    1    3    3  502    0 -0.45465977368E+02  0.17710694633E+02 -0.25992730651E+02  0.55484555050E+02  0.47000000000E+01 0. -1.
        -11    1    4    4    0    0 -0.13940593887E+02  0.29614524549E+02  0.44780709170E+02  0.55467757625E+02  0.00000000000E+00 0.  1.
         12    1    4    4    0    0 -0.18873922850E+02 -0.53383872623E+02  0.91250515173E+02  0.10739049930E+03  0.00000000000E+00 0. -1.
         -5    1    5    5    0  501  0.14541328138E+02 -0.54867408830E+02  0.13317988330E+03  0.14484769274E+03  0.47000000000E+01 0.  1.
         11    1    6    6    0    0  0.29929230254E+02  0.13640519128E+02  0.68217403990E+02  0.75732666616E+02  0.00000000000E+00 0. -1.
        -12    1    6    6    0    0  0.33809935713E+02  0.47285543143E+02  0.60784732499E+03  0.61062050804E+03  0.00000000000E+00 0.  1.
</event>
<event>
12    1  0.2625820E-002  0.2065388E+03  0.7818608E-02  0.1144337E+00
          2   -1    0    0  502    0  0.00000000000E+00  0.00000000000E+00  0.10654318826E+04  0.10654318826E+04  0.00000000000E+00 0. -1.
         -2   -1    0    0    0  501 -0.00000000000E+00 -0.00000000000E+00 -0.82168417288E+02  0.82168417288E+02  0.00000000000E+00 0.  1.
          6    2    1    2  502    0  0.95129457971E+02  0.67312670956E+02  0.79347449264E+02  0.22011274846E+03  0.16903548410E+03 0.  0.
         24    2    3    3    0    0  0.63945497320E+02  0.10988546122E+03  0.45919572864E+02  0.15746775829E+03  0.80769093797E+02 0.  0.
         -6    2    1    2    0  501 -0.95129457971E+02 -0.67312670956E+02  0.90391601609E+03  0.92748755147E+03  0.17201274529E+03 0.  0.
        -24    2    5    5    0    0 -0.11398412719E+03 -0.78681681140E+01  0.51590082983E+03  0.53446462308E+03  0.80277504864E+02 0.  0.
          5    1    3    3  502    0  0.31183960651E+02 -0.42572790267E+02  0.33427876401E+02  0.62644990172E+02  0.47000000000E+01 0. -1.
        -11    1    4    4    0    0  0.42559490663E+02  0.42320249251E+01  0.15024327077E+02  0.45331563889E+02  0.00000000000E+00 0.  1.
         12    1    4    4    0    0  0.21386006657E+02  0.10565343630E+03  0.30895245787E+02  0.11213619440E+03  0.00000000000E+00 0. -1.
         -5    1    5    5    0  501  0.18854669217E+02 -0.59444502842E+02  0.38801518626E+03  0.39302292839E+03  0.47000000000E+01 0.  1.
         13    1    6    6    0    0  0.10931916651E+02  0.69997448469E+01  0.33384616743E+02  0.35819490011E+02  0.00000000000E+00 0. -1.
        -14    1    6    6    0    0 -0.12491604384E+03 -0.14867912961E+02  0.48251621308E+03  0.49864513307E+03  0.00000000000E+00 0.  1.
</event>
<event>
12    1  0.2625820E-002  0.1724784E+03  0.7818608E-02  0.1175288E+00
         -2   -1    0    0    0  501 -0.00000000000E+00  0.00000000000E+00  0.97276240655E+02  0.97276240655E+02  0.00000000000E+00 0.  1.
          2   -1    0    0  502    0  0.00000000000E+00 -0.00000000000E+00 -0.34369117245E+03  0.34369117245E+03  0.00000000000E+00 0. -1.
          6    2    1    2  502    0 -0.26629976956E+02 -0.22459883803E+02 -0.52464356786E+02  0.18378680878E+03  0.17266001360E+03 0.  0.
         24    2    3    3    0    0  0.37354803678E+02 -0.34801152181E+02  0.69333481130E+01  0.95488811041E+02  0.80396145225E+02 0.  0.
         -6    2    1    2    0  501  0.26629976956E+02  0.22459883803E+02 -0.19395057501E+03  0.25718060433E+03  0.16526171862E+03 0.  0.
        -24    2    5    5    0    0  0.50145035189E+02  0.68623632436E+02 -0.13088087140E+03  0.17542531602E+03  0.80128094454E+02 0.  0.
          5    1    3    3  502    0 -0.63984780634E+02  0.12341268378E+02 -0.59397704899E+02  0.88297997742E+02  0.47000000000E+01 0. -1.
        -11    1    4    4    0    0  0.34340649355E+02 -0.38617346548E+01  0.38122227418E+02  0.51453837719E+02  0.00000000000E+00 0.  1.
         12    1    4    4    0    0  0.30141543233E+01 -0.30939417526E+02 -0.31188879305E+02  0.44034973322E+02  0.00000000000E+00 0. -1.
         -5    1    5    5    0  501 -0.23515058233E+02 -0.46163748633E+02 -0.63069703617E+02  0.81755288305E+02  0.47000000000E+01 0.  1.
         11    1    6    6    0    0  0.65589797340E+02  0.39331867816E+02 -0.60053021174E+02  0.97238792121E+02  0.00000000000E+00 0. -1.
        -12    1    6    6    0    0 -0.15444762151E+02  0.29291764620E+02 -0.70827850223E+02  0.78186523900E+02  0.00000000000E+00 0.  1.
</event>
<event>
12    1  0.2625820E-002  0.2582319E+03  0.7818608E-02  0.1108210E+00
          1   -1    0    0  502    0  0.00000000000E+00  0.00000000000E+00  0.83718263545E+03  0.83718263545E+03  0.00000000000E+00 0.  1.
         -1   -1    0    0    0  501 -0.00000000000E+00 -0.00000000000E+00 -0.89815403556E+02  0.89815403556E+02  0.00000000000E+00 0. -1.
          6    2    1    2  502    0 -0.14100561997E+03 -0.12443347195E+03  0.52506046474E+03  0.58362583893E+03  0.17194288131E+03 0.  0.
         24    2    3    3    0    0 -0.61779061328E+02 -0.40782936988E+02  0.39581929326E+03  0.41042182628E+03  0.79330083830E+02 0.  0.
         -6    2    1    2    0  501  0.14100561997E+03  0.12443347195E+03  0.22230676715E+03  0.34337220007E+03  0.18198322795E+03 0.  0.
        -24    2    5    5    0    0  0.15331809178E+03  0.15267068080E+03  0.19084381105E+03  0.29908964671E+03  0.78857355479E+02 0.  0.
          5    1    3    3  502    0 -0.79226558643E+02 -0.83650534965E+02  0.12924117147E+03  0.17320401265E+03  0.47000000000E+01 0. -1.
        -11    1    4    4    0    0 -0.57861536605E+02 -0.57191556562E+02  0.37450193439E+03  0.38323691161E+03  0.00000000000E+00 0.  1.
         12    1    4    4    0    0 -0.39175247225E+01  0.16408619573E+02  0.21317358877E+02  0.27184914673E+02  0.00000000000E+00 0. -1.
         -5    1    5    5    0  501 -0.12312471809E+02 -0.28237208842E+02  0.31462956103E+02  0.44282553359E+02  0.47000000000E+01 0.  1.
         13    1    6    6    0    0  0.38725918272E+02  0.64375704076E+02  0.25364211819E+02  0.79292315280E+02  0.00000000000E+00 0. -1.
        -14    1    6    6    0    0  0.11459217351E+03  0.88294976719E+02  0.16547959923E+03  0.21979733143E+03  0.00000000000E+00 0.  1.
</event>
<event>
12    1  0.2625820E-002  0.1864851E+03  0.7818608E-02  0.1161670E+00
         -2   -1    0    0    0  501 -0.00000000000E+00  0.00000000000E+00  0.30911446945E+03  0.30911446945E+03  0.00000000000E+00 0.  1.
          2   -1    0    0  502    0  0.00000000000E+00 -0.00000000000E+00 -0.11556349173E+03  0.11556349173E+03  0.00000000000E+00 0. -1.
          6    2    1    2  502    0 -0.51967532004E+02  0.37394043467E+02  0.60605148055E+02  0.19257947626E+03  0.17121603849E+03 0.  0.
         24    2    3    3    0    0 -0.97949728082E+02  0.28936217255E+02  0.65615461217E+02  0.14532389016E+03  0.79888612448E+02 0.  0.
         -6    2    1    2    0  501  0.51967532004E+02 -0.37394043467E+02  0.13294582966E+03  0.23209848492E+03  0.17915405161E+03 0.  0.
        -24    2    5    5    0    0 -0.42446547822E+02 -0.33092078708E+02  0.71673154293E+02  0.11936447888E+03  0.78829199393E+02 0.  0.
          5    1    3    3  502    0  0.45982196078E+02  0.84578262113E+01 -0.50103131612E+01  0.47255586107E+02  0.47000000000E+01 0. -1.
        -11    1    4    4    0    0  0.26233154059E+01  0.27485251997E+02  0.23584216229E+02  0.36311652623E+02  0.00000000000E+00 0.  1.
         12    1    4    4    0    0 -0.10057304349E+03  0.14509652580E+01  0.42031244988E+02  0.10901223753E+03  0.00000000000E+00 0. -1.
         -5    1    5    5    0  501  0.94414079826E+02 -0.43019647585E+01  0.61272675370E+02  0.11273400604E+03  0.47000000000E+01 0.  1.
         11    1    6    6    0    0 -0.51256193542E+02 -0.36042689315E+02  0.18426196923E+02  0.65313073442E+02  0.00000000000E+00 0. -1.
        -12    1    6    6    0    0  0.88096457203E+01  0.29506106064E+01  0.53246957370E+02  0.54051405438E+02  0.00000000000E+00 0.  1.
</event>
<event>
12    1  0.2625820E-002  0.2279116E+03  0.7818608E-02  0.1128118E+00
         -2   -1    0    0    0  501 -0.00000000000E+00  0.00000000000E+00  0.14120801618E+03  0.14120801618E+03  0.00000000000E+00 0. -1.
          2   -1    0    0  502    0  0.00000000000E+00 -0.00000000000E+00 -0.37986509562E+03  0.37986509562E+03  0.00000000000E+00 0.  1.
          6    2    1    2  502    0 -0.63819666870E+02 -0.13518147550E+03 -0.72803714988E+02  0.23889090614E+03  0.17152697433E+03 0.  0.
         24    2    3    3    0    0 -0.35793575748E+02 -0.13959691870E+03 -0.57161479752E+01  0.16589919723E+03  0.81984080883E+02 0.  0.
         -6    2    1    2    0  501  0.63819666870E+02  0.13518147550E+03 -0.16585336445E+03  0.28218220566E+03  0.17254702980E+03 0.  0.
        -24    2    5    5    0    0 -0.22803425456E+02  0.55062806315E+02 -0.11782687708E+03  0.15470203165E+03  0.80607920096E+02 0.  0.
          5    1    3    3  502    0 -0.28026091122E+02  0.44154431996E+01 -0.67087567013E+02  0.72991708913E+02  0.47000000000E+01 0. -1.
        -11    1    4    4    0    0 -0.21337267637E+02 -0.59617223928E+01 -0.21115239249E+02  0.30605137684E+02  0.00000000000E+00 0.  1.
         12    1    4    4    0    0 -0.14456308111E+02 -0.13363519631E+03  0.15399091274E+02  0.13529405954E+03  0.00000000000E+00 0. -1.
         -5    1    5    5    0  501  0.86623092326E+02  0.80118669185E+02 -0.48026487364E+02  0.12748017401E+03  0.47000000000E+01 0.  1.
         11    1    6    6    0    0 -0.32218621841E+02  0.26350758861E+02 -0.10116998314E+02  0.42834048849E+02  0.00000000000E+00 0. -1.
        -12    1    6    6    0    0  0.94151963852E+01  0.28712047454E+02 -0.10770987877E+03  0.11186798280E+03  0.00000000000E+00 0.  1.
</event>
<event>
12    1  0.2625820E-002  0.2186905E+03  0.7818608E-02  0.1134863E+00
          2   -1    0    0  502    0  0.00000000000E+00  0.00000000000E+00  0.10903821544E+04  0.10903821544E+04  0.00000000000E+00 0. -1.
         -2   -1    0    0    0  501 -0.00000000000E+00 -0.00000000000E+00 -0.45482278647E+02  0.45482278647E+02  0.00000000000E+00 0.  1.
          6    2    1    2  502    0  0.10437070181E+03 -0.86744916294E+02  0.41491220804E+03  0.46895313817E+03  0.17130960720E+03 0.  0.
         24    2    3    3    0    0  0.10003237059E+03 -0.12691187739E+03  0.34567280316E+03  0.38865126354E+03  0.73803915998E+02 0.  0.
         -6    2    1    2    0  501 -0.10437070181E+03  0.86744916294E+02  0.62998766766E+03  0.66691129483E+03  0.17166330377E+03 0.  0.
        -24    2    5    5    0    0 -0.46993874482E+02  0.12112000168E+03  0.44449126594E+03  0.46966841951E+03  0.78341941177E+02 0.  0.
          5    1    3    3  502    0  0.43383312257E+01  0.40166961095E+02  0.69239404879E+02  0.80301874632E+02  0.47000000000E+01 0. -1.
        -11    1    4    4    0    0  0.31979040233E+02 -0.29125102543E+02  0.34104448012E+02  0.55082156699E+02  0.00000000000E+00 0.  1.
         12    1    4    4    0    0  0.68053330352E+02 -0.97786774846E+02  0.31156835515E+03  0.33356910684E+03  0.00000000000E+00 0. -1.
         -5    1    5    5    0  501 -0.57376827329E+02 -0.34375085383E+02  0.18549640173E+03  0.19724287532E+03  0.47000000000E+01 0.  1.
         11    1    6    6    0    0 -0.56826903709E+02  0.10525597687E+03  0.42914940895E+03  0.44550794926E+03  0.00000000000E+00 0. -1.
        -12    1    6    6    0    0  0.98330292273E+01  0.15864024808E+02  0.15341856982E+02  0.24160470247E+02  0.00000000000E+00 0.  1.
</event>
<event>
12    1  0.2625820E-002  0.1719772E+03  0.7818608E-02  0.1175801E+00
         -3   -1    0    0    0  501 -0.00000000000E+00  0.00000000000E+00  0.53217631731E+03  0.53217631731E+03  0.00000000000E+00 0. -1.
          3   -1    0    0  502    0  0.00000000000E+00 -0.00000000000E+00 -0.17364510027E+03  0.17364510027E+03  0.00000000000E+00 0.  1.
          6    2    1    2  502    0 -0.10018874070E+02  0.10087614510E+02 -0.11200836929E+03  0.20455912687E+03  0.17057673872E+03 0.  0.
         24    2    3    3    0    0 -0.15715573231E+02 -0.25078886720E+02 -0.13760139548E+03  0.16044305067E+03  0.77018820218E+02 0.  0.
         -6    2    1    2    0  501  0.10018874070E+02 -0.10087614510E+02  0.47053958634E+03  0.50126229071E+03  0.17220407651E+03 0.  0.
        -24    2    5    5    0    0 -0.55338982389E+02 -0.19753903143E+01  0.35778135235E+03  0.37059490030E+03  0.79162989477E+02 0.  0.
          5    1    3    3  502    0  0.56966991604E+01  0.35166501230E+02  0.25593026191E+02  0.44116076204E+02  0.47000000000E+01 0. -1.
        -11    1    4    4    0    0  0.25921021639E+02 -0.59159799315E+01 -0.17337435428E+02  0.31740901824E+02  0.00000000000E+00 0.  1.
         12    1    4    4    0    0 -0.41636594870E+02 -0.19162906788E+02 -0.12026396006E+03  0.12870214885E+03  0.00000000000E+00 0. -1.
         -5    1    5    5    0  501  0.65357856459E+02 -0.81122241953E+01  0.11275823399E+03  0.13066739041E+03  0.47000000000E+01 0.  1.
         13    1    6    6    0    0  0.16705267091E+02 -0.85505114510E+01  0.13660030138E+03  0.13788335480E+03  0.00000000000E+00 0. -1.
        -14    1    6    6    0    0 -0.72044249480E+02  0.65751211367E+01  0.22118105097E+03  0.23271154550E+03  0.00000000000E+00 0.  1.
</event>
<event>
12    1  0.2625820E-002  0.2430987E+03  0.7818608E-02  0.1117746E+00
          1   -1    0    0  502    0  0.00000000000E+00  0.00000000000E+00  0.11512583440E+04  0.11512583440E+04  0.00000000000E+00 0.  1.
         -1   -1    0    0    0  501 -0.00000000000E+00 -0.00000000000E+00 -0.55787821692E+02  0.55787821692E+02  0.00000000000E+00 0. -1.
          6    2    1    2  502    0 -0.17189598712E+03 -0.13108048136E+02  0.37853730079E+03  0.45022736120E+03  0.17231986934E+03 0.  0.
         24    2    3    3    0    0 -0.89511658146E+02 -0.53878680440E+02  0.30545503888E+03  0.33270064455E+03  0.80446808278E+02 0.  0.
         -6    2    1    2    0  501  0.17189598712E+03  0.13108048136E+02  0.71693322154E+03  0.75681880451E+03  0.17047406665E+03 0.  0.
        -24    2    5    5    0    0  0.34277520041E+02 -0.22644306293E+02  0.44509024188E+03  0.45000001610E+03  0.52028627605E+02 0.  0.
          5    1    3    3  502    0 -0.82384328977E+02  0.40770632304E+02  0.73082261912E+02  0.11752671665E+03  0.47000000000E+01 0. -1.
        -13    1    4    4    0    0 -0.98619882780E+02 -0.29084155868E+02  0.26638385499E+03  0.28553831197E+03  0.00000000000E+00 0.  1.
         14    1    4    4    0    0  0.91082246342E+01 -0.24794524572E+02  0.39071183888E+02  0.47162332588E+02  0.00000000000E+00 0. -1.
         -5    1    5    5    0  501  0.13761846708E+03  0.35752354429E+02  0.27184297966E+03  0.30681878841E+03  0.47000000000E+01 0.  1.
         11    1    6    6    0    0 -0.51906856889E+01 -0.18330113651E+02  0.62078636994E+02  0.64936072066E+02  0.00000000000E+00 0. -1.
        -12    1    6    6    0    0  0.39468205729E+02 -0.43141926421E+01  0.38301160488E+03  0.38506394403E+03  0.00000000000E+00 0.  1.
</event>
<event>
12    1  0.2625820E-002  0.2988847E+03  0.7818608E-02  0.1085799E+00
          3   -1    0    0  502    0  0.00000000000E+00  0.00000000000E+00  0.85542670982E+03  0.85542670982E+03  0.00000000000E+00 0.  1.
         -3   -1    0    0    0  501 -0.00000000000E+00 -0.00000000000E+00 -0.10557913460E+03  0.10557913460E+03  0.00000000000E+00 0. -1.
          6    2    1    2  502    0 -0.23961940079E+03  0.42765617797E+02  0.32290406891E+03  0.43893522711E+03  0.17073587959E+03 0.  0.
         24    2    3    3    0    0 -0.20323708171E+03 -0.14957168668E+02  0.19026506737E+03  0.28970122311E+03  0.78720864677E+02 0.  0.
         -6    2    1    2    0  501  0.23961940079E+03 -0.42765617797E+02  0.42694350631E+03  0.52207061731E+03  0.17615509241E+03 0.  0.
        -24    2    5    5    0    0  0.93531020767E+02 -0.78244353648E+02  0.24296287759E+03  0.28443325237E+03  0.83672483174E+02 0.  0.
          5    1    3    3  502    0 -0.36382319080E+02  0.57722786466E+02  0.13263900154E+03  0.14923400399E+03  0.47000000000E+01 0. -1.
        -11    1    4    4    0    0 -0.57277984789E+02 -0.30993495828E+02  0.28084133133E+02  0.70923077055E+02  0.00000000000E+00 0.  1.
         12    1    4    4    0    0 -0.14595909692E+03  0.16036327160E+02  0.16218093423E+03  0.21877814606E+03  0.00000000000E+00 0. -1.
         -5    1    5    5    0  501  0.14608838002E+03  0.35478735851E+02  0.18398062872E+03  0.23763736495E+03  0.47000000000E+01 0.  1.
         13    1    6    6    0    0  0.93720768454E+02 -0.92762974636E+02  0.20458016978E+03  0.24339596910E+03  0.00000000000E+00 0. -1.
        -14    1    6    6    0    0 -0.18974768769E+00  0.14518620988E+02  0.38382707808E+02  0.41037283271E+02  0.00000000000E+00 0.  1.
</event>
<event>
12    1  0.2625820E-002  0.1985825E+03  0.7818608E-02  0.1150941E+00
         -1   -1    0    0    0  501 -0.00000000000E+00  0.00000000000E+00  0.23638914173E+03  0.23638914173E+03  0.00000000000E+00 0. -1.
          1   -1    0    0  502    0  0.00000000000E+00 -0.00000000000E+00 -0.16793834783E+03  0.16793834783E+03  0.00000000000E+00 0.  1.
          6    2    1    2  502    0 -0.40313334901E+02  0.89161772049E+02  0.17673604461E+02  0.19891218222E+03  0.17227510956E+03 0.  0.
         24    2    3    3    0    0 -0.37727089400E+02  0.12238045940E+03  0.43375650667E+02  0.15657006331E+03  0.78945725262E+02 0.  0.
         -6    2    1    2    0  501  0.40313334901E+02 -0.89161772049E+02  0.50777189438E+02  0.20541530733E+03  0.17332668275E+03 0.  0.
        -24    2    5    5    0    0  0.38719936266E+02 -0.10922435150E+03  0.85550672088E+02  0.16496371764E+03  0.80404715150E+02 0.  0.
          5    1    3    3  502    0 -0.25862455009E+01 -0.33218687347E+02 -0.25702046206E+02  0.42342118912E+02  0.47000000000E+01 0. -1.
        -13    1    4    4    0    0 -0.34158663859E+02  0.10534950998E+03  0.99193975411E+00  0.11075340859E+03  0.00000000000E+00 0.  1.
         14    1    4    4    0    0 -0.35684255408E+01  0.17030949414E+02  0.42383710913E+02  0.45816654718E+02  0.00000000000E+00 0. -1.
         -5    1    5    5    0  501  0.15933986350E+01  0.20062579448E+02 -0.34773482650E+02  0.40451589696E+02  0.47000000000E+01 0.  1.
         11    1    6    6    0    0  0.23305833287E+02 -0.14130601421E+02  0.59071482069E+02  0.65055943276E+02  0.00000000000E+00 0. -1.
        -12    1    6    6    0    0  0.15414102979E+02 -0.95093750076E+02  0.26479190019E+02  0.99907774363E+02  0.00000000000E+00 0.  1.
</event>
<event>
12    1  0.2625820E-002  0.1832595E+03  0.7818608E-02  0.1164685E+00
         -2   -1    0    0    0  501 -0.00000000000E+00  0.00000000000E+00  0.74029876497E+02  0.74029876497E+02  0.00000000000E+00 0.  1.
          2   -1    0    0  502    0  0.00000000000E+00 -0.00000000000E+00 -0.72545521157E+03  0.72545521157E+03  0.00000000000E+00 0. -1.
          6    2    1    2  502    0 -0.76083638508E+01 -0.63684285663E+02 -0.57078315811E+03  0.59958870827E+03  0.17204543022E+03 0.  0.
         24    2    3    3    0    0  0.27586148188E+02 -0.57678804856E+02 -0.17844616634E+03  0.20560250980E+03  0.79633646471E+02 0.  0.
         -6    2    1    2    0  501  0.76083638508E+01  0.63684285663E+02 -0.80642176962E+02  0.19989637980E+03  0.17129456066E+03 0.  0.
        -24    2    5    5    0    0  0.10447653550E+02 -0.11450202245E+02 -0.93783852501E+02  0.12342385875E+03  0.78725963463E+02 0.  0.
          5    1    3    3  502    0 -0.35194512039E+02 -0.60054808073E+01 -0.39233699177E+03  0.39398619847E+03  0.47000000000E+01 0. -1.
        -11    1    4    4    0    0  0.90480633829E-01  0.19524861831E+02 -0.44157698612E+02  0.48281785002E+02  0.00000000000E+00 0.  1.
         12    1    4    4    0    0  0.27495667554E+02 -0.77203666686E+02 -0.13428846773E+03  0.15732072479E+03  0.00000000000E+00 0. -1.
         -5    1    5    5    0  501 -0.28392896989E+01  0.75134487907E+02  0.13141675539E+02  0.76472521046E+02  0.47000000000E+01 0.  1.
         11    1    6    6    0    0  0.59065334853E+01  0.34024505479E+02 -0.40904971605E+02  0.53532894681E+02  0.00000000000E+00 0. -1.
        -12    1    6    6    0    0  0.45411200644E+01 -0.45474707724E+02 -0.52878880896E+02  0.69890964071E+02  0.00000000000E+00 0.  1.
</event>
<event>
12    1  0.2625820E-002  0.2240059E+03  0.7818608E-02  0.1130931E+00
         -2   -1    0    0    0  501 -0.00000000000E+00  0.00000000000E+00  0.48465411078E+02  0.48465411078E+02  0.00000000000E+00 0. -1.
          2   -1    0    0  502    0  0.00000000000E+00 -0.00000000000E+00 -0.10357108972E+04  0.10357108972E+04  0.00000000000E+00 0.  1.
          6    2    1    2  502    0 -0.54761364775E+02  0.13245237609E+03 -0.50348210803E+03  0.55101802764E+03  0.17200056591E+03 0.  0.
         24    2    3    3    0    0  0.10185118164E+02  0.18147035190E+02 -0.27909094394E+03  0.29090797184E+03  0.79389177942E+02 0.  0.
         -6    2    1    2    0  501  0.54761364775E+02 -0.13245237609E+03 -0.48376337812E+03  0.53315828066E+03  0.17230295188E+03 0.  0.
        -24    2    5    5    0    0  0.47728724682E+02 -0.27681137685E+02 -0.12059663411E+03  0.15508600665E+03  0.80398039507E+02 0.  0.
          5    1    3    3  502    0 -0.64946482938E+02  0.11430534090E+03 -0.22439116409E+03  0.26011005580E+03  0.47000000000E+01 0. -1.
        -13    1    4    4    0    0 -0.25537413957E+02  0.28491674830E+02 -0.19844513228E+03  0.20209998905E+03  0.00000000000E+00 0.  1.
         14    1    4    4    0    0  0.35722532120E+02 -0.10344639640E+02 -0.80645811659E+02  0.88807982797E+02  0.00000000000E+00 0. -1.
         -5    1    5    5    0  501  0.70326400924E+01 -0.10477123841E+03 -0.36316674401E+03  0.37807227401E+03  0.47000000000E+01 0.  1.
         11    1    6    6    0    0  0.68179015560E+02 -0.77960599205E+01 -0.91088516416E+02  0.11404505485E+03  0.00000000000E+00 0. -1.
        -12    1    6    6    0    0 -0.20450290878E+02 -0.19885077764E+02 -0.29508117693E+02  0.41040951798E+02  0.00000000000E+00 0.  1.
</event>
<event>
12    1  0.2625820E-002  0.1884834E+03  0.7818608E-02  0.1159836E+00
         -2   -1    0    0    0  501 -0.00000000000E+00  0.00000000000E+00  0.29356732137E+03  0.29356732137E+03  0.00000000000E+00 0.  1.
          2   -1    0    0  502    0  0.00000000000E+00 -0.00000000000E+00 -0.12212453130E+03  0.12212453130E+03  0.00000000000E+00 0. -1.
          6    2    1    2  502    0 -0.25447944458E+02  0.67917985829E+02  0.10496900540E+03  0.21473044101E+03  0.17271427135E+03 0.  0.
         24    2    3    3    0    0 -0.45970183972E+01  0.87784293045E+02  0.13094429066E+03  0.17566336120E+03  0.77356283058E+02 0.  0.
         -6    2    1    2    0  501  0.25447944458E+02 -0.67917985829E+02  0.66473784672E+02  0.20096141166E+03  0.17523205829E+03 0.  0.
        -24    2    5    5    0    0  0.65106078309E+02 -0.79200988779E+02  0.83919389668E+02  0.15594460513E+03  0.82247540096E+02 0.  0.
          5    1    3    3  502    0 -0.20850926061E+02 -0.19866307216E+02 -0.25975285267E+02  0.39067079807E+02  0.47000000000E+01 0. -1.
        -13    1    4    4    0    0  0.33992058405E+02  0.31582961193E+02  0.35748439228E+02  0.58573836989E+02  0.00000000000E+00 0.  1.
         14    1    4    4    0    0 -0.38589076803E+02  0.56201331852E+02  0.95195851436E+02  0.11708952422E+03  0.00000000000E+00 0. -1.
         -5    1    5    5    0  501 -0.39658133851E+02  0.11283002949E+02 -0.17445604996E+02  0.45016806526E+02  0.47000000000E+01 0.  1.
         11    1    6    6    0    0  0.40696857143E+02 -0.30359629324E+02 -0.56064287354E+01  0.51082025383E+02  0.00000000000E+00 0. -1.
        -12    1    6    6    0    0  0.24409221166E+02 -0.48841359455E+02  0.89525818403E+02  0.10486257975E+03  0.00000000000E+00 0.  1.
</event>
<event>
12    1  0.2625820E-002  0.3937785E+03  0.7818608E-02  0.1045955E+00
          2   -1    0    0  502    0  0.00000000000E+00  0.00000000000E+00  0.11714667155E+04  0.11714667155E+04  0.00000000000E+00 0. -1.
         -2   -1    0    0    0  501 -0.00000000000E+00 -0.00000000000E+00 -0.34891910967E+03  0.34891910967E+03  0.00000000000E+00 0.  1.
          6    2    1    2  502    0 -0.34269014404E+03 -0.87135187152E+02  0.10099464095E+04  0.10838035846E+04  0.17207377524E+03 0.  0.
         24    2    3    3    0    0 -0.21760922317E+03  0.22231929352E+01  0.70945737822E+03  0.74624484183E+03  0.78694827353E+02 0.  0.
         -6    2    1    2    0  501  0.34269014404E+03  0.87135187152E+02 -0.18739880368E+03  0.43658224062E+03  0.17451838169E+03 0.  0.
        -24    2    5    5    0    0  0.18906887018E+03  0.69928024695E+02 -0.17597070851E+03  0.28150718273E+03  0.87427898103E+02 0.  0.
          5    1    3    3  502    0 -0.12508092086E+03 -0.89358380087E+02  0.30048903132E+03  0.33755874274E+03  0.47000000000E+01 0. -1.
        -13    1    4    4    0    0 -0.57793304613E+02  0.22495489283E+02  0.11880750183E+03  0.13401990743E+03  0.00000000000E+00 0.  1.
         14    1    4    4    0    0 -0.15981591856E+03 -0.20272296348E+02  0.59064987639E+03  0.61222493440E+03  0.00000000000E+00 0. -1.
         -5    1    5    5    0  501  0.15362127386E+03  0.17207162457E+02 -0.11428095168E+02  0.15507505790E+03  0.47000000000E+01 0.  1.
         13    1    6    6    0    0  0.35066000412E+02  0.50186451775E+02 -0.29112872686E+02  0.67792799638E+02  0.00000000000E+00 0. -1.
        -14    1    6    6    0    0  0.15400286977E+03  0.19741572920E+02 -0.14685783582E+03  0.21371438309E+03  0.00000000000E+00 0.  1.
</event>
<event>
12    1  0.2625820E-002  0.1866661E+03  0.7818608E-02  0.1161503E+00
         -1   -1    0    0    0  501 -0.00000000000E+00  0.00000000000E+00  0.16340511039E+04  0.16340511039E+04  0.00000000000E+00 0. -1.
          1   -1    0    0  502    0  0.00000000000E+00 -0.00000000000E+00 -0.21334659743E+02  0.21334659743E+02  0.00000000000E+00 0.  1.
          6    2    1    2  502    0 -0.73583900014E+02  0.81626309512E+01  0.78274495842E+03  0.80437380853E+03  0.16984208853E+03 0.  0.
         24    2    3    3    0    0 -0.76874674781E+02 -0.78827973168E+01  0.27081678483E+03  0.29216210437E+03  0.77750306547E+02 0.  0.
         -6    2    1    2    0  501  0.73583900014E+02 -0.81626309512E+01  0.82997148578E+03  0.85101195515E+03  0.17287990548E+03 0.  0.
        -24    2    5    5    0    0  0.62515427882E+02 -0.26444740104E+02  0.82064372567E+03  0.82722448578E+03  0.78972921863E+02 0.  0.
          5    1    3    3  502    0  0.32907747667E+01  0.16045428268E+02  0.51192817359E+03  0.51221170416E+03  0.47000000000E+01 0. -1.
        -13    1    4    4    0    0 -0.15680527390E+02  0.45361969722E+01  0.23047803107E+01  0.16485388514E+02  0.00000000000E+00 0.  1.
         14    1    4    4    0    0 -0.61194147391E+02 -0.12418994289E+02  0.26851200452E+03  0.27567671586E+03  0.00000000000E+00 0. -1.
         -5    1    5    5    0  501  0.11068472132E+02  0.18282109152E+02  0.93277601047E+01  0.23787469369E+02  0.47000000000E+01 0.  1.
         11    1    6    6    0    0  0.38322647831E+02  0.25956844027E+02  0.34456508810E+03  0.34766001068E+03  0.00000000000E+00 0. -1.
        -12    1    6    6    0    0  0.24192780051E+02 -0.52401584131E+02  0.47607863758E+03  0.47956447511E+03  0.00000000000E+00 0.  1.
</event>
<event>
12    1  0.2625820E-002  0.1888169E+03  0.7818608E-02  0.1159533E+00
          1   -1    0    0  502    0  0.00000000000E+00  0.00000000000E+00  0.99261649366E+03  0.99261649366E+03  0.00000000000E+00 0.  1.
         -1   -1    0    0    0  501 -0.00000000000E+00 -0.00000000000E+00 -0.37375970443E+02  0.37375970443E+02  0.00000000000E+00 0. -1.
          6    2    1    2  502    0  0.65792130341E+02 -0.42041751941E+02  0.37667916901E+03  0.42150218889E+03  0.17228112359E+03 0.  0.
         24    2    3    3    0    0 -0.85850880044E+01 -0.67516649589E+02  0.26578511049E+03  0.28548556036E+03  0.78918176044E+02 0.  0.
         -6    2    1    2    0  501 -0.65792130341E+02  0.42041751941E+02  0.57856135420E+03  0.60849027522E+03  0.17155483419E+03 0.  0.
        -24    2    5    5    0    0 -0.92462665486E+02  0.57935321908E+02  0.31266985594E+03  0.34075103294E+03  0.80268185458E+02 0.  0.
          5    1    3    3  502    0  0.74377218346E+02  0.25474897648E+02  0.11089405852E+03  0.13601662852E+03  0.47000000000E+01 0. -1.
        -13    1    4    4    0    0  0.93455731922E+01 -0.81068846890E+02  0.21409035059E+03  0.22911607515E+03  0.00000000000E+00 0.  1.
         14    1    4    4    0    0 -0.17930661197E+02  0.13552197301E+02  0.51694759899E+02  0.56369485217E+02  0.00000000000E+00 0. -1.
         -5    1    5    5    0  501  0.26670535145E+02 -0.15893569966E+02  0.26589149826E+03  0.26773924228E+03  0.47000000000E+01 0.  1.
         13    1    6    6    0    0 -0.65321117393E+02  0.75381254854E+02  0.26535013301E+03  0.28347817385E+03  0.00000000000E+00 0. -1.
        -14    1    6    6    0    0 -0.27141548093E+02 -0.17445932946E+02  0.47319722940E+02  0.57272859090E+02  0.00000000000E+00 0.  1.
</event>
<event>
12    1  0.2625820E-002  0.2024686E+03  0.7818608E-02  0.1147673E+00
          2   -1    0    0  502    0  0.00000000000E+00  0.00000000000E+00  0.11901043869E+03  0.11901043869E+03  0.00000000000E+00 0. -1.
         -2   -1    0    0    0  501 -0.00000000000E+00 -0.00000000000E+00 -0.52442307120E+03  0.52442307120E+03  0.00000000000E+00 0.  1.
          6    2    1    2  502    0 -0.54532406669E+02 -0.90120530583E+02 -0.13558315704E+02  0.20187993991E+03  0.17168630931E+03 0.  0.
         24    2    3    3    0    0 -0.59316188202E+02 -0.54682176960E+02 -0.71102438766E+02  0.13396692516E+03  0.79893864468E+02 0.  0.
         -6    2    1    2    0  501  0.54532406669E+02  0.90120530583E+02 -0.39185431680E+03  0.44155356998E+03  0.17413861190E+03 0.  0.
        -24    2    5    5    0    0 -0.31854729645E+02  0.31631352951E+02 -0.24569353370E+03  0.26191842381E+03  0.78871299853E+02 0.  0.
          5    1    3    3  502    0  0.47837815337E+01 -0.35438353622E+02  0.57544123062E+02  0.67913014748E+02  0.47000000000E+01 0. -1.
        -11    1    4    4    0    0 -0.53660273799E+02 -0.15306860060E+02 -0.75568155341E+02  0.93937591255E+02  0.00000000000E+00 0.  1.
         12    1    4    4    0    0 -0.56559144034E+01 -0.39375316901E+02  0.44657165751E+01  0.40029333910E+02  0.00000000000E+00 0. -1.
         -5    1    5    5    0  501  0.86387136313E+02  0.58489177632E+02 -0.14616078310E+03  0.17963514616E+03  0.47000000000E+01 0.  1.
         11    1    6    6    0    0  0.79950403368E+01  0.45694386833E+02 -0.15632231509E+03  0.16306000077E+03  0.00000000000E+00 0. -1.
        -12    1    6    6    0    0 -0.39849769981E+02 -0.14063033882E+02 -0.89371218613E+02  0.98858423039E+02  0.00000000000E+00 0.  1.
</event>
<event>
12    1  0.2625820E-002  0.2015822E+03  0.7818608E-02  0.1148411E+00
          2   -1    0    0  502    0  0.00000000000E+00  0.00000000000E+00  0.15135421861E+03  0.15135421861E+03  0.00000000000E+00 0. -1.
         -2   -1    0    0    0  501 -0.00000000000E+00 -0.00000000000E+00 -0.31141112400E+03  0.31141112400E+03  0.00000000000E+00 0.  1.
          6    2    1    2  502    0 -0.87757987000E+02 -0.54178672690E+02  0.63715296946E+01  0.20021737539E+03  0.17149229767E+03 0.  0.
         24    2    3    3    0    0 -0.28691475445E+02 -0.57447603306E+00 -0.54189459094E+02  0.99957782083E+02  0.78940040132E+02 0.  0.
         -6    2    1    2    0  501  0.87757987000E+02  0.54178672690E+02 -0.16642843509E+03  0.26254796722E+03  0.17491774703E+03 0.  0.
        -24    2    5    5    0    0 -0.16426881829E+02  0.45871128429E+02 -0.63222863274E+02  0.11558884964E+03  0.83604119823E+02 0.  0.
          5    1    3    3  502    0 -0.59066511555E+02 -0.53604196657E+02  0.60560988788E+02  0.10025959330E+03  0.47000000000E+01 0. -1.
        -13    1    4    4    0    0 -0.47849025600E+02 -0.24152563058E+02 -0.33666573862E+02  0.63295448088E+02  0.00000000000E+00 0.  1.
         14    1    4    4    0    0  0.19157550155E+02  0.23578087025E+02 -0.20522885231E+02  0.36662333994E+02  0.00000000000E+00 0. -1.
         -5    1    5    5    0  501  0.10418486883E+03  0.83075442604E+01 -0.10320557181E+03  0.14695911757E+03  0.47000000000E+01 0.  1.
         13    1    6    6    0    0 -0.74997977566E-01  0.45072453474E+02  0.50739911943E+01  0.45357216333E+02  0.00000000000E+00 0. -1.
        -14    1    6    6    0    0 -0.16351883851E+02  0.79867495517E+00 -0.68296854468E+02  0.70231633310E+02  0.00000000000E+00 0.  1.
</event>
<event>
12    1  0.2625820E-002  0.1935435E+03  0.7818608E-02  0.1155304E+00
         -1   -1    0    0    0  501 -0.00000000000E+00  0.00000000000E+00  0.25676249306E+02  0.25676249306E+02  0.00000000000E+00 0.  1.
          1   -1    0    0  502    0  0.00000000000E+00 -0.00000000000E+00 -0.15347403695E+04  0.15347403695E+04  0.00000000000E+00 0. -1.
          6    2    1    2  502    0 -0.55404545166E+02 -0.68459375314E+02 -0.92736765812E+03  0.94731577941E+03  0.17216289637E+03 0.  0.
         24    2    3    3    0    0  0.12302457317E+02 -0.56041465089E+02 -0.28806397266E+03  0.30429965603E+03  0.79532584821E+02 0.  0.
         -6    2    1    2    0  501  0.55404545166E+02  0.68459375314E+02 -0.58169646211E+03  0.61310083944E+03  0.17252685471E+03 0.  0.
        -24    2    5    5    0    0  0.79338869129E+02 -0.82619005463E+01 -0.33984503204E+03  0.35820240818E+03  0.80320634117E+02 0.  0.
          5    1    3    3  502    0 -0.67707002482E+02 -0.12417910225E+02 -0.63930368546E+03  0.64301612337E+03  0.47000000000E+01 0. -1.
        -11    1    4    4    0    0 -0.60401152773E+01  0.16371703091E+02 -0.22760344904E+02  0.28680114275E+02  0.00000000000E+00 0.  1.
         12    1    4    4    0    0  0.18342572594E+02 -0.72413168180E+02 -0.26530362776E+03  0.27561954176E+03  0.00000000000E+00 0. -1.
         -5    1    5    5    0  501 -0.23934323963E+02  0.76721275861E+02 -0.24185143007E+03  0.25489843126E+03  0.47000000000E+01 0.  1.
         11    1    6    6    0    0  0.71220261507E+02  0.20736696330E+02 -0.29501208068E+03  0.30419477966E+03  0.00000000000E+00 0. -1.
        -12    1    6    6    0    0  0.81186076222E+01 -0.28998596876E+02 -0.44832951364E+02  0.54007628521E+02  0.00000000000E+00 0.  1.
</event>
<event>
12    1  0.2625820E-002  0.1747167E+03  0.7818608E-02  0.1173016E+00
          1   -1    0    0  502    0  0.00000000000E+00  0.00000000000E+00  0.54416738768E+02  0.54416738768E+02  0.00000000000E+00 0. -1.
         -1   -1    0    0    0  501 -0.00000000000E+00 -0.00000000000E+00 -0.57209299196E+03  0.57209299196E+03  0.00000000000E+00 0.  1.
          6    2    1    2  502    0 -0.60070760874E+00 -0.45421793592E+02 -0.30552258410E+03  0.35304768669E+03  0.17098280469E+03 0.  0.
         24    2    3    3    0    0  0.32482505329E+02  0.24758242599E+02 -0.22114231842E+03  0.23832255564E+03  0.78902672973E+02 0.  0.
         -6    2    1    2    0  501  0.60070760874E+00  0.45421793592E+02 -0.21215366909E+03  0.27346204404E+03  0.16645963486E+03 0.  0.
        -24    2    5    5    0    0  0.39911836199E+01  0.11634268560E+02 -0.31061666563E+02  0.89153890243E+02  0.82657747756E+02 0.  0.
          5    1    3    3  502    0 -0.33083212938E+02 -0.70180036191E+02 -0.84380265682E+02  0.11472513105E+03  0.47000000000E+01 0. -1.
        -13    1    4    4    0    0  0.25425189718E+02 -0.23988613965E+02 -0.56210099111E+02  0.66192666620E+02  0.00000000000E+00 0.  1.
         14    1    4    4    0    0  0.70573156115E+01  0.48746856564E+02 -0.16493221931E+03  0.17212988902E+03  0.00000000000E+00 0. -1.
         -5    1    5    5    0  501 -0.33904760112E+01  0.33787525032E+02 -0.18109200253E+03  0.18430815380E+03  0.47000000000E+01 0.  1.
         11    1    6    6    0    0  0.16115653186E+02 -0.19176003057E+02  0.17373009282E+02  0.30483681247E+02  0.00000000000E+00 0. -1.
        -12    1    6    6    0    0 -0.12124469566E+02  0.30810271616E+02 -0.48434675846E+02  0.58670208996E+02  0.00000000000E+00 0.  1.
</event>
<event>
12    1  0.2625820E-002  0.1849489E+03  0.7818608E-02  0.1163098E+00
          2   -1    0    0  502    0  0.00000000000E+00  0.00000000000E+00  0.38813650748E+03  0.38813650748E+03  0.00000000000E+00 0. -1.
         -2   -1    0    0    0  501 -0.00000000000E+00 -0.00000000000E+00 -0.26010155427E+03  0.26010155427E+03  0.00000000000E+00 0.  1.
          6    2    1    2  502    0  0.43384021843E+02 -0.53453885135E+02 -0.19952546275E+03  0.27209924105E+03  0.17172098156E+03 0.  0.
         24    2    3    3    0    0  0.81717383814E+02 -0.76029858770E+02 -0.16964587564E+03  0.21830332159E+03  0.80114585767E+02 0.  0.
         -6    2    1    2    0  501 -0.43384021843E+02  0.53453885135E+02  0.32756041596E+03  0.37613882070E+03  0.17159573172E+03 0.  0.
        -24    2    5    5    0    0 -0.11914284867E+02  0.36020896090E+02  0.32717050743E+03  0.33985527786E+03  0.83795070344E+02 0.  0.
          5    1    3    3  502    0 -0.38333361970E+02  0.22575973634E+02 -0.29879587113E+02  0.53795919469E+02  0.47000000000E+01 0. -1.
        -13    1    4    4    0    0  0.20088817513E+02 -0.68776698010E+02 -0.65530375880E+02  0.97098017185E+02  0.00000000000E+00 0.  1.
         14    1    4    4    0    0  0.61628566300E+02 -0.72531607601E+01 -0.10411549976E+03  0.12120530440E+03  0.00000000000E+00 0. -1.
         -5    1    5    5    0  501 -0.31469736976E+02  0.17432989046E+02  0.38990852829E+00  0.36283542841E+02  0.47000000000E+01 0.  1.
         13    1    6    6    0    0 -0.44506943902E+02  0.37821085260E+02  0.23214255397E+03  0.23937725020E+03  0.00000000000E+00 0. -1.
        -14    1    6    6    0    0  0.32592659034E+02 -0.18001891703E+01  0.95027953459E+02  0.10047802766E+03  0.00000000000E+00 0.  1.
</event>
