<event>
12    1  0.2614920E-002  0.1879621E+03  0.7818608E-02  0.1160312E+00
          2   -1    0    0  502    0  0.00000000000E+00  0.00000000000E+00  0.15964251842E+03  0.15964251842E+03  0.00000000000E+00 0. -1.
         -2   -1    0    0    0  501 -0.00000000000E+00 -0.00000000000E+00 -0.28525105055E+03  0.28525105055E+03  0.00000000000E+00 0.  1.
          6    2    1    2  502    0 -0.69220071730E+02  0.21759322005E+02  0.42104792655E+02  0.19412423588E+03  0.17506147196E+03 0.  0.
         24    2    3    3    0    0  0.30376218050E+01  0.57187037981E+02 -0.72390404339E+01  0.99608622361E+02  0.81178134266E+02 0.  0.
         -6    2    1    2    0  501  0.69220071730E+02 -0.21759322005E+02 -0.16771332479E+03  0.25076933309E+03  0.17173413371E+03 0.  0.
        -24    2    5    5    0    0  0.91707673236E+02  0.22912375924E+02 -0.72816225800E+02  0.14339707310E+03  0.79531399676E+02 0.  0.
          5    1    3    3  502    0 -0.72257693535E+02 -0.35427715976E+02  0.49343833089E+02  0.94515613516E+02  0.47000000000E+01 0. -1.
        -13    1    4    4    0    0  0.81769616997E+01 -0.26004897928E+01 -0.33152202285E+02  0.34244616601E+02  0.00000000000E+00 0.  1.
         14    1    4    4    0    0 -0.51393398947E+01  0.59787527774E+02  0.25913161851E+02  0.65364005760E+02  0.00000000000E+00 0. -1.
         -5    1    5    5    0  501 -0.22487601505E+02 -0.44671697928E+02 -0.94897098987E+02  0.10737225998E+03  0.47000000000E+01 0.  1.
         11    1    6    6    0    0  0.39453112637E+02  0.52524683029E+01  0.12574962581E+02  0.41740462431E+02  0.00000000000E+00 0. -1.
        -12    1    6    6    0    0  0.52254560598E+02  0.17659907621E+02 -0.85391188381E+02  0.10165661067E+03  0.00000000000E+00 0.  1.
</event>
<event>
12    1  0.2614920E-002  0.3129125E+03  0.7818608E-02  0.1078958E+00
         -2   -1    0    0    0  501 -0.00000000000E+00  0.00000000000E+00  0.14386384469E+03  0.14386384469E+03  0.00000000000E+00 0.  1.
          2   -1    0    0  502    0  0.00000000000E+00 -0.00000000000E+00 -0.68118436319E+03  0.68118436319E+03  0.00000000000E+00 0. -1.
          6    2    1    2  502    0  0.24902442628E+03  0.79242333326E+02 -0.28058971322E+03  0.42019281190E+03  0.17186884457E+03 0.  0.
         24    2    3    3    0    0  0.18533545626E+03 -0.85923678196E+01 -0.15755780005E+03  0.25608869469E+03  0.79585796851E+02 0.  0.
         -6    2    1    2    0  501 -0.24902442628E+03 -0.79242333326E+02 -0.25673080528E+03  0.40485539598E+03  0.17235043660E+03 0.  0.
        -24    2    5    5    0    0 -0.16339768733E+03 -0.24366529932E+02 -0.23939856061E+03  0.30158008950E+03  0.79663966494E+02 0.  0.
          5    1    3    3  502    0  0.63688970024E+02  0.87834701146E+02 -0.12303191317E+03  0.16410411721E+03  0.47000000000E+01 0. -1.
        -11    1    4    4    0    0  0.15882356338E+03 -0.92944688497E+01 -0.88366888156E+02  0.18198906110E+03  0.00000000000E+00 0.  1.
         12    1    4    4    0    0  0.26511892873E+02  0.70210103017E+00 -0.69190911894E+02  0.74099633591E+02  0.00000000000E+00 0. -1.
         -5    1    5    5    0  501 -0.85626738952E+02 -0.54875803394E+02 -0.17332244673E+02  0.10327530647E+03  0.47000000000E+01 0.  1.
         11    1    6    6    0    0 -0.13846302313E+03 -0.18702265131E+02 -0.23798817165E+03  0.27597129079E+03  0.00000000000E+00 0. -1.
        -12    1    6    6    0    0 -0.24934664205E+02 -0.56642648009E+01 -0.14103889619E+01  0.25608798718E+02  0.00000000000E+00 0.  1.
</event>
<event>
12    1  0.2614920E-002  0.2855237E+03  0.7818608E-02  0.1092710E+00
          2   -1    0    0  502    0  0.00000000000E+00  0.00000000000E+00  0.96428543690E+03  0.96428543690E+03  0.00000000000E+00 0.  1.
         -2   -1    0    0    0  501 -0.00000000000E+00 -0.00000000000E+00 -0.12419486827E+03  0.12419486827E+03  0.00000000000E+00 0. -1.
          6    2    1    2  502    0 -0.41610187008E+02  0.22509140306E+03  0.11295538227E+03  0.30745104985E+03  0.17137585091E+03 0.  0.
         24    2    3    3    0    0 -0.35162582402E+02  0.19243709869E+03  0.25387724781E+02  0.21365307633E+03  0.82064951717E+02 0.  0.
         -6    2    1    2    0  501  0.41610187008E+02 -0.22509140306E+03  0.72713518637E+03  0.78102925532E+03  0.16995167260E+03 0.  0.
        -24    2    5    5    0    0  0.91811329492E+02 -0.17977166803E+03  0.56696152604E+03  0.60709902634E+03  0.79854135325E+02 0.  0.
          5    1    3    3  502    0 -0.64476046063E+01  0.32654304370E+02  0.87567657485E+02  0.93797973520E+02  0.47000000000E+01 0. -1.
        -11    1    4    4    0    0 -0.96430152516E+01 -0.64126735465E+01  0.27139900116E+01  0.11894362822E+02  0.00000000000E+00 0.  1.
         12    1    4    4    0    0 -0.25519567151E+02  0.19884977224E+03  0.22673734769E+02  0.20175871350E+03  0.00000000000E+00 0. -1.
         -5    1    5    5    0  501 -0.50201142483E+02 -0.45319735027E+02  0.16017366033E+03  0.17393022898E+03  0.47000000000E+01 0.  1.
         11    1    6    6    0    0  0.41511076310E+02 -0.14006032218E+02  0.11923325682E+03  0.12702719365E+03  0.00000000000E+00 0. -1.
        -12    1    6    6    0    0  0.50300253182E+02 -0.16576563581E+03  0.44772826922E+03  0.48007183269E+03  0.00000000000E+00 0.  1.
</event>
<event>
12    1  0.2614920E-002  0.2163629E+03  0.7818608E-02  0.1136624E+00
          2   -1    0    0  502    0  0.00000000000E+00  0.00000000000E+00  0.47286076175E+03  0.47286076175E+03  0.00000000000E+00 0. -1.
         -2   -1    0    0    0  501 -0.00000000000E+00 -0.00000000000E+00 -0.14734544213E+03  0.14734544213E+03  0.00000000000E+00 0.  1.
          6    2    1    2  502    0 -0.59463053016E+02 -0.11705232595E+03  0.34061164537E+03  0.40375922662E+03  0.17253439782E+03 0.  0.
         24    2    3    3    0    0  0.16556566824E+02 -0.92888581475E+02  0.16628854115E+03  0.21199503859E+03  0.91583890465E+02 0.  0.
         -6    2    1    2    0  501  0.59463053016E+02  0.11705232595E+03 -0.15096325754E+02  0.21644697726E+03  0.17141847400E+03 0.  0.
        -24    2    5    5    0    0  0.35495789306E+02  0.14257460688E+03  0.19772794246E+02  0.16681067922E+03  0.76468096113E+02 0.  0.
          5    1    3    3  502    0 -0.76019619840E+02 -0.24163744477E+02  0.17432310422E+03  0.19176418803E+03  0.47000000000E+01 0. -1.
        -11    1    4    4    0    0 -0.31525334068E+02 -0.72885542405E+02  0.99674783227E+02  0.12744101142E+03  0.00000000000E+00 0.  1.
         12    1    4    4    0    0  0.48081900891E+02 -0.20003039070E+02  0.66613757926E+02  0.84554027169E+02  0.00000000000E+00 0. -1.
         -5    1    5    5    0  501  0.23967263711E+02 -0.25522280929E+02 -0.34869120000E+02  0.49636298041E+02  0.47000000000E+01 0.  1.
         13    1    6    6    0    0  0.20669094856E+02  0.47272797340E+02  0.43502351724E+02  0.67486172332E+02  0.00000000000E+00 0. -1.
        -14    1    6    6    0    0  0.14826694450E+02  0.95301809541E+02 -0.23729557478E+02  0.99324506886E+02  0.00000000000E+00 0.  1.
</event>
<event>
12    1  0.2614920E-002  0.1734991E+03  0.7818608E-02  0.1174247E+00
          2   -1    0    0  502    0  0.00000000000E+00  0.00000000000E+00  0.45401683718E+03  0.45401683718E+03  0.00000000000E+00 0. -1.
         -2   -1    0    0    0  501 -0.00000000000E+00 -0.00000000000E+00 -0.78750862128E+02  0.78750862128E+02  0.00000000000E+00 0.  1.
          6    2    1    2  502    0 -0.65805626650E+01 -0.26472705561E+02  0.29270638366E+03  0.33979918624E+03  0.17041816803E+03 0.  0.
         24    2    3    3    0    0 -0.15839557098E+01 -0.17650676464E+02  0.47255826439E+02  0.94094362690E+02  0.79413982789E+02 0.  0.
         -6    2    1    2    0  501  0.65805626650E+01  0.26472705561E+02  0.82559591400E+02  0.19296851307E+03  0.17226912944E+03 0.  0.
        -24    2    5    5    0    0  0.66638700951E+02  0.38659325781E+02  0.66154409934E+02  0.12935472788E+03  0.80131016080E+02 0.  0.
          5    1    3    3  502    0 -0.49966069552E+01 -0.88220290968E+01  0.24545055722E+03  0.24570482355E+03  0.47000000000E+01 0. -1.
        -11    1    4    4    0    0 -0.30470320924E+02 -0.30261864708E+02  0.78871567491E+01  0.43662663162E+02  0.00000000000E+00 0.  1.
         12    1    4    4    0    0  0.28886365214E+02  0.12611188244E+02  0.39368669689E+02  0.50431699528E+02  0.00000000000E+00 0. -1.
         -5    1    5    5    0  501 -0.60058138286E+02 -0.12186620220E+02  0.16405181465E+02  0.63613785185E+02  0.47000000000E+01 0.  1.
         11    1    6    6    0    0 -0.69677517547E+01 -0.30542032475E+01  0.40120282284E+02  0.40835214858E+02  0.00000000000E+00 0. -1.
        -12    1    6    6    0    0  0.73606452705E+02  0.41713529028E+02  0.26034127651E+02  0.88519513026E+02  0.00000000000E+00 0.  1.
</event>
<event>
12    1  0.2614920E-002  0.2316000E+03  0.7818608E-02  0.1125519E+00
          2   -1    0    0  502    0  0.00000000000E+00  0.00000000000E+00  0.20782082342E+03  0.20782082342E+03  0.00000000000E+00 0.  1.
         -2   -1    0    0    0  501 -0.00000000000E+00 -0.00000000000E+00 -0.34916750778E+03  0.34916750778E+03  0.00000000000E+00 0. -1.
          6    2    1    2  502    0  0.11740447284E+03 -0.10247185466E+03 -0.21306374903E+03  0.31524166842E+03  0.17232776072E+03 0.  0.
         24    2    3    3    0    0  0.76211360345E+02 -0.10846238607E+03 -0.80534831123E+02  0.17624971518E+03  0.83700910620E+02 0.  0.
         -6    2    1    2    0  501 -0.11740447284E+03  0.10247185466E+03  0.71717064667E+02  0.24174666279E+03  0.17033443681E+03 0.  0.
        -24    2    5    5    0    0 -0.32018672699E+02  0.52445589365E+01  0.72117667979E+02  0.11226256190E+03  0.79682017862E+02 0.  0.
          5    1    3    3  502    0  0.41193112492E+02  0.59905314112E+01 -0.13252891791E+03  0.13899195324E+03  0.47000000000E+01 0. -1.
        -13    1    4    4    0    0  0.32043934878E+02 -0.88845933665E+00 -0.43839463786E+02  0.54309315108E+02  0.00000000000E+00 0.  1.
         14    1    4    4    0    0  0.44167425467E+02 -0.10757392673E+03 -0.36695367337E+02  0.12194040007E+03  0.00000000000E+00 0. -1.
         -5    1    5    5    0  501 -0.85385800139E+02  0.97227295722E+02 -0.40060331200E+00  0.12948410088E+03  0.47000000000E+01 0.  1.
         11    1    6    6    0    0 -0.39563178348E+02 -0.14072105639E+02  0.53285633493E+01  0.42328038290E+02  0.00000000000E+00 0. -1.
        -12    1    6    6    0    0  0.75445056489E+01  0.19316664575E+02  0.66789104630E+02  0.69934523614E+02  0.00000000000E+00 0.  1.
</event>
<event>
12    1  0.2614920E-002  0.4238732E+03  0.7818608E-02  0.1035813E+00
         -2   -1    0    0    0  501 -0.00000000000E+00  0.00000000000E+00  0.31233321182E+03  0.31233321182E+03  0.00000000000E+00 0.  1.
          2   -1    0    0  502    0  0.00000000000E+00 -0.00000000000E+00 -0.57525222389E+03  0.57525222389E+03  0.00000000000E+00 0. -1.
          6    2    1    2  502    0  0.15324727605E+03 -0.35603020139E+03 -0.13253824462E+03  0.44349756829E+03  0.16994550560E+03 0.  0.
         24    2    3    3    0    0  0.74888091728E+02 -0.18506010445E+03 -0.29052248457E+01  0.21502930872E+03  0.79835422811E+02 0.  0.
         -6    2    1    2    0  501 -0.15324727605E+03  0.35603020139E+03 -0.13038076745E+03  0.44408786743E+03  0.17312613192E+03 0.  0.
        -24    2    5    5    0    0 -0.60771955234E+01  0.99499711011E+02 -0.54107686617E+02  0.13862658026E+03  0.79702962343E+02 0.  0.
          5    1    3    3  502    0  0.78359184323E+02 -0.17097009694E+03 -0.12963301977E+03  0.22846825957E+03  0.47000000000E+01 0. -1.
        -11    1    4    4    0    0  0.40335292634E+02 -0.19392252976E+02  0.79218802852E+01  0.45450538991E+02  0.00000000000E+00 0.  1.
         12    1    4    4    0    0  0.34552799095E+02 -0.16566785147E+03 -0.10827105131E+02  0.16957876973E+03  0.00000000000E+00 0. -1.
         -5    1    5    5    0  501 -0.14717008053E+03  0.25653049038E+03 -0.76273080835E+02  0.30546128717E+03  0.47000000000E+01 0.  1.
         13    1    6    6    0    0  0.92687385452E+01  0.10309831847E+03 -0.26526120436E+02  0.10685882206E+03  0.00000000000E+00 0. -1.
        -14    1    6    6    0    0 -0.15345934069E+02 -0.35986074615E+01 -0.27581566181E+02  0.31767758201E+02  0.00000000000E+00 0.  1.
</event>
<event>
12    1  0.2614920E-002  0.2121603E+03  0.7818608E-02  0.1139867E+00
          1   -1    0    0  502    0  0.00000000000E+00  0.00000000000E+00  0.92483069279E+03  0.92483069279E+03  0.00000000000E+00 0. -1.
         -1   -1    0    0    0  501 -0.00000000000E+00 -0.00000000000E+00 -0.55795426331E+02  0.55795426331E+02  0.00000000000E+00 0.  1.
          6    2    1    2  502    0 -0.10872998076E+02  0.12912892007E+03  0.25300430286E+03  0.32788088118E+03  0.16340806250E+03 0.  0.
         24    2    3    3    0    0 -0.20077417161E+02  0.14223804655E+03  0.14734849909E+03  0.22091448740E+03  0.80354626439E+02 0.  0.
         -6    2    1    2    0  501  0.10872998076E+02 -0.12912892007E+03  0.61603096359E+03  0.65274523794E+03  0.17259692196E+03 0.  0.
        -24    2    5    5    0    0  0.33760520309E+02 -0.14644737067E+03  0.58889562307E+03  0.61296855997E+03  0.79660501746E+02 0.  0.
          5    1    3    3  502    0  0.92044190854E+01 -0.13109126484E+02  0.10565580377E+03  0.10696639378E+03  0.47000000000E+01 0. -1.
        -11    1    4    4    0    0  0.11301972378E+02  0.72335010796E+02  0.11799168768E+03  0.13886009768E+03  0.00000000000E+00 0.  1.
         12    1    4    4    0    0 -0.31379389539E+02  0.69903035754E+02  0.29356811418E+02  0.82054389718E+02  0.00000000000E+00 0. -1.
         -5    1    5    5    0  501 -0.22887522233E+02  0.17318450600E+02  0.27135340527E+02  0.39776677974E+02  0.47000000000E+01 0.  1.
         13    1    6    6    0    0  0.16541489623E+02 -0.20006670786E+02  0.29918056932E+02  0.39610325491E+02  0.00000000000E+00 0. -1.
        -14    1    6    6    0    0  0.17219030685E+02 -0.12644069988E+03  0.55897756613E+03  0.57335823448E+03  0.00000000000E+00 0.  1.
</event>
<event>
12    1  0.2614920E-002  0.1850297E+03  0.7818608E-02  0.1163022E+00
          2   -1    0    0  502    0  0.00000000000E+00  0.00000000000E+00  0.97149247584E+03  0.97149247584E+03  0.00000000000E+00 0. -1.
         -2   -1    0    0    0  501 -0.00000000000E+00 -0.00000000000E+00 -0.35299206832E+02  0.35299206832E+02  0.00000000000E+00 0.  1.
          6    2    1    2  502    0  0.25671817933E+02 -0.58813821622E+02  0.44793143028E+03  0.48469468114E+03  0.17369012591E+03 0.  0.
         24    2    3    3    0    0 -0.49517908249E+02 -0.74946481472E+01  0.22553397831E+03  0.24434104765E+03  0.79553624710E+02 0.  0.
         -6    2    1    2    0  501 -0.25671817933E+02  0.58813821622E+02  0.48826183872E+03  0.52209700153E+03  0.17339996541E+03 0.  0.
        -24    2    5    5    0    0  0.33046020387E+02  0.72423943390E+02  0.22600877205E+03  0.25296547062E+03  0.81082040196E+02 0.  0.
          5    1    3    3  502    0  0.75189726182E+02 -0.51319173475E+02  0.22239745198E+03  0.24035363350E+03  0.47000000000E+01 0. -1.
        -11    1    4    4    0    0  0.11432556411E+01  0.58261513633E+01 -0.51037572436E+01  0.78293940487E+01  0.00000000000E+00 0.  1.
         12    1    4    4    0    0 -0.50661163890E+02 -0.13320799510E+02  0.23063773555E+03  0.23651165360E+03  0.00000000000E+00 0. -1.
         -5    1    5    5    0  501 -0.58717838320E+02 -0.13610121767E+02  0.26225306667E+03  0.26913153091E+03  0.47000000000E+01 0.  1.
         13    1    6    6    0    0  0.12508520340E+02  0.28871850944E+02  0.19064199353E+03  0.19322115970E+03  0.00000000000E+00 0. -1.
        -14    1    6    6    0    0  0.20537500047E+02  0.43552092446E+02  0.35366778523E+02  0.59744310923E+02  0.00000000000E+00 0.  1.
</event>
<event>
12    1  0.2614920E-002  0.1773216E+03  0.7818608E-02  0.1170421E+00
         -2   -1    0    0    0  501 -0.00000000000E+00  0.00000000000E+00  0.13477491147E+03  0.13477491147E+03  0.00000000000E+00 0. -1.
          2   -1    0    0  502    0  0.00000000000E+00 -0.00000000000E+00 -0.48904581194E+03  0.48904581194E+03  0.00000000000E+00 0.  1.
          6    2    1    2  502    0  0.12726026689E+01 -0.22617459015E+02 -0.40212393565E+03  0.43901056931E+03  0.17468099890E+03 0.  0.
         24    2    3    3    0    0 -0.14970022942E+02  0.24726513460E+02 -0.36902429682E+03  0.37881961728E+03  0.80559721548E+02 0.  0.
         -6    2    1    2    0  501 -0.12726026689E+01  0.22617459015E+02  0.47853035173E+02  0.18481015410E+03  0.17706414406E+03 0.  0.
        -24    2    5    5    0    0  0.37095687817E+02  0.42763594560E+02  0.83514384830E+02  0.12849129090E+03  0.79564717617E+02 0.  0.
          5    1    3    3  502    0  0.16242625611E+02 -0.47343972475E+02 -0.33099638826E+02  0.60190952034E+02  0.47000000000E+01 0. -1.
        -11    1    4    4    0    0 -0.31405858013E+02  0.34910733362E+02 -0.11724750080E+03  0.12630147927E+03  0.00000000000E+00 0.  1.
         12    1    4    4    0    0  0.16435835071E+02 -0.10184219902E+02 -0.25177679602E+03  0.25251813801E+03  0.00000000000E+00 0. -1.
         -5    1    5    5    0  501 -0.38368290486E+02 -0.20146135545E+02 -0.35661349657E+02  0.56318863195E+02  0.47000000000E+01 0.  1.
         13    1    6    6    0    0  0.57093017887E+02  0.16356970415E+02  0.32596501707E+02  0.67747288478E+02  0.00000000000E+00 0. -1.
        -14    1    6    6    0    0 -0.19997330069E+02  0.26406624145E+02  0.50917883123E+02  0.60744002423E+02  0.00000000000E+00 0.  1.
</event>
<event>
12    1  0.2614920E-002  0.2004478E+03  0.7818608E-02  0.1149362E+00
         -2   -1    0    0    0  501 -0.00000000000E+00  0.00000000000E+00  0.69328681255E+02  0.69328681255E+02  0.00000000000E+00 0. -1.
          2   -1    0    0  502    0  0.00000000000E+00 -0.00000000000E+00 -0.62961656218E+03  0.62961656218E+03  0.00000000000E+00 0.  1.
          6    2    1    2  502    0  0.88577781635E+02 -0.65804238176E+02 -0.18641050028E+03  0.27639349442E+03  0.17166324004E+03 0.  0.
         24    2    3    3    0    0  0.49877879120E+02 -0.10536414570E+03 -0.16293362709E+03  0.21609488488E+03  0.80995224591E+02 0.  0.
         -6    2    1    2    0  501 -0.88577781635E+02  0.65804238176E+02 -0.37387738065E+03  0.42255174902E+03  0.16306275994E+03 0.  0.
        -24    2    5    5    0    0 -0.35947692015E+02  0.44033012097E+02 -0.34451373498E+03  0.35830047428E+03  0.80364006662E+02 0.  0.
          5    1    3    3  502    0  0.38699902515E+02  0.39559907525E+02 -0.23476873187E+02  0.60298609542E+02  0.47000000000E+01 0. -1.
        -13    1    4    4    0    0  0.62974244184E+02 -0.40934859613E+02 -0.10015311933E+03  0.12518812034E+03  0.00000000000E+00 0.  1.
         14    1    4    4    0    0 -0.13096365064E+02 -0.64429286089E+02 -0.62780507766E+02  0.90906764540E+02  0.00000000000E+00 0. -1.
         -5    1    5    5    0  501 -0.52630089620E+02  0.21771226079E+02 -0.29363645670E+02  0.64251274738E+02  0.47000000000E+01 0.  1.
         11    1    6    6    0    0 -0.47835256834E+00  0.82873171131E+01  0.16749999531E+01  0.84684160831E+01  0.00000000000E+00 0. -1.
        -12    1    6    6    0    0 -0.35469339447E+02  0.35745694984E+02 -0.34618873493E+03  0.34983205820E+03  0.00000000000E+00 0.  1.
</event>
<event>
12    1  0.2614920E-002  0.2019828E+03  0.7818608E-02  0.1148077E+00
         -2   -1    0    0    0  501 -0.00000000000E+00  0.00000000000E+00  0.22802702191E+02  0.22802702191E+02  0.00000000000E+00 0.  1.
          2   -1    0    0  502    0  0.00000000000E+00 -0.00000000000E+00 -0.20719285313E+04  0.20719285313E+04  0.00000000000E+00 0. -1.
          6    2    1    2  502    0  0.92036399658E+02  0.46308002178E+02 -0.63686659307E+03  0.66807685525E+03  0.17352952838E+03 0.  0.
         24    2    3    3    0    0  0.81894142055E+02 -0.30108391910E+02 -0.44533014912E+03  0.46155656560E+03  0.84275475476E+02 0.  0.
         -6    2    1    2    0  501 -0.92036399658E+02 -0.46308002178E+02 -0.14122592361E+04  0.14266543783E+04  0.17392939735E+03 0.  0.
        -24    2    5    5    0    0 -0.11447860257E+03 -0.78935586807E+02 -0.10561208460E+04  0.10682902413E+04  0.80725591391E+02 0.  0.
          5    1    3    3  502    0  0.10142257604E+02  0.76416394088E+02 -0.19153644395E+03  0.20652028965E+03  0.47000000000E+01 0. -1.
        -11    1    4    4    0    0  0.64489288848E+02 -0.13225938762E+02 -0.13414164964E+03  0.14942481721E+03  0.00000000000E+00 0.  1.
         12    1    4    4    0    0  0.17404853206E+02 -0.16882453148E+02 -0.31118849948E+03  0.31213174838E+03  0.00000000000E+00 0. -1.
         -5    1    5    5    0  501  0.22442202913E+02  0.32627584629E+02 -0.35613839011E+03  0.35836413696E+03  0.47000000000E+01 0.  1.
         13    1    6    6    0    0 -0.10276768885E+02 -0.51910825088E+02 -0.37485473625E+03  0.37857155074E+03  0.00000000000E+00 0. -1.
        -14    1    6    6    0    0 -0.10420183369E+03 -0.27024761719E+02 -0.68126610973E+03  0.68971869059E+03  0.00000000000E+00 0.  1.
</event>
<event>
12    1  0.2614920E-002  0.3306526E+03  0.7818608E-02  0.1070848E+00
          2   -1    0    0  502    0  0.00000000000E+00  0.00000000000E+00  0.18604669535E+04  0.18604669535E+04  0.00000000000E+00 0. -1.
         -2   -1    0    0    0  501 -0.00000000000E+00 -0.00000000000E+00 -0.61518484510E+02  0.61518484510E+02  0.00000000000E+00 0.  1.
          6    2    1    2  502    0  0.20022163681E+03  0.19710890378E+03  0.11015271350E+04  0.11499473864E+04  0.17342531064E+03 0.  0.
         24    2    3    3    0    0  0.42023226233E+02  0.13202727631E+03  0.51961139840E+03  0.54339123076E+03  0.77979940304E+02 0.  0.
         -6    2    1    2    0  501 -0.20022163681E+03 -0.19710890378E+03  0.69742133400E+03  0.77203805170E+03  0.17523016965E+03 0.  0.
        -24    2    5    5    0    0 -0.55194905091E+02 -0.41274836516E+02  0.34064899611E+03  0.35655568081E+03  0.79624903724E+02 0.  0.
          5    1    3    3  502    0  0.15819841058E+03  0.65081627467E+02  0.58191573663E+03  0.60655615559E+03  0.47000000000E+01 0. -1.
        -11    1    4    4    0    0  0.44969475601E+02  0.86719539466E+02  0.22484495231E+03  0.24514849549E+03  0.00000000000E+00 0.  1.
         12    1    4    4    0    0 -0.29462493674E+01  0.45307736844E+02  0.29476644609E+03  0.29824273527E+03  0.00000000000E+00 0. -1.
         -5    1    5    5    0  501 -0.14502673172E+03 -0.15583406726E+03  0.35677233790E+03  0.41548237089E+03  0.47000000000E+01 0.  1.
         13    1    6    6    0    0 -0.19183098370E+02  0.14830471350E+02  0.28743841258E+02  0.37605086807E+02  0.00000000000E+00 0. -1.
        -14    1    6    6    0    0 -0.36011806721E+02 -0.56105307867E+02  0.31190515485E+03  0.31895059400E+03  0.00000000000E+00 0.  1.
</event>
<event>
12    1  0.2614920E-002  0.1717734E+03  0.7818608E-02  0.1176011E+00
          2   -1    0    0  502    0  0.00000000000E+00  0.00000000000E+00  0.64533455906E+03  0.64533455906E+03  0.00000000000E+00 0. -1.
         -2   -1    0    0    0  501 -0.00000000000E+00 -0.00000000000E+00 -0.58735308574E+02  0.58735308574E+02  0.00000000000E+00 0.  1.
          6    2    1    2  502    0  0.26116053006E+02 -0.24739180519E+02  0.13736036140E+03  0.22548600810E+03  0.17516276913E+03 0.  0.
         24    2    3    3    0    0  0.24135098304E+01 -0.83376035358E+02  0.91619410398E+02  0.14729127748E+03  0.79644307757E+02 0.  0.
         -6    2    1    2    0  501 -0.26116053006E+02  0.24739180519E+02  0.44923888909E+03  0.47858385953E+03  0.16103681524E+03 0.  0.
        -24    2    5    5    0    0 -0.12378360557E+02  0.29248825907E+01  0.44345638247E+03  0.45174889781E+03  0.85215754222E+02 0.  0.
          5    1    3    3  502    0  0.23702543176E+02  0.58636854839E+02  0.45740951003E+02  0.78194730622E+02  0.47000000000E+01 0. -1.
        -13    1    4    4    0    0  0.20013622376E+02 -0.91012930478E+01 -0.65473905383E+01  0.22940072769E+02  0.00000000000E+00 0.  1.
         14    1    4    4    0    0 -0.17600112546E+02 -0.74274742310E+02  0.98166800936E+02  0.12435120471E+03  0.00000000000E+00 0. -1.
         -5    1    5    5    0  501 -0.13737692449E+02  0.21814297928E+02  0.57825066104E+01  0.26834961722E+02  0.47000000000E+01 0.  1.
         11    1    6    6    0    0  0.15480944256E+02 -0.18535521983E+02  0.39731762944E+02  0.46495571799E+02  0.00000000000E+00 0. -1.
        -12    1    6    6    0    0 -0.27859304813E+02  0.21460404573E+02  0.40372461953E+03  0.40525332601E+03  0.00000000000E+00 0.  1.
</event>
<event>
12    1  0.2614920E-002  0.2668306E+03  0.7818608E-02  0.1103107E+00
          2   -1    0    0  502    0  0.00000000000E+00  0.00000000000E+00  0.12207843306E+04  0.12207843306E+04  0.00000000000E+00 0. -1.
         -2   -1    0    0    0  501 -0.00000000000E+00 -0.00000000000E+00 -0.59884937773E+02  0.59884937773E+02  0.00000000000E+00 0.  1.
          6    2    1    2  502    0  0.14633372170E+02 -0.20394908097E+03  0.68562706493E+03  0.73601971447E+03  0.17271706548E+03 0.  0.
         24    2    3    3    0    0 -0.24972519004E+01 -0.70959314721E+02  0.15280094014E+03  0.18656042984E+03  0.80094981492E+02 0.  0.
         -6    2    1    2    0  501 -0.14633372170E+02  0.20394908097E+03  0.47527232792E+03  0.54464955393E+03  0.17014695913E+03 0.  0.
        -24    2    5    5    0    0  0.83129833692E+01  0.22940647809E+02  0.14805703607E+03  0.16997299298E+03  0.79840800334E+02 0.  0.
          5    1    3    3  502    0  0.17130624070E+02 -0.13298976624E+03  0.53282612479E+03  0.54945928463E+03  0.47000000000E+01 0. -1.
        -13    1    4    4    0    0 -0.13556042831E+02 -0.66016882784E+02  0.15918814924E+03  0.17286660165E+03  0.00000000000E+00 0.  1.
         14    1    4    4    0    0  0.11058790931E+02 -0.49424319366E+01 -0.63872090951E+01  0.13693828184E+02  0.00000000000E+00 0. -1.
         -5    1    5    5    0  501 -0.22946355539E+02  0.18100843316E+03  0.32721529185E+03  0.37467656095E+03  0.47000000000E+01 0.  1.
         11    1    6    6    0    0  0.19002282512E+02  0.36367475082E+02  0.14717520982E+03  0.15278816175E+03  0.00000000000E+00 0. -1.
        -12    1    6    6    0    0 -0.10689299143E+02 -0.13426827273E+02  0.88182624579E+00  0.17184831228E+02  0.00000000000E+00 0.  1.
</event>
<event>
12    1  0.2614920E-002  0.2483018E+03  0.7818608E-02  0.1114383E+00
          1   -1    0    0  502    0  0.00000000000E+00  0.00000000000E+00  0.11072445259E+04  0.11072445259E+04  0.00000000000E+00 0.  1.
         -1   -1    0    0    0  501 -0.00000000000E+00 -0.00000000000E+00 -0.56544713220E+02  0.56544713220E+02  0.00000000000E+00 0. -1.
          6    2    1    2  502    0 -0.16937633436E+03  0.58310941453E+02  0.45377319346E+03  0.51733292515E+03  0.17214742464E+03 0.  0.
         24    2    3    3    0    0 -0.84347183274E+02  0.52971998853E+02  0.39002609741E+03  0.41082356830E+03  0.82068067000E+02 0.  0.
         -6    2    1    2    0  501  0.16937633436E+03 -0.58310941453E+02  0.59692661918E+03  0.64645631393E+03  0.17174361297E+03 0.  0.
        -24    2    5    5    0    0  0.30643410320E+02 -0.21847300672E+02  0.11966219054E+03  0.14807910121E+03  0.78689625917E+02 0.  0.
          5    1    3    3  502    0 -0.85029151087E+02  0.53389426006E+01  0.63747096053E+02  0.10650935686E+03  0.47000000000E+01 0. -1.
        -11    1    4    4    0    0 -0.89139045225E+02  0.15286480632E+02  0.25539941734E+03  0.27093967641E+03  0.00000000000E+00 0.  1.
         12    1    4    4    0    0  0.47918619511E+01  0.37685518221E+02  0.13462668007E+03  0.13988389189E+03  0.00000000000E+00 0. -1.
         -5    1    5    5    0  501  0.13873292404E+03 -0.36463640782E+02  0.47726442864E+03  0.49837721272E+03  0.47000000000E+01 0.  1.
         13    1    6    6    0    0  0.34223820760E+02  0.22842486077E+02  0.44878214556E+02  0.60885985410E+02  0.00000000000E+00 0. -1.
        -14    1    6    6    0    0 -0.35804104405E+01 -0.44689786748E+02  0.74783975982E+02  0.87193115796E+02  0.00000000000E+00 0.  1.
</event>
<event>
12    1  0.2614920E-002  0.1758928E+03  0.7818608E-02  0.1171838E+00
          2   -1    0    0  502    0  0.00000000000E+00  0.00000000000E+00  0.57689460347E+03  0.57689460347E+03  0.00000000000E+00 0. -1.
         -2   -1    0    0    0  501 -0.00000000000E+00 -0.00000000000E+00 -0.72241553802E+02  0.72241553802E+02  0.00000000000E+00 0.  1.
          6    2    1    2  502    0 -0.30348351146E+02  0.32493407143E+02  0.42154634263E+03  0.45849384331E+03  0.17475251484E+03 0.  0.
         24    2    3    3    0    0 -0.64160598992E+02  0.71811349434E+02  0.32607605093E+03  0.34974718687E+03  0.82000313173E+02 0.  0.
         -6    2    1    2    0  501  0.30348351146E+02 -0.32493407143E+02  0.83106707032E+02  0.19064231396E+03  0.16571337662E+03 0.  0.
        -24    2    5    5    0    0 -0.14895997452E+02 -0.37525467995E+02 -0.78584863727E+01  0.88813393076E+02  0.78714747622E+02 0.  0.
          5    1    3    3  502    0  0.33812247847E+02 -0.39317942291E+02  0.95470291702E+02  0.10874665645E+03  0.47000000000E+01 0. -1.
        -13    1    4    4    0    0 -0.10289354546E+02  0.61641814801E+02  0.10698015821E+03  0.12389648259E+03  0.00000000000E+00 0.  1.
         14    1    4    4    0    0 -0.53871244446E+02  0.10169534633E+02  0.21909589272E+03  0.22585070427E+03  0.00000000000E+00 0. -1.
         -5    1    5    5    0  501  0.45244348597E+02  0.50320608527E+01  0.90965193405E+02  0.10182892088E+03  0.47000000000E+01 0.  1.
         13    1    6    6    0    0 -0.24137129325E+02 -0.87085216766E+01  0.30562007351E+02  0.39905834852E+02  0.00000000000E+00 0. -1.
        -14    1    6    6    0    0  0.92411318735E+01 -0.28816946319E+02 -0.38420493724E+02  0.48907558224E+02  0.00000000000E+00 0.  1.
</event>
<event>
12    1  0.2614920E-002  0.2557000E+03  0.7818608E-02  0.1109755E+00
          2   -1    0    0  502    0  0.00000000000E+00  0.00000000000E+00  0.82689983713E+03  0.82689983713E+03  0.00000000000E+00 0.  1.
         -2   -1    0    0    0  501 -0.00000000000E+00 -0.00000000000E+00 -0.20924385759E+03  0.20924385759E+03  0.00000000000E+00 0. -1.
          6    2    1    2  502    0 -0.43552783570E+02  0.18355289297E+03 -0.99766102834E+02  0.27453968075E+03  0.17271436407E+03 0.  0.
         24    2    3    3    0    0 -0.52167602493E+02  0.17874820370E+03 -0.35208520402E+02  0.20906394789E+03  0.88293348118E+02 0.  0.
         -6    2    1    2    0  501  0.43552783570E+02 -0.18355289297E+03  0.71742208238E+03  0.76160401398E+03  0.17250426181E+03 0.  0.
        -24    2    5    5    0    0  0.33524104397E+02 -0.19557473575E+02  0.26335724743E+03  0.27870440088E+03  0.82539341824E+02 0.  0.
          5    1    3    3  502    0  0.86148189228E+01  0.48046892734E+01 -0.64557582432E+02  0.65475732860E+02  0.47000000000E+01 0. -1.
        -11    1    4    4    0    0 -0.30082229420E+02  0.67642757748E+02  0.28230849170E+02  0.79230448992E+02  0.00000000000E+00 0.  1.
         12    1    4    4    0    0 -0.22085373073E+02  0.11110544595E+03 -0.63439369572E+02  0.12983349889E+03  0.00000000000E+00 0. -1.
         -5    1    5    5    0  501  0.10028679173E+02 -0.16399541940E+03  0.45406483495E+03  0.48289961310E+03  0.47000000000E+01 0.  1.
         13    1    6    6    0    0  0.28195441582E+02 -0.29797756535E+02  0.48438267917E+02  0.63475625396E+02  0.00000000000E+00 0. -1.
        -14    1    6    6    0    0  0.53286628151E+01  0.10240282960E+02  0.21491897951E+03  0.21522877548E+03  0.00000000000E+00 0.  1.
</event>
<event>
12    1  0.2614920E-002  0.1877126E+03  0.7818608E-02  0.1160541E+00
          2   -1    0    0  502    0  0.00000000000E+00  0.00000000000E+00  0.13039920286E+03  0.13039920286E+03  0.00000000000E+00 0. -1.
         -2   -1    0    0    0  501 -0.00000000000E+00 -0.00000000000E+00 -0.27622097656E+03  0.27622097656E+03  0.00000000000E+00 0.  1.
          6    2    1    2  502    0 -0.54545149382E+02  0.48599073266E+02 -0.42443792791E+02  0.19109693177E+03  0.17140454645E+03 0.  0.
         24    2    3    3    0    0 -0.50600930526E+02  0.74992093711E+01 -0.88057270725E+02  0.12939251504E+03  0.79822601501E+02 0.  0.
         -6    2    1    2    0  501  0.54545149382E+02 -0.48599073266E+02 -0.10337798091E+03  0.21552324764E+03  0.17443113281E+03 0.  0.
        -24    2    5    5    0    0  0.40494924509E+02 -0.58121418126E+02  0.40707430553E+01  0.10664073228E+03  0.79609903125E+02 0.  0.
          5    1    3    3  502    0 -0.39442188567E+01  0.41099863895E+02  0.45613477934E+02  0.61704416729E+02  0.47000000000E+01 0. -1.
        -11    1    4    4    0    0 -0.25674105620E+02 -0.19253865067E+02  0.20414264425E+01  0.32156468110E+02  0.00000000000E+00 0.  1.
         12    1    4    4    0    0 -0.24926824905E+02  0.26753074438E+02 -0.90098697168E+02  0.97236046933E+02  0.00000000000E+00 0. -1.
         -5    1    5    5    0  501  0.14050224873E+02  0.95223448601E+01 -0.10744872396E+03  0.10888251536E+03  0.47000000000E+01 0.  1.
         13    1    6    6    0    0 -0.31158923786E+01  0.17641964612E+02  0.68451760556E+01  0.19178220353E+02  0.00000000000E+00 0. -1.
        -14    1    6    6    0    0  0.43610816888E+02 -0.75763382738E+02 -0.27744330003E+01  0.87462511924E+02  0.00000000000E+00 0.  1.
</event>
<event>
12    1  0.2614920E-002  0.2434691E+03  0.7818608E-02  0.1117503E+00
         -2   -1    0    0    0  501 -0.00000000000E+00  0.00000000000E+00  0.36244230039E+02  0.36244230039E+02  0.00000000000E+00 0. -1.
          2   -1    0    0  502    0  0.00000000000E+00 -0.00000000000E+00 -0.17574464156E+04  0.17574464156E+04  0.00000000000E+00 0.  1.
          6    2    1    2  502    0 -0.17081259308E+03  0.18960052421E+02 -0.62484961525E+03  0.67066237211E+03  0.17266890323E+03 0.  0.
         24    2    3    3    0    0 -0.19774294263E+02 -0.26675843341E+02 -0.18972679811E+03  0.20779180846E+03  0.77965084577E+02 0.  0.
         -6    2    1    2    0  501  0.17081259308E+03 -0.18960052421E+02 -0.10963525703E+04  0.11230282735E+04  0.17224145601E+03 0.  0.
        -24    2    5    5    0    0  0.13580409862E+03 -0.31114085657E+01 -0.48720037030E+03  0.51264702629E+03  0.83608245306E+02 0.  0.
          5    1    3    3  502    0 -0.15103829882E+03  0.45635895761E+02 -0.43512281714E+03  0.46287056364E+03  0.47000000000E+01 0. -1.
        -11    1    4    4    0    0 -0.14871910220E+02 -0.35224641522E+02 -0.19349848422E+03  0.19723998702E+03  0.00000000000E+00 0.  1.
         12    1    4    4    0    0 -0.49023840432E+01  0.85487981812E+01  0.37716861133E+01  0.10551821444E+02  0.00000000000E+00 0. -1.
         -5    1    5    5    0  501  0.35008494468E+02 -0.15848643855E+02 -0.60915219997E+03  0.61038124719E+03  0.47000000000E+01 0.  1.
         13    1    6    6    0    0  0.12351965963E+03 -0.31627527669E+02 -0.41231711564E+03  0.43158175433E+03  0.00000000000E+00 0. -1.
        -14    1    6    6    0    0  0.12284438984E+02  0.28516119104E+02 -0.74883254665E+02  0.81065271967E+02  0.00000000000E+00 0.  1.
</event>
<event>
12    1  0.2614920E-002  0.2014740E+03  0.7818608E-02  0.1148501E+00
         -2   -1    0    0    0  501 -0.00000000000E+00  0.00000000000E+00  0.45184432977E+03  0.45184432977E+03  0.00000000000E+00 0. -1.
          2   -1    0    0  502    0  0.00000000000E+00 -0.00000000000E+00 -0.14303832036E+03  0.14303832036E+03  0.00000000000E+00 0.  1.
          6    2    1    2  502    0 -0.58835845425E+02 -0.85415643463E+02 -0.26941556014E+02  0.20338495510E+03  0.17286440832E+03 0.  0.
         24    2    3    3    0    0 -0.17169052491E+01  0.18501115639E+02 -0.13434596872E+02  0.83945455376E+02  0.80753402663E+02 0.  0.
         -6    2    1    2    0  501  0.58835845425E+02  0.85415643463E+02  0.33574756542E+03  0.39149769503E+03  0.17258774195E+03 0.  0.
        -24    2    5    5    0    0  0.36246004739E+01  0.37978191776E+02  0.61792883521E+02  0.10799839851E+03  0.79936304940E+02 0.  0.
          5    1    3    3  502    0 -0.57118940176E+02 -0.10391675910E+03 -0.13506959141E+02  0.11943949972E+03  0.47000000000E+01 0. -1.
        -11    1    4    4    0    0 -0.40212609282E+02  0.61557950080E+01  0.18565948202E+01  0.40723392562E+02  0.00000000000E+00 0.  1.
         12    1    4    4    0    0  0.38495704033E+02  0.12345320631E+02 -0.15291191693E+02  0.43222062813E+02  0.00000000000E+00 0. -1.
         -5    1    5    5    0  501  0.55211244951E+02  0.47437451686E+02  0.27395468190E+03  0.28349929652E+03  0.47000000000E+01 0.  1.
         11    1    6    6    0    0  0.11366740592E+02  0.45447374025E+02  0.76543445227E+02  0.89741660363E+02  0.00000000000E+00 0. -1.
        -12    1    6    6    0    0 -0.77421401186E+01 -0.74691822484E+01 -0.14750561706E+02  0.18256738146E+02  0.00000000000E+00 0.  1.
</event>
<event>
12    1  0.2614920E-002  0.2105668E+03  0.7818608E-02  0.1141118E+00
         -2   -1    0    0    0  501 -0.00000000000E+00  0.00000000000E+00  0.27511570725E+03  0.27511570725E+03  0.00000000000E+00 0.  1.
          2   -1    0    0  502    0  0.00000000000E+00 -0.00000000000E+00 -0.58375080448E+03  0.58375080448E+03  0.00000000000E+00 0. -1.
          6    2    1    2  502    0  0.65305300740E+01 -0.13191644977E+03  0.20970694423E+03  0.30164698184E+03  0.17195726693E+03 0.  0.
         24    2    3    3    0    0 -0.42640252874E+02 -0.64255546308E+02  0.17564965951E+03  0.21121605573E+03  0.88388081316E+02 0.  0.
         -6    2    1    2    0  501 -0.65305300740E+01  0.13191644977E+03 -0.51834204146E+03  0.55721952990E+03  0.15611064991E+03 0.  0.
        -24    2    5    5    0    0 -0.59589286310E+02  0.12336877531E+03 -0.40827118226E+03  0.43463903228E+03  0.58779182972E+02 0.  0.
          5    1    3    3  502    0  0.49170782948E+02 -0.67660903461E+02  0.34057284721E+02  0.90430926101E+02  0.47000000000E+01 0. -1.
        -11    1    4    4    0    0 -0.34308291655E+02 -0.62633739879E+02  0.54667625856E+02  0.89936608588E+02  0.00000000000E+00 0.  1.
         12    1    4    4    0    0 -0.83319612190E+01 -0.16218064284E+01  0.12098203365E+03  0.12127944715E+03  0.00000000000E+00 0. -1.
         -5    1    5    5    0  501  0.53058756236E+02  0.85476744540E+01 -0.11007085920E+03  0.12258049762E+03  0.47000000000E+01 0.  1.
         11    1    6    6    0    0 -0.15683689904E+02  0.47609569391E+02 -0.76136616875E+02  0.91156095000E+02  0.00000000000E+00 0. -1.
        -12    1    6    6    0    0 -0.43905596407E+02  0.75759205924E+02 -0.33213456538E+03  0.34348293728E+03  0.00000000000E+00 0.  1.
</event>
<event>
12    1  0.2614920E-002  0.1842295E+03  0.7818608E-02  0.1163771E+00
         -1   -1    0    0    0  501 -0.00000000000E+00  0.00000000000E+00  0.45550268906E+02  0.45550268906E+02  0.00000000000E+00 0. -1.
          1   -1    0    0  502    0  0.00000000000E+00 -0.00000000000E+00 -0.74524746385E+03  0.74524746385E+03  0.00000000000E+00 0.  1.
          6    2    1    2  502    0  0.53073050507E+02 -0.28205080302E+02 -0.35655085801E+03  0.40222656003E+03  0.17619709420E+03 0.  0.
         24    2    3    3    0    0 -0.25902257439E+02 -0.34564085392E+02 -0.26891097464E+03  0.28398792266E+03  0.80438951982E+02 0.  0.
         -6    2    1    2    0  501 -0.53073050507E+02  0.28205080302E+02 -0.34314633694E+03  0.38857117273E+03  0.17212167927E+03 0.  0.
        -24    2    5    5    0    0  0.33890787845E+02  0.58629462651E+01 -0.12534741742E+03  0.15294362875E+03  0.80602846618E+02 0.  0.
          5    1    3    3  502    0  0.78975307945E+02  0.63590050900E+01 -0.87639883363E+02  0.11823863737E+03  0.47000000000E+01 0. -1.
        -11    1    4    4    0    0  0.12171433431E+02  0.13079824439E+02 -0.14269699581E+03  0.14381118945E+03  0.00000000000E+00 0.  1.
         12    1    4    4    0    0 -0.38073690869E+02 -0.47643909831E+02 -0.12621397884E+03  0.14017673321E+03  0.00000000000E+00 0. -1.
         -5    1    5    5    0  501 -0.86963838352E+02  0.22342134037E+02 -0.21779891952E+03  0.23562754398E+03  0.47000000000E+01 0.  1.
         11    1    6    6    0    0 -0.69036758994E+01 -0.78953990104E+00  0.95757319858E+01  0.11831261862E+02  0.00000000000E+00 0. -1.
        -12    1    6    6    0    0  0.40794463744E+02  0.66524861662E+01 -0.13492314940E+03  0.14111236689E+03  0.00000000000E+00 0.  1.
</event>
<event>
12    1  0.2614920E-002  0.2577021E+03  0.7818608E-02  0.1108532E+00
         -2   -1    0    0    0  501 -0.00000000000E+00  0.00000000000E+00  0.33762029418E+02  0.33762029418E+02  0.00000000000E+00 0. -1.
          2   -1    0    0  502    0  0.00000000000E+00 -0.00000000000E+00 -0.25956859153E+04  0.25956859153E+04  0.00000000000E+00 0.  1.
          6    2    1    2  502    0 -0.18581720967E+03 -0.52402021196E+02 -0.19275555626E+04  0.19446906957E+04  0.17052110578E+03 0.  0.
         24    2    3    3    0    0 -0.17826070494E+03  0.25371225739E+01 -0.16552648328E+04  0.16667703080E+04  0.80238876293E+02 0.  0.
         -6    2    1    2    0  501  0.18581720967E+03  0.52402021196E+02 -0.63436832326E+03  0.68475724907E+03  0.17086636111E+03 0.  0.
        -24    2    5    5    0    0  0.71245147524E+02 -0.10810686452E+02 -0.16268639588E+03  0.19523857276E+03  0.80364761577E+02 0.  0.
          5    1    3    3  502    0 -0.75565047382E+01 -0.54939143770E+02 -0.27229072986E+03  0.27792038761E+03  0.47000000000E+01 0. -1.
        -11    1    4    4    0    0 -0.14391363061E+03 -0.31128191173E+02 -0.12767112544E+04  0.12851738110E+04  0.00000000000E+00 0.  1.
         12    1    4    4    0    0 -0.34347074321E+02  0.33665313747E+02 -0.37855357839E+03  0.38159649707E+03  0.00000000000E+00 0. -1.
         -5    1    5    5    0  501  0.11457206215E+03  0.63212707648E+02 -0.47168192738E+03  0.48951867631E+03  0.47000000000E+01 0.  1.
         11    1    6    6    0    0  0.23012581327E+02  0.33799987926E+02 -0.47898924094E+02  0.62978766363E+02  0.00000000000E+00 0. -1.
        -12    1    6    6    0    0  0.48232566197E+02 -0.44610674379E+02 -0.11478747178E+03  0.13225980640E+03  0.00000000000E+00 0.  1.
</event>
<event>
12    1  0.2614920E-002  0.1793567E+03  0.7818608E-02  0.1168427E+00
         -2   -1    0    0    0  501 -0.00000000000E+00  0.00000000000E+00  0.43722627044E+02  0.43722627044E+02  0.00000000000E+00 0.  1.
          2   -1    0    0  502    0  0.00000000000E+00 -0.00000000000E+00 -0.75828491799E+03  0.75828491799E+03  0.00000000000E+00 0. -1.
          6    2    1    2  502    0  0.33986222043E+02 -0.41868600732E+02 -0.28732145197E+03  0.33847910402E+03  0.17060610799E+03 0.  0.
         24    2    3    3    0    0  0.20440518409E+02 -0.75872446002E+02 -0.27916155953E+03  0.30068464114E+03  0.79408023790E+02 0.  0.
         -6    2    1    2    0  501 -0.33986222043E+02  0.41868600732E+02 -0.42724083897E+03  0.46352844101E+03  0.17151046067E+03 0.  0.
        -24    2    5    5    0    0  0.12289372960E+02  0.40370541457E+02 -0.83236616077E+02  0.11639061500E+03  0.69553085474E+02 0.  0.
          5    1    3    3  502    0  0.13545703634E+02  0.34003845270E+02 -0.81598924396E+01  0.37794462885E+02  0.47000000000E+01 0. -1.
        -11    1    4    4    0    0  0.22002783614E+02  0.26647243837E+00 -0.17348881383E+02  0.28021013178E+02  0.00000000000E+00 0.  1.
         12    1    4    4    0    0 -0.15622652043E+01 -0.76138918441E+02 -0.26181267814E+03  0.27266362796E+03  0.00000000000E+00 0. -1.
         -5    1    5    5    0  501 -0.46275595003E+02  0.14980592747E+01 -0.34400422290E+03  0.34713782601E+03  0.47000000000E+01 0.  1.
         13    1    6    6    0    0 -0.74892818477E+01  0.35117812036E+02 -0.88289258636E+02  0.95311821173E+02  0.00000000000E+00 0. -1.
        -14    1    6    6    0    0  0.19778654808E+02  0.52527294216E+01  0.50526425595E+01  0.21078793827E+02  0.00000000000E+00 0.  1.
</event>
<event>
12    1  0.2614920E-002  0.1942449E+03  0.7818608E-02  0.1154687E+00
          2   -1    0    0  502    0  0.00000000000E+00  0.00000000000E+00  0.50144970223E+03  0.50144970223E+03  0.00000000000E+00 0.  1.
         -2   -1    0    0    0  501 -0.00000000000E+00 -0.00000000000E+00 -0.85711607545E+02  0.85711607545E+02  0.00000000000E+00 0. -1.
          6    2    1    2  502    0 -0.49281036904E+02  0.73218045233E+02  0.10438487833E+03  0.21967640383E+03  0.17196516168E+03 0.  0.
         24    2    3    3    0    0 -0.66049334047E+02 -0.98987704205E+01  0.40565271296E+02  0.11344734437E+03  0.82245112469E+02 0.  0.
         -6    2    1    2    0  501  0.49281036904E+02 -0.73218045233E+02  0.31135321636E+03  0.36748490594E+03  0.17411153899E+03 0.  0.
        -24    2    5    5    0    0 -0.27896888053E+02 -0.29328215492E+02  0.23139899300E+03  0.24791268053E+03  0.79226401041E+02 0.  0.
          5    1    3    3  502    0  0.16768297144E+02  0.83116815653E+02  0.63819607030E+02  0.10622905947E+03  0.47000000000E+01 0. -1.
        -11    1    4    4    0    0 -0.47908862091E+02  0.26682675126E+02  0.46860328102E+02  0.72132617923E+02  0.00000000000E+00 0.  1.
         12    1    4    4    0    0 -0.18140471957E+02 -0.36581445546E+02 -0.62950568057E+01  0.41314726445E+02  0.00000000000E+00 0. -1.
         -5    1    5    5    0  501  0.77177924957E+02 -0.43889829740E+02  0.79954223358E+02  0.11957222540E+03  0.47000000000E+01 0.  1.
         13    1    6    6    0    0  0.25821359959E+02  0.10018374842E+01  0.49522177852E+02  0.55858682474E+02  0.00000000000E+00 0. -1.
        -14    1    6    6    0    0 -0.53718248013E+02 -0.30330052977E+02  0.18187681515E+03  0.19205399806E+03  0.00000000000E+00 0.  1.
</event>
<event>
12    1  0.2614920E-002  0.2683334E+03  0.7818608E-02  0.1102237E+00
          1   -1    0    0  502    0  0.00000000000E+00  0.00000000000E+00  0.68358284692E+03  0.68358284692E+03  0.00000000000E+00 0. -1.
         -1   -1    0    0    0  501 -0.00000000000E+00 -0.00000000000E+00 -0.11382106062E+03  0.11382106062E+03  0.00000000000E+00 0.  1.
          6    2    1    2  502    0  0.31639844583E+02 -0.20331143157E+03  0.39375523259E+03  0.47648555468E+03  0.17221696390E+03 0.  0.
         24    2    3    3    0    0  0.63525894514E+02 -0.21160343865E+03  0.35566467288E+03  0.42590434967E+03  0.78010262185E+02 0.  0.
         -6    2    1    2    0  501 -0.31639844583E+02  0.20331143157E+03  0.17600655372E+03  0.32091835286E+03  0.17226045477E+03 0.  0.
        -24    2    5    5    0    0  0.53187238186E+01  0.22334032114E+02  0.51476787610E+02  0.98098902316E+02  0.80289707681E+02 0.  0.
          5    1    3    3  502    0 -0.31886049932E+02  0.82920070813E+01  0.38090559706E+02  0.50581205011E+02  0.47000000000E+01 0. -1.
        -11    1    4    4    0    0  0.26798018743E+02 -0.38223881301E+02  0.31062786001E+02  0.56072235415E+02  0.00000000000E+00 0.  1.
         12    1    4    4    0    0  0.36727875771E+02 -0.17337955735E+03  0.32460188688E+03  0.36983211425E+03  0.00000000000E+00 0. -1.
         -5    1    5    5    0  501 -0.36958568401E+02  0.18097739946E+03  0.12452976611E+03  0.22281945054E+03  0.47000000000E+01 0.  1.
         13    1    6    6    0    0  0.17443803154E+02 -0.75800826837E+01  0.61441307953E+02  0.64317791045E+02  0.00000000000E+00 0. -1.
        -14    1    6    6    0    0 -0.12125079335E+02  0.29914114798E+02 -0.99645203433E+01  0.33781111271E+02  0.00000000000E+00 0.  1.
</event>
<event>
12    1  0.2614920E-002  0.2204041E+03  0.7818608E-02  0.1133582E+00
          1   -1    0    0  502    0  0.00000000000E+00  0.00000000000E+00  0.27377922254E+04  0.27377922254E+04  0.00000000000E+00 0.  1.
         -1   -1    0    0    0  501 -0.00000000000E+00 -0.00000000000E+00 -0.19708605261E+02  0.19708605261E+02  0.00000000000E+00 0. -1.
          6    2    1    2  502    0 -0.22766441687E+02  0.13625359650E+03  0.17904228412E+04  0.18038510095E+04  0.17082494176E+03 0.  0.
         24    2    3    3    0    0  0.84480446335E+01  0.13770617111E+03  0.97185539380E+03  0.98467385522E+03  0.77751756806E+02 0.  0.
         -6    2    1    2    0  501  0.22766441687E+02 -0.13625359650E+03  0.92766077901E+03  0.95364982124E+03  0.17265603729E+03 0.  0.
        -24    2    5    5    0    0 -0.31477159066E+02 -0.14106508349E+03  0.76607727541E+03  0.78307187054E+03  0.73735969570E+02 0.  0.
          5    1    3    3  502    0 -0.31214486321E+02 -0.14525746073E+01  0.81856744738E+03  0.81917715424E+03  0.47000000000E+01 0. -1.
        -13    1    4    4    0    0  0.35324192781E+02  0.12223854057E+03  0.76600449294E+03  0.77650044597E+03  0.00000000000E+00 0.  1.
         14    1    4    4    0    0 -0.26876148147E+02  0.15467630541E+02  0.20585090086E+03  0.20817340925E+03  0.00000000000E+00 0. -1.
         -5    1    5    5    0  501  0.54243600753E+02  0.48114869853E+01  0.16158350360E+03  0.17057795070E+03  0.47000000000E+01 0.  1.
         11    1    6    6    0    0  0.81768009699E+01 -0.11327180825E+03  0.55708241983E+03  0.56854039883E+03  0.00000000000E+00 0. -1.
        -12    1    6    6    0    0 -0.39653960035E+02 -0.27793275240E+02  0.20899485558E+03  0.21453147171E+03  0.00000000000E+00 0.  1.
</event>
<event>
12    1  0.2614920E-002  0.2606117E+03  0.7818608E-02  0.1106776E+00
          1   -1    0    0  502    0  0.00000000000E+00  0.00000000000E+00  0.17152451708E+03  0.17152451708E+03  0.00000000000E+00 0. -1.
         -1   -1    0    0    0  501 -0.00000000000E+00 -0.00000000000E+00 -0.39816113629E+03  0.39816113629E+03  0.00000000000E+00 0.  1.
          6    2    1    2  502    0 -0.37643564586E+02 -0.19274090516E+03 -0.13443212548E+03  0.29319982413E+03  0.17125433142E+03 0.  0.
         24    2    3    3    0    0  0.32559979333E+02 -0.12309295650E+03 -0.12082804518E+03  0.19326717014E+03  0.80874930344E+02 0.  0.
         -6    2    1    2    0  501  0.37643564586E+02  0.19274090516E+03 -0.92204493731E+02  0.27648582925E+03  0.17139618034E+03 0.  0.
        -24    2    5    5    0    0  0.18877924608E+02  0.35440310815E+02  0.61624789079E+01  0.89954926900E+02  0.80259087081E+02 0.  0.
          5    1    3    3  502    0 -0.70203543919E+02 -0.69647948660E+02 -0.13604080302E+02  0.99932653983E+02  0.47000000000E+01 0. -1.
        -11    1    4    4    0    0 -0.16578547998E+02 -0.24667895831E+02 -0.61439663955E+02  0.68250902158E+02  0.00000000000E+00 0.  1.
         12    1    4    4    0    0  0.49138527331E+02 -0.98425060670E+02 -0.59388381227E+02  0.12501626799E+03  0.00000000000E+00 0. -1.
         -5    1    5    5    0  501  0.18765639978E+02  0.15730059435E+03 -0.98366972639E+02  0.18653090235E+03  0.47000000000E+01 0.  1.
         13    1    6    6    0    0  0.22322988886E+02  0.18657769337E+02  0.41500667451E+02  0.50682675426E+02  0.00000000000E+00 0. -1.
        -14    1    6    6    0    0 -0.34450642780E+01  0.16782541478E+02 -0.35338188543E+02  0.39272251474E+02  0.00000000000E+00 0.  1.
</event>
<event>
12    1  0.2614920E-002  0.2425587E+03  0.7818608E-02  0.1118100E+00
         -2   -1    0    0    0  501 -0.00000000000E+00  0.00000000000E+00  0.23073236031E+02  0.23073236031E+02  0.00000000000E+00 0. -1.
          2   -1    0    0  502    0  0.00000000000E+00 -0.00000000000E+00 -0.26721542736E+04  0.26721542736E+04  0.00000000000E+00 0.  1.
          6    2    1    2  502    0 -0.14736999404E+03  0.63555991672E+02 -0.16502773931E+04  0.16691823742E+04  0.19234615925E+03 0.  0.
         24    2    3    3    0    0 -0.11171277841E+03 -0.27770431869E+02 -0.69661791883E+03  0.71048511463E+03  0.79130471564E+02 0.  0.
         -6    2    1    2    0  501  0.14736999404E+03 -0.63555991672E+02 -0.99880364454E+03  0.10260451355E+04  0.17147192335E+03 0.  0.
        -24    2    5    5    0    0  0.43583767348E+02 -0.91809808681E+02 -0.49966083124E+03  0.51542247922E+03  0.75304714764E+02 0.  0.
          5    1    3    3  502    0 -0.35657215630E+02  0.91326423541E+02 -0.95365947423E+03  0.95869725954E+03  0.47000000000E+01 0. -1.
        -11    1    4    4    0    0  0.78067537455E+01 -0.93840617401E+01 -0.22413963349E+02  0.25522377863E+02  0.00000000000E+00 0.  1.
         12    1    4    4    0    0 -0.11951953215E+03 -0.18386370129E+02 -0.67420395548E+03  0.68496273677E+03  0.00000000000E+00 0. -1.
         -5    1    5    5    0  501  0.10378622669E+03  0.28253817009E+02 -0.49914281330E+03  0.51062265627E+03  0.47000000000E+01 0.  1.
         13    1    6    6    0    0 -0.21499024860E+02 -0.28339534090E+02 -0.13774703565E+03  0.14226588872E+03  0.00000000000E+00 0. -1.
        -14    1    6    6    0    0  0.65082792208E+02 -0.63470274591E+02 -0.36191379558E+03  0.37315659050E+03  0.00000000000E+00 0.  1.
</event>
<event>
12    1  0.2614920E-002  0.2577599E+03  0.7818608E-02  0.1108497E+00
         -1   -1    0    0    0  501 -0.00000000000E+00  0.00000000000E+00  0.15146431642E+03  0.15146431642E+03  0.00000000000E+00 0.  1.
          1   -1    0    0  502    0  0.00000000000E+00 -0.00000000000E+00 -0.98597497279E+03  0.98597497279E+03  0.00000000000E+00 0. -1.
          6    2    1    2  502    0 -0.14351583961E+03  0.12978984251E+03 -0.84016356055E+03  0.87848417584E+03  0.16857472908E+03 0.  0.
         24    2    3    3    0    0 -0.11361998251E+03  0.12282637314E+03 -0.82186659774E+03  0.84244085432E+03  0.79032083311E+02 0.  0.
         -6    2    1    2    0  501  0.14351583961E+03 -0.12978984251E+03  0.56529041678E+01  0.25895511337E+03  0.17199882552E+03 0.  0.
        -24    2    5    5    0    0  0.81500284295E+02 -0.15221479461E+03  0.19466940594E+02  0.19141456866E+03  0.80305263079E+02 0.  0.
          5    1    3    3  502    0 -0.29895857104E+02  0.69634693667E+01 -0.18296962810E+02  0.36043321513E+02  0.47000000000E+01 0. -1.
        -11    1    4    4    0    0  0.76194725314E+01  0.14750397168E+02 -0.32020819852E+02  0.36068871375E+02  0.00000000000E+00 0.  1.
         12    1    4    4    0    0 -0.12123945504E+03  0.10807597597E+03 -0.78984577789E+03  0.80637198295E+03  0.00000000000E+00 0. -1.
         -5    1    5    5    0  501  0.62015555317E+02  0.22424952108E+02 -0.13814036427E+02  0.67540544717E+02  0.47000000000E+01 0.  1.
         13    1    6    6    0    0 -0.14125167885E+02 -0.73939869240E+01 -0.36004724707E+01  0.16344871135E+02  0.00000000000E+00 0. -1.
        -14    1    6    6    0    0  0.95625452180E+02 -0.14482080769E+03  0.23067413065E+02  0.17506969752E+03  0.00000000000E+00 0.  1.
</event>
<event>
12    1  0.2614920E-002  0.1898061E+03  0.7818608E-02  0.1158636E+00
          2   -1    0    0  502    0  0.00000000000E+00  0.00000000000E+00  0.12986916421E+04  0.12986916421E+04  0.00000000000E+00 0.  1.
         -2   -1    0    0    0  501 -0.00000000000E+00 -0.00000000000E+00 -0.27806348524E+02  0.27806348524E+02  0.00000000000E+00 0. -1.
          6    2    1    2  502    0 -0.67022210425E+02 -0.48952058141E+02  0.66291500537E+03  0.68918727387E+03  0.16921735561E+03 0.  0.
         24    2    3    3    0    0 -0.13675659952E+02 -0.72818034408E+02  0.56181852806E+03  0.57231971210E+03  0.80126803103E+02 0.  0.
         -6    2    1    2    0  501  0.67022210425E+02  0.48952058141E+02  0.60797028825E+03  0.63731071679E+03  0.17218826226E+03 0.  0.
        -24    2    5    5    0    0  0.83382852713E+01  0.85593363735E+02  0.44418162495E+03  0.45944783541E+03  0.79995291154E+02 0.  0.
          5    1    3    3  502    0 -0.53346550473E+02  0.23865976267E+02  0.10109647731E+03  0.11686756177E+03  0.47000000000E+01 0. -1.
        -13    1    4    4    0    0 -0.15306278884E+02  0.14503173903E+02  0.85600496634E+02  0.88159340120E+02  0.00000000000E+00 0.  1.
         14    1    4    4    0    0  0.16306189325E+01 -0.87321208310E+02  0.47621803143E+03  0.48416037198E+03  0.00000000000E+00 0. -1.
         -5    1    5    5    0  501  0.58683925154E+02 -0.36641305594E+02  0.16378866330E+03  0.17786288138E+03  0.47000000000E+01 0.  1.
         13    1    6    6    0    0  0.12241141420E+02 -0.31545499743E+00  0.74579067933E+01  0.14337553099E+02  0.00000000000E+00 0. -1.
        -14    1    6    6    0    0 -0.39028561491E+01  0.85908818732E+02  0.43672371815E+03  0.44511028231E+03  0.00000000000E+00 0.  1.
</event>
<event>
12    1  0.2614920E-002  0.1979102E+03  0.7818608E-02  0.1151514E+00
         -2   -1    0    0    0  501 -0.00000000000E+00  0.00000000000E+00  0.42067841497E+02  0.42067841497E+02  0.00000000000E+00 0. -1.
          2   -1    0    0  502    0  0.00000000000E+00 -0.00000000000E+00 -0.10562095220E+04  0.10562095220E+04  0.00000000000E+00 0.  1.
          6    2    1    2  502    0  0.93037734738E+02 -0.19933775791E+02 -0.69256862590E+03  0.71987273840E+03  0.17179081004E+03 0.  0.
         24    2    3    3    0    0  0.93348348261E+02 -0.66140714382E+02 -0.59980850026E+03  0.61613408329E+03  0.82234198439E+02 0.  0.
         -6    2    1    2    0  501 -0.93037734738E+02  0.19933775791E+02 -0.32157305459E+03  0.37840462508E+03  0.17529248513E+03 0.  0.
        -24    2    5    5    0    0  0.84755883914E+01  0.95648394962E+01 -0.44458155536E+02  0.83062066531E+02  0.68988821918E+02 0.  0.
          5    1    3    3  502    0 -0.31061352320E+00  0.46206938592E+02 -0.92760125638E+02  0.10373865511E+03  0.47000000000E+01 0. -1.
        -13    1    4    4    0    0 -0.89121670595E+01 -0.14914231390E+02 -0.18602169598E+03  0.18683129394E+03  0.00000000000E+00 0.  1.
         14    1    4    4    0    0  0.10226051532E+03 -0.51226482992E+02 -0.41378680427E+03  0.42930278935E+03  0.00000000000E+00 0. -1.
         -5    1    5    5    0  501 -0.10151332313E+03  0.10368936294E+02 -0.27711489906E+03  0.29534255855E+03  0.47000000000E+01 0.  1.
         11    1    6    6    0    0 -0.11390796144E+02 -0.20406167390E+01  0.15209982540E+02  0.19111722119E+02  0.00000000000E+00 0. -1.
        -12    1    6    6    0    0  0.19866384536E+02  0.11605456235E+02 -0.59668138076E+02  0.63950344412E+02  0.00000000000E+00 0.  1.
</event>
<event>
12    1  0.2614920E-002  0.2124973E+03  0.7818608E-02  0.1139603E+00
         -1   -1    0    0    0  501 -0.00000000000E+00  0.00000000000E+00  0.93744656662E+03  0.93744656662E+03  0.00000000000E+00 0.  1.
          1   -1    0    0  502    0  0.00000000000E+00 -0.00000000000E+00 -0.48628802770E+02  0.48628802770E+02  0.00000000000E+00 0. -1.
          6    2    1    2  502    0 -0.23101693636E+02 -0.12157826524E+03  0.39844412929E+03  0.45201599341E+03  0.17391311424E+03 0.  0.
         24    2    3    3    0    0 -0.81637295895E+02 -0.52936632121E+02  0.22102404621E+03  0.25292288351E+03  0.75175932979E+02 0.  0.
         -6    2    1    2    0  501  0.23101693636E+02  0.12157826524E+03  0.49037363457E+03  0.53405937599E+03  0.17157550167E+03 0.  0.
        -24    2    5    5    0    0  0.38369146127E+02 -0.53188902850E+00  0.21126344024E+03  0.22898794917E+03  0.79566107128E+02 0.  0.
          5    1    3    3  502    0  0.58535602259E+02 -0.68641633121E+02  0.17742008308E+03  0.19909310990E+03  0.47000000000E+01 0. -1.
        -11    1    4    4    0    0 -0.60233249686E+02 -0.30858415916E+01  0.16145273304E+03  0.17235008498E+03  0.00000000000E+00 0.  1.
         12    1    4    4    0    0 -0.21404046210E+02 -0.49850790529E+02  0.59571313168E+02  0.80572798530E+02  0.00000000000E+00 0. -1.
         -5    1    5    5    0  501 -0.15267452491E+02  0.12211015427E+03  0.27911019433E+03  0.30507142682E+03  0.47000000000E+01 0.  1.
         11    1    6    6    0    0 -0.15769192094E+02  0.20420004889E+02  0.35492894049E+02  0.43879261012E+02  0.00000000000E+00 0. -1.
        -12    1    6    6    0    0  0.54138338221E+02 -0.20951893918E+02  0.17577054619E+03  0.18510868816E+03  0.00000000000E+00 0.  1.
</event>
<event>
12    1  0.2614920E-002  0.2384405E+03  0.7818608E-02  0.1120836E+00
          1   -1    0    0  502    0  0.00000000000E+00  0.00000000000E+00  0.83716656665E+03  0.83716656665E+03  0.00000000000E+00 0.  1.
         -1   -1    0    0    0  501 -0.00000000000E+00 -0.00000000000E+00 -0.16845864121E+03  0.16845864121E+03  0.00000000000E+00 0. -1.
          6    2    1    2  502    0  0.15369448840E+03  0.60636901722E+02 -0.54748484311E+02  0.24352649845E+03  0.17032007897E+03 0.  0.
         24    2    3    3    0    0  0.65799646021E+02  0.96734110378E+02 -0.41801564250E+02  0.14751491307E+03  0.79537395455E+02 0.  0.
         -6    2    1    2    0  501 -0.15369448840E+03 -0.60636901722E+02  0.72345640974E+03  0.76209870941E+03  0.17351206434E+03 0.  0.
        -24    2    5    5    0    0 -0.12025245028E+03 -0.90083342553E+02  0.39178697573E+03  0.42741652248E+03  0.81315367124E+02 0.  0.
          5    1    3    3  502    0  0.87894842376E+02 -0.36097208656E+02 -0.12946920061E+02  0.96011585385E+02  0.47000000000E+01 0. -1.
        -11    1    4    4    0    0  0.38026413715E+02  0.75010976708E+02  0.10169534109E+02  0.84711712240E+02  0.00000000000E+00 0.  1.
         12    1    4    4    0    0  0.27773232306E+02  0.21723133671E+02 -0.51971098359E+02  0.62803200825E+02  0.00000000000E+00 0. -1.
         -5    1    5    5    0  501 -0.33442038113E+02  0.29446440831E+02  0.33166943401E+03  0.33468218693E+03  0.47000000000E+01 0.  1.
         11    1    6    6    0    0 -0.58596272925E+01 -0.28594351471E+01 -0.30443012911E+01  0.71957884709E+01  0.00000000000E+00 0. -1.
        -12    1    6    6    0    0 -0.11439282299E+03 -0.87223907406E+02  0.39483127702E+03  0.42022073401E+03  0.00000000000E+00 0.  1.
</event>
<event>
12    1  0.2614920E-002  0.1805051E+03  0.7818608E-02  0.1167315E+00
         -2   -1    0    0    0  501 -0.00000000000E+00  0.00000000000E+00  0.28120687919E+02  0.28120687919E+02  0.00000000000E+00 0.  1.
          2   -1    0    0  502    0  0.00000000000E+00 -0.00000000000E+00 -0.20285494133E+04  0.20285494133E+04  0.00000000000E+00 0. -1.
          6    2    1    2  502    0  0.48794969379E+02 -0.22124272046E+02 -0.32280216134E+03  0.36922320271E+03  0.17103831619E+03 0.  0.
         24    2    3    3    0    0 -0.85535981506E+01 -0.18318987111E+02 -0.64784783118E+02  0.10484015512E+03  0.79910203798E+02 0.  0.
         -6    2    1    2    0  501 -0.48794969379E+02  0.22124272046E+02 -0.16776265640E+04  0.16874468985E+04  0.17371158411E+03 0.  0.
        -24    2    5    5    0    0 -0.74827546567E+02  0.23792475898E+02 -0.16211242487E+04  0.16250363256E+04  0.80833074604E+02 0.  0.
          5    1    3    3  502    0  0.57348567530E+02 -0.38052849347E+01 -0.25801737822E+03  0.26438304759E+03  0.47000000000E+01 0. -1.
        -11    1    4    4    0    0 -0.16253814355E+02  0.29613048672E+02 -0.24044194778E+02  0.41463748447E+02  0.00000000000E+00 0.  1.
         12    1    4    4    0    0  0.77002162048E+01 -0.47932035784E+02 -0.40740588340E+02  0.63376406669E+02  0.00000000000E+00 0. -1.
         -5    1    5    5    0  501  0.26032577187E+02 -0.16682038524E+01 -0.56502315275E+02  0.62410572907E+02  0.47000000000E+01 0.  1.
         11    1    6    6    0    0 -0.35639099489E+02  0.48942687784E+02 -0.11567438445E+04  0.11583271791E+04  0.00000000000E+00 0. -1.
        -12    1    6    6    0    0 -0.39188447078E+02 -0.25150211886E+02 -0.46438040427E+03  0.46670914648E+03  0.00000000000E+00 0.  1.
</event>
<event>
12    1  0.2614920E-002  0.1848892E+03  0.7818608E-02  0.1163153E+00
         -1   -1    0    0    0  501 -0.00000000000E+00  0.00000000000E+00  0.58842519728E+02  0.58842519728E+02  0.00000000000E+00 0. -1.
          1   -1    0    0  502    0  0.00000000000E+00 -0.00000000000E+00 -0.58171458560E+03  0.58171458560E+03  0.00000000000E+00 0.  1.
          6    2    1    2  502    0  0.58415662111E+02 -0.17131460242E+02 -0.27073082400E+03  0.32700668064E+03  0.17300957665E+03 0.  0.
         24    2    3    3    0    0  0.10233442069E+03  0.93902084995E+01 -0.21115095287E+03  0.24824052477E+03  0.80486791257E+02 0.  0.
         -6    2    1    2    0  501 -0.58415662111E+02  0.17131460242E+02 -0.25214124187E+03  0.31355042468E+03  0.17616125129E+03 0.  0.
        -24    2    5    5    0    0 -0.73535945535E+02  0.64611468367E+02 -0.21991530314E+03  0.25402248780E+03  0.81132648318E+02 0.  0.
          5    1    3    3  502    0 -0.43918758576E+02 -0.26521668742E+02 -0.59579871129E+02  0.78766155876E+02  0.47000000000E+01 0. -1.
        -13    1    4    4    0    0  0.30930253107E+02 -0.34512180465E+02 -0.66439910019E+02  0.81006375064E+02  0.00000000000E+00 0.  1.
         14    1    4    4    0    0  0.71404167580E+02  0.43902388964E+02 -0.14471104285E+03  0.16723414970E+03  0.00000000000E+00 0. -1.
         -5    1    5    5    0  501  0.15120283424E+02 -0.47480008125E+02 -0.32225938738E+02  0.59527936886E+02  0.47000000000E+01 0.  1.
         11    1    6    6    0    0 -0.79884413737E+02  0.35757557620E+02 -0.20022500684E+03  0.21851813620E+03  0.00000000000E+00 0. -1.
        -12    1    6    6    0    0  0.63484682023E+01  0.28853910747E+02 -0.19690296294E+02  0.35504351593E+02  0.00000000000E+00 0.  1.
</event>
<event>
12    1  0.2614920E-002  0.1909209E+03  0.7818608E-02  0.1157633E+00
          2   -1    0    0  502    0  0.00000000000E+00  0.00000000000E+00  0.15368669719E+04  0.15368669719E+04  0.00000000000E+00 0. -1.
         -2   -1    0    0    0  501 -0.00000000000E+00 -0.00000000000E+00 -0.25990874687E+02  0.25990874687E+02  0.00000000000E+00 0.  1.
          6    2    1    2  502    0 -0.69368196631E+02  0.45851108900E+02  0.98576078924E+03  0.10040382781E+04  0.17162243241E+03 0.  0.
         24    2    3    3    0    0  0.23744940223E+02  0.32535566965E+01  0.37814440248E+03  0.38783671106E+03  0.82763020132E+02 0.  0.
         -6    2    1    2    0  501  0.69368196631E+02 -0.45851108900E+02  0.52511530799E+03  0.55881956855E+03  0.17210157645E+03 0.  0.
        -24    2    5    5    0    0  0.47115191879E+02 -0.43689002826E+02  0.52631130340E+03  0.53594182111E+03  0.78111953293E+02 0.  0.
          5    1    3    3  502    0 -0.93113136854E+02  0.42597552203E+02  0.60761638675E+03  0.61620156699E+03  0.47000000000E+01 0. -1.
        -13    1    4    4    0    0  0.22404512557E+02  0.16909788199E+02  0.37128802242E+02  0.46545150937E+02  0.00000000000E+00 0.  1.
         14    1    4    4    0    0  0.13404276660E+01 -0.13656231502E+02  0.34101560024E+03  0.34129156013E+03  0.00000000000E+00 0. -1.
         -5    1    5    5    0  501  0.22253004751E+02 -0.21621060739E+01 -0.11959954092E+01  0.22877747445E+02  0.47000000000E+01 0.  1.
         11    1    6    6    0    0  0.49349205292E+02 -0.20824684916E+02  0.49036349544E+03  0.49328021370E+03  0.00000000000E+00 0. -1.
        -12    1    6    6    0    0 -0.22340134123E+01 -0.22864317909E+02  0.35947807962E+02  0.42661607408E+02  0.00000000000E+00 0.  1.
</event>
<event>
12    1  0.2614920E-002  0.1942165E+03  0.7818608E-02  0.1154712E+00
         -4   -1    0    0    0  501 -0.00000000000E+00  0.00000000000E+00  0.35540088957E+02  0.35540088957E+02  0.00000000000E+00 0.  1.
          4   -1    0    0  502    0  0.00000000000E+00 -0.00000000000E+00 -0.12915552940E+04  0.12915552940E+04  0.00000000000E+00 0. -1.
          6    2    1    2  502    0  0.62922520832E+02  0.63238510161E+02 -0.90877256765E+03  0.92934300570E+03  0.17277873057E+03 0.  0.
         24    2    3    3    0    0 -0.43741239967E+01  0.25061684156E+02 -0.72633084225E+03  0.73111742305E+03  0.79554842198E+02 0.  0.
         -6    2    1    2    0  501 -0.62922520832E+02 -0.63238510161E+02 -0.34724263737E+03  0.39775237724E+03  0.17225316134E+03 0.  0.
        -24    2    5    5    0    0  0.31311317315E+02 -0.25518226717E+02 -0.17894495615E+03  0.20115879763E+03  0.82534756604E+02 0.  0.
          5    1    3    3  502    0  0.67296644829E+02  0.38176826005E+02 -0.18244172540E+03  0.19822558265E+03  0.47000000000E+01 0. -1.
        -11    1    4    4    0    0 -0.41773789212E+02  0.87438763571E+01 -0.38262719687E+03  0.38500009952E+03  0.00000000000E+00 0.  1.
         12    1    4    4    0    0  0.37399665215E+02  0.16317807799E+02 -0.34370364538E+03  0.34611732354E+03  0.00000000000E+00 0. -1.
         -5    1    5    5    0  501 -0.94233838147E+02 -0.37720283443E+02 -0.16829768123E+03  0.19659357960E+03  0.47000000000E+01 0.  1.
         11    1    6    6    0    0 -0.13090234018E+02 -0.35287995726E+01 -0.13267348788E+03  0.13336439194E+03  0.00000000000E+00 0. -1.
        -12    1    6    6    0    0  0.44401551332E+02 -0.21989427145E+02 -0.46271468272E+02  0.67794405690E+02  0.00000000000E+00 0.  1.
</event>
<event>
12    1  0.2614920E-002  0.1765263E+03  0.7818608E-02  0.1171208E+00
          1   -1    0    0  502    0  0.00000000000E+00  0.00000000000E+00  0.33067124272E+03  0.33067124272E+03  0.00000000000E+00 0.  1.
         -1   -1    0    0    0  501 -0.00000000000E+00 -0.00000000000E+00 -0.94243578124E+02  0.94243578124E+02  0.00000000000E+00 0. -1.
          6    2    1    2  502    0 -0.42075425343E+02  0.65661080755E+01  0.11999826999E+03  0.21350063676E+03  0.17137526631E+03 0.  0.
         24    2    3    3    0    0 -0.62006655248E+02  0.39125461982E+02  0.13486192780E+03  0.17226492680E+03  0.78178247409E+02 0.  0.
         -6    2    1    2    0  501  0.42075425343E+02 -0.65661080755E+01  0.11642939460E+03  0.21141418409E+03  0.17125039595E+03 0.  0.
        -24    2    5    5    0    0  0.29831557043E+02 -0.69065070566E+02  0.54591215650E+02  0.12252052290E+03  0.79819621251E+02 0.  0.
          5    1    3    3  502    0  0.19931229905E+02 -0.32559353907E+02 -0.14863657801E+02  0.41235709956E+02  0.47000000000E+01 0. -1.
        -11    1    4    4    0    0 -0.55074892061E+02 -0.11277087160E+02  0.74214497783E+02  0.93103212144E+02  0.00000000000E+00 0.  1.
         12    1    4    4    0    0 -0.69317631871E+01  0.50402549142E+02  0.60647430013E+02  0.79161714661E+02  0.00000000000E+00 0. -1.
         -5    1    5    5    0  501  0.12243868300E+02  0.62498962491E+02  0.61838178954E+02  0.88893661190E+02  0.47000000000E+01 0.  1.
         11    1    6    6    0    0 -0.18281888896E+02 -0.50324012575E+02  0.10367927940E+02  0.54536479837E+02  0.00000000000E+00 0. -1.
        -12    1    6    6    0    0  0.48113445939E+02 -0.18741057991E+02  0.44223287710E+02  0.67984043059E+02  0.00000000000E+00 0.  1.
</event>
<event>
12    1  0.2614920E-002  0.1855290E+03  0.7818608E-02  0.1162557E+00
          2   -1    0    0  502    0  0.00000000000E+00  0.00000000000E+00  0.66415527588E+03  0.66415527588E+03  0.00000000000E+00 0.  1.
         -2   -1    0    0    0  501 -0.00000000000E+00 -0.00000000000E+00 -0.75559346412E+02  0.75559346412E+02  0.00000000000E+00 0. -1.
          6    2    1    2  502    0  0.15768818918E+02  0.62920001850E+02  0.49958624539E+03  0.53230018252E+03  0.17189963770E+03 0.  0.
         24    2    3    3    0    0  0.46926038623E+02  0.93116456215E+02  0.29267164344E+03  0.32083306759E+03  0.80027738101E+02 0.  0.
         -6    2    1    2    0  501 -0.15768818918E+02 -0.62920001850E+02  0.89009684078E+02  0.20741443978E+03  0.17575677422E+03 0.  0.
        -24    2    5    5    0    0 -0.63143193571E+02 -0.57324580974E+02  0.10618507251E+03  0.15649564092E+03  0.77087259165E+02 0.  0.
          5    1    3    3  502    0 -0.31157219706E+02 -0.30196454365E+02  0.20691460195E+03  0.21146711493E+03  0.47000000000E+01 0. -1.
        -13    1    4    4    0    0 -0.19233580844E+02  0.21109842371E+02  0.10986680659E+03  0.11351771345E+03  0.00000000000E+00 0.  1.
         14    1    4    4    0    0  0.66159619467E+02  0.72006613844E+02  0.18280483686E+03  0.20731535414E+03  0.00000000000E+00 0. -1.
         -5    1    5    5    0  501  0.47374374654E+02 -0.55954208761E+01 -0.17175388435E+02  0.50918798852E+02  0.47000000000E+01 0.  1.
         11    1    6    6    0    0 -0.67755418255E+01 -0.27283460358E+02 -0.47264900507E+01  0.28506751557E+02  0.00000000000E+00 0. -1.
        -12    1    6    6    0    0 -0.56367651746E+02 -0.30041120616E+02  0.11091156256E+03  0.12798888937E+03  0.00000000000E+00 0.  1.
</event>
<event>
12    1  0.2614920E-002  0.2158556E+03  0.7818608E-02  0.1137011E+00
          2   -1    0    0  502    0  0.00000000000E+00  0.00000000000E+00  0.12960851206E+04  0.12960851206E+04  0.00000000000E+00 0. -1.
         -2   -1    0    0    0  501 -0.00000000000E+00 -0.00000000000E+00 -0.12732462796E+03  0.12732462796E+03  0.00000000000E+00 0.  1.
          6    2    1    2  502    0 -0.20374731726E+02 -0.12766405574E+03  0.11868946448E+04  0.12062695799E+04  0.17220383429E+03 0.  0.
         24    2    3    3    0    0  0.33586604792E+02 -0.13091728728E+03  0.96912484885E+03  0.98184100905E+03  0.80878911089E+02 0.  0.
         -6    2    1    2    0  501  0.20374731726E+02  0.12766405574E+03 -0.18134152156E+02  0.21714016875E+03  0.17351589146E+03 0.  0.
        -24    2    5    5    0    0 -0.10502510226E+02  0.46404995127E+02 -0.60187402879E+02  0.12046025926E+03  0.92867778598E+02 0.  0.
          5    1    3    3  502    0 -0.53961336518E+02  0.32532315459E+01  0.21776979598E+03  0.22442857081E+03  0.47000000000E+01 0. -1.
        -13    1    4    4    0    0  0.47339440039E+02 -0.12573886704E+03  0.72971989721E+03  0.74198545380E+03  0.00000000000E+00 0.  1.
         14    1    4    4    0    0 -0.13752835248E+02 -0.51784202473E+01  0.23940495164E+03  0.23985555524E+03  0.00000000000E+00 0. -1.
         -5    1    5    5    0  501  0.30877241953E+02  0.81259060610E+02  0.42053250723E+02  0.96679909486E+02  0.47000000000E+01 0.  1.
         13    1    6    6    0    0 -0.11976284322E+02 -0.27130691753E+02 -0.25625646969E+02  0.39194127159E+02  0.00000000000E+00 0. -1.
        -14    1    6    6    0    0  0.14737740954E+01  0.73535686880E+02 -0.34561755910E+02  0.81266132100E+02  0.00000000000E+00 0.  1.
</event>
<event>
12    1  0.2614920E-002  0.2596994E+03  0.7818608E-02  0.1107324E+00
         -1   -1    0    0    0  501 -0.00000000000E+00  0.00000000000E+00  0.14923882664E+03  0.14923882664E+03  0.00000000000E+00 0.  1.
          1   -1    0    0  502    0  0.00000000000E+00 -0.00000000000E+00 -0.68888073608E+03  0.68888073608E+03  0.00000000000E+00 0. -1.
          6    2    1    2  502    0 -0.97154103059E+02 -0.16794857587E+03 -0.24544681972E+02  0.26158735730E+03  0.17372351657E+03 0.  0.
         24    2    3    3    0    0 -0.36043029901E+00 -0.15883319043E+02  0.90101263159E+01  0.78172874289E+02  0.76009250520E+02 0.  0.
         -6    2    1    2    0  501  0.97154103059E+02  0.16794857587E+03 -0.51509722746E+03  0.57653220541E+03  0.17151847208E+03 0.  0.
        -24    2    5    5    0    0  0.16163120790E+02  0.63164388067E+02 -0.34980248714E+03  0.36467445502E+03  0.79841666725E+02 0.  0.
          5    1    3    3  502    0 -0.96793672760E+02 -0.15206525682E+03 -0.33554808288E+02  0.18341448301E+03  0.47000000000E+01 0. -1.
        -13    1    4    4    0    0 -0.32948076925E+01 -0.46045858542E+01  0.42416125137E+02  0.42792354928E+02  0.00000000000E+00 0.  1.
         14    1    4    4    0    0  0.29343773935E+01 -0.11278733189E+02 -0.33405998821E+02  0.35380519361E+02  0.00000000000E+00 0. -1.
         -5    1    5    5    0  501  0.80990982269E+02  0.10478418780E+03 -0.16529474033E+03  0.21185775039E+03  0.47000000000E+01 0.  1.
         13    1    6    6    0    0  0.47196844269E+01  0.76144066885E+02 -0.20311383644E+03  0.21696871870E+03  0.00000000000E+00 0. -1.
        -14    1    6    6    0    0  0.11443436363E+02 -0.12979678818E+02 -0.14668865070E+03  0.14770573632E+03  0.00000000000E+00 0.  1.
</event>
<event>
12    1  0.2614920E-002  0.2005356E+03  0.7818608E-02  0.1149288E+00
          2   -1    0    0  502    0  0.00000000000E+00  0.00000000000E+00  0.16291686922E+03  0.16291686922E+03  0.00000000000E+00 0. -1.
         -2   -1    0    0    0  501 -0.00000000000E+00 -0.00000000000E+00 -0.27862440600E+03  0.27862440600E+03  0.00000000000E+00 0.  1.
          6    2    1    2  502    0 -0.53788044391E+02 -0.86938846729E+02 -0.13286605796E+03  0.24211706806E+03  0.17468763120E+03 0.  0.
         24    2    3    3    0    0 -0.35270364488E+02 -0.91003728872E+02 -0.16263942262E+03  0.20650848792E+03  0.81660862810E+02 0.  0.
         -6    2    1    2    0  501  0.53788044391E+02  0.86938846729E+02  0.17158521183E+02  0.19942420717E+03  0.17036455842E+03 0.  0.
        -24    2    5    5    0    0  0.51768309750E+02  0.81788744245E+02 -0.48613083039E+02  0.13325324068E+03  0.77613386285E+02 0.  0.
          5    1    3    3  502    0 -0.18517679903E+02  0.40648821426E+01  0.29773364659E+02  0.35608580131E+02  0.47000000000E+01 0. -1.
        -13    1    4    4    0    0 -0.60847752079E+02 -0.63805081979E+02 -0.12901164569E+03  0.15626113446E+03  0.00000000000E+00 0.  1.
         14    1    4    4    0    0  0.25577387591E+02 -0.27198646893E+02 -0.33627776931E+02  0.50247353464E+02  0.00000000000E+00 0. -1.
         -5    1    5    5    0  501  0.20197346418E+01  0.51501024846E+01  0.65771604223E+02  0.66170966486E+02  0.47000000000E+01 0.  1.
         13    1    6    6    0    0  0.47224236175E+02  0.33881527769E+02  0.83126222392E+01  0.58712742184E+02  0.00000000000E+00 0. -1.
        -14    1    6    6    0    0  0.45440735743E+01  0.47907216476E+02 -0.56925705279E+02  0.74540498500E+02  0.00000000000E+00 0.  1.
</event>
<event>
12    1  0.2614920E-002  0.1967494E+03  0.7818608E-02  0.1152511E+00
         -1   -1    0    0    0  501 -0.00000000000E+00  0.00000000000E+00  0.21500435238E+03  0.21500435238E+03  0.00000000000E+00 0. -1.
          1   -1    0    0  502    0  0.00000000000E+00 -0.00000000000E+00 -0.18432311090E+03  0.18432311090E+03  0.00000000000E+00 0.  1.
          6    2    1    2  502    0 -0.54684275013E+02 -0.80011962648E+02  0.45777221937E+02  0.20221770437E+03  0.17147641766E+03 0.  0.
         24    2    3    3    0    0 -0.53345003984E+02 -0.82196198964E+02 -0.27517205641E+02  0.12872806123E+03  0.78815052928E+02 0.  0.
         -6    2    1    2    0  501  0.54684275013E+02  0.80011962648E+02 -0.15095980457E+02  0.19710975891E+03  0.17097392881E+03 0.  0.
        -24    2    5    5    0    0  0.53975406514E+02  0.54974056552E+02  0.52476070380E+02  0.12489153898E+03  0.83118392331E+02 0.  0.
          5    1    3    3  502    0 -0.13392710292E+01  0.21842363160E+01  0.73294427578E+02  0.73489643142E+02  0.47000000000E+01 0. -1.
        -13    1    4    4    0    0  0.13817938614E+02 -0.43066211580E+02  0.27511814535E+01  0.45312283178E+02  0.00000000000E+00 0.  1.
         14    1    4    4    0    0 -0.67162942597E+02 -0.39129987384E+02 -0.30268387095E+02  0.83415778054E+02  0.00000000000E+00 0. -1.
         -5    1    5    5    0  501  0.70886849843E+00  0.25037906096E+02 -0.67572050837E+02  0.72218219935E+02  0.47000000000E+01 0.  1.
         13    1    6    6    0    0 -0.17422582261E+02 -0.58596139140E+01  0.23295850669E+01  0.18528583714E+02  0.00000000000E+00 0. -1.
        -14    1    6    6    0    0  0.71397988775E+02  0.60833670466E+02  0.50146485313E+02  0.10636295526E+03  0.00000000000E+00 0.  1.
</event>
<event>
12    1  0.2614920E-002  0.2384849E+03  0.7818608E-02  0.1120806E+00
         -2   -1    0    0    0  501 -0.00000000000E+00  0.00000000000E+00  0.59478587682E+02  0.59478587682E+02  0.00000000000E+00 0. -1.
          2   -1    0    0  502    0  0.00000000000E+00 -0.00000000000E+00 -0.10606994115E+04  0.10606994115E+04  0.00000000000E+00 0.  1.
          6    2    1    2  502    0 -0.14770021969E+03  0.71369279856E+02 -0.67324000308E+03  0.71368752571E+03  0.17084745710E+03 0.  0.
         24    2    3    3    0    0 -0.16833003314E+03  0.90999210081E+02 -0.57317221964E+03  0.60954063595E+03  0.79984606102E+02 0.  0.
         -6    2    1    2    0  501  0.14770021969E+03 -0.71369279856E+02 -0.32798082073E+03  0.40649047347E+03  0.17536863246E+03 0.  0.
        -24    2    5    5    0    0  0.13821745079E+03 -0.34813029507E+02 -0.14324649329E+03  0.21787673038E+03  0.81453674412E+02 0.  0.
          5    1    3    3  502    0  0.20629813452E+02 -0.19629930224E+02 -0.10006778344E+03  0.10414688976E+03  0.47000000000E+01 0. -1.
        -13    1    4    4    0    0 -0.11388823600E+03  0.58641990165E+02 -0.48059175905E+03  0.49737094022E+03  0.00000000000E+00 0.  1.
         14    1    4    4    0    0 -0.54441797141E+02  0.32357219915E+02 -0.92580460591E+02  0.11216969573E+03  0.00000000000E+00 0. -1.
         -5    1    5    5    0  501  0.94827688966E+01 -0.36556250349E+02 -0.18473432744E+03  0.18861374309E+03  0.47000000000E+01 0.  1.
         11    1    6    6    0    0  0.39705439113E+02 -0.49192837213E+02 -0.42092881142E+02  0.75949113036E+02  0.00000000000E+00 0. -1.
        -12    1    6    6    0    0  0.98512011679E+02  0.14379807706E+02 -0.10115361215E+03  0.14192761734E+03  0.00000000000E+00 0.  1.
</event>
<event>
12    1  0.2614920E-002  0.1764613E+03  0.7818608E-02  0.1171272E+00
         -2   -1    0    0    0  501 -0.00000000000E+00  0.00000000000E+00  0.11864781434E+03  0.11864781434E+03  0.00000000000E+00 0. -1.
          2   -1    0    0  502    0  0.00000000000E+00 -0.00000000000E+00 -0.18382629952E+04  0.18382629952E+04  0.00000000000E+00 0.  1.
          6    2    1    2  502    0 -0.11802034633E+02 -0.47096259483E+01  0.49232288520E+02  0.17881242934E+03  0.17143103002E+03 0.  0.
         24    2    3    3    0    0  0.24270832703E+02 -0.34723420294E+02 -0.27170607780E+02  0.89026171081E+02  0.73434514863E+02 0.  0.
         -6    2    1    2    0  501  0.11802034633E+02  0.47096259483E+01 -0.17688474694E+04  0.17780983802E+04  0.18069590803E+03 0.  0.
        -24    2    5    5    0    0 -0.19755783052E+02 -0.60192561277E+02 -0.81260691715E+03  0.81912691375E+03  0.81396950969E+02 0.  0.
          5    1    3    3  502    0 -0.36072867336E+02  0.30013794346E+02  0.76402896300E+02  0.89786258257E+02  0.47000000000E+01 0. -1.
        -11    1    4    4    0    0  0.39043077344E+02  0.59534486471E+01 -0.33723858554E+01  0.39638093113E+02  0.00000000000E+00 0.  1.
         12    1    4    4    0    0 -0.14772244641E+02 -0.40676868941E+02 -0.23798221925E+02  0.49388077968E+02  0.00000000000E+00 0. -1.
         -5    1    5    5    0  501  0.31557817685E+02  0.64902187225E+02 -0.95624055223E+03  0.95897146646E+03  0.47000000000E+01 0.  1.
         13    1    6    6    0    0  0.30543401924E+02 -0.11109824529E+02 -0.29004880760E+03  0.29186407520E+03  0.00000000000E+00 0. -1.
        -14    1    6    6    0    0 -0.50299184976E+02 -0.49082736748E+02 -0.52255810955E+03  0.52726283855E+03  0.00000000000E+00 0.  1.
</event>
<event>
12    1  0.2614920E-002  0.1734542E+03  0.7818608E-02  0.1174293E+00
          1   -1    0    0  502    0  0.00000000000E+00  0.00000000000E+00  0.52019051726E+03  0.52019051726E+03  0.00000000000E+00 0.  1.
         -1   -1    0    0    0  501 -0.00000000000E+00 -0.00000000000E+00 -0.82609207926E+02  0.82609207926E+02  0.00000000000E+00 0. -1.
          6    2    1    2  502    0  0.19029533615E+02  0.12193027180E+02  0.38411953410E+03  0.42159829130E+03  0.17229773558E+03 0.  0.
         24    2    3    3    0    0  0.32385450432E+02  0.38449553316E+02  0.11005299216E+03  0.14591306302E+03  0.81558416655E+02 0.  0.
         -6    2    1    2    0  501 -0.19029533615E+02 -0.12193027180E+02  0.53461775235E+02  0.18120143389E+03  0.17165373626E+03 0.  0.
        -24    2    5    5    0    0  0.45840082212E+02  0.68120923862E+01  0.64774577626E+02  0.11250404584E+03  0.79458773482E+02 0.  0.
          5    1    3    3  502    0 -0.13355916817E+02 -0.26256526136E+02  0.27406654194E+03  0.27568522828E+03  0.47000000000E+01 0. -1.
        -11    1    4    4    0    0  0.24675062507E+02  0.55421405427E+02  0.11179075552E+03  0.12719105278E+03  0.00000000000E+00 0.  1.
         12    1    4    4    0    0  0.77103879247E+01 -0.16971852111E+02 -0.17377633525E+01  0.18722010242E+02  0.00000000000E+00 0. -1.
         -5    1    5    5    0  501 -0.64869615827E+02 -0.19005119566E+02 -0.11312802392E+02  0.68697388052E+02  0.47000000000E+01 0.  1.
         13    1    6    6    0    0  0.77602378652E+01 -0.27358047421E+02 -0.18541285100E+01  0.28497751542E+02  0.00000000000E+00 0. -1.
        -14    1    6    6    0    0  0.38079844347E+02  0.34170139807E+02  0.66628706136E+02  0.84006294296E+02  0.00000000000E+00 0.  1.
</event>
<event>
12    1  0.2614920E-002  0.1983174E+03  0.7818608E-02  0.1151166E+00
         -1   -1    0    0    0  501 -0.00000000000E+00  0.00000000000E+00  0.16830428524E+03  0.16830428524E+03  0.00000000000E+00 0.  1.
          1   -1    0    0  502    0  0.00000000000E+00 -0.00000000000E+00 -0.26219438067E+03  0.26219438067E+03  0.00000000000E+00 0. -1.
          6    2    1    2  502    0 -0.12415937974E+02  0.99168151694E+02 -0.11774352562E+03  0.22991791264E+03  0.17032389997E+03 0.  0.
         24    2    3    3    0    0  0.25008885222E+01  0.88151796649E+02 -0.92975386348E+01  0.11979755174E+03  0.80548218369E+02 0.  0.
         -6    2    1    2    0  501  0.12415937974E+02 -0.99168151694E+02  0.23853430187E+02  0.20058075327E+03  0.17226483862E+03 0.  0.
        -24    2    5    5    0    0 -0.42190953691E+02 -0.13346677326E+02 -0.13058478712E+02  0.92267240268E+02  0.79903125042E+02 0.  0.
          5    1    3    3  502    0 -0.14916826496E+02  0.11016355044E+02 -0.10844598699E+03  0.11012036090E+03  0.47000000000E+01 0. -1.
        -13    1    4    4    0    0  0.41351014182E+02  0.39603068773E+02 -0.44932829615E+01  0.57432560642E+02  0.00000000000E+00 0.  1.
         14    1    4    4    0    0 -0.38850125660E+02  0.48548727876E+02 -0.48042556733E+01  0.62364991099E+02  0.00000000000E+00 0. -1.
         -5    1    5    5    0  501  0.54606891664E+02 -0.85821474368E+02  0.36911908899E+02  0.10831351300E+03  0.47000000000E+01 0.  1.
         13    1    6    6    0    0 -0.49103667985E+02 -0.34590096498E+02 -0.27085946269E+02  0.65888492703E+02  0.00000000000E+00 0. -1.
        -14    1    6    6    0    0  0.69127142945E+01  0.21243419172E+02  0.14027467557E+02  0.26378747565E+02  0.00000000000E+00 0.  1.
</event>
<event>
12    1  0.2614920E-002  0.2146648E+03  0.7818608E-02  0.1137924E+00
         -2   -1    0    0    0  501 -0.00000000000E+00  0.00000000000E+00  0.36115646539E+03  0.36115646539E+03  0.00000000000E+00 0. -1.
          2   -1    0    0  502    0  0.00000000000E+00 -0.00000000000E+00 -0.15568554877E+03  0.15568554877E+03  0.00000000000E+00 0.  1.
          6    2    1    2  502    0  0.10150225138E+03  0.79173620305E+02 -0.72415326833E+01  0.21426646898E+03  0.17113302062E+03 0.  0.
         24    2    3    3    0    0  0.10404048378E+03  0.46832980209E+02 -0.60662328477E+02  0.15159086728E+03  0.79259842579E+02 0.  0.
         -6    2    1    2    0  501 -0.10150225138E+03 -0.79173620305E+02  0.21271244931E+03  0.30257554518E+03  0.17243609037E+03 0.  0.
        -24    2    5    5    0    0 -0.35414733956E+02 -0.25326179005E+02  0.19808600322E+03  0.21595493667E+03  0.74181205685E+02 0.  0.
          5    1    3    3  502    0 -0.25382324010E+01  0.32340640095E+02  0.53420795793E+02  0.62675601702E+02  0.47000000000E+01 0. -1.
        -11    1    4    4    0    0  0.51106565546E+02 -0.15218503612E+02 -0.65834890640E+01  0.53729193390E+02  0.00000000000E+00 0.  1.
         12    1    4    4    0    0  0.52933918230E+02  0.62051483821E+02 -0.54078839413E+02  0.97861673886E+02  0.00000000000E+00 0. -1.
         -5    1    5    5    0  501 -0.66087517420E+02 -0.53847441300E+02  0.14626446088E+02  0.86620608508E+02  0.47000000000E+01 0.  1.
         13    1    6    6    0    0 -0.25401536839E+02 -0.51575622576E+02  0.14283877580E+03  0.15397466931E+03  0.00000000000E+00 0. -1.
        -14    1    6    6    0    0 -0.10013197116E+02  0.26249443571E+02  0.55247227423E+02  0.61980267361E+02  0.00000000000E+00 0.  1.
</event>
<event>
12    1  0.2614920E-002  0.2190166E+03  0.7818608E-02  0.1134618E+00
         -2   -1    0    0    0  501 -0.00000000000E+00  0.00000000000E+00  0.41263172793E+02  0.41263172793E+02  0.00000000000E+00 0.  1.
          2   -1    0    0  502    0  0.00000000000E+00 -0.00000000000E+00 -0.13007065995E+04  0.13007065995E+04  0.00000000000E+00 0. -1.
          6    2    1    2  502    0 -0.95841060894E+02  0.96092134571E+02 -0.84780890245E+03  0.87557989025E+03  0.17158380418E+03 0.  0.
         24    2    3    3    0    0 -0.56883211536E+02  0.18157370429E+01 -0.24180638439E+03  0.26103380162E+03  0.80183049331E+02 0.  0.
         -6    2    1    2    0  501  0.95841060894E+02 -0.96092134571E+02 -0.41163452423E+03  0.46638988201E+03  0.17221304605E+03 0.  0.
        -24    2    5    5    0    0  0.33030119568E+02  0.14805930931E+02 -0.21520738515E+03  0.23219059455E+03  0.79297220538E+02 0.  0.
          5    1    3    3  502    0 -0.38957849358E+02  0.94276397528E+02 -0.60600251806E+03  0.61454608863E+03  0.47000000000E+01 0. -1.
        -13    1    4    4    0    0 -0.87725801600E+00  0.31216009758E+02 -0.48892133297E+02  0.58014218474E+02  0.00000000000E+00 0.  1.
         14    1    4    4    0    0 -0.56005953520E+02 -0.29400272715E+02 -0.19291425109E+03  0.20301958314E+03  0.00000000000E+00 0. -1.
         -5    1    5    5    0  501  0.62810941325E+02 -0.11089806550E+03 -0.19642713908E+03  0.23419928747E+03  0.47000000000E+01 0.  1.
         11    1    6    6    0    0  0.66247678590E+01 -0.17836448004E+02 -0.77789970772E+01  0.20555758855E+02  0.00000000000E+00 0. -1.
        -12    1    6    6    0    0  0.26405351709E+02  0.32642378935E+02 -0.20742838807E+03  0.21163483569E+03  0.00000000000E+00 0.  1.
</event>
<event>
12    1  0.2614920E-002  0.1747467E+03  0.7818608E-02  0.1172986E+00
          2   -1    0    0  502    0  0.00000000000E+00  0.00000000000E+00  0.23116237572E+04  0.23116237572E+04  0.00000000000E+00 0.  1.
         -2   -1    0    0    0  501 -0.00000000000E+00 -0.00000000000E+00 -0.13486013138E+02  0.13486013138E+02  0.00000000000E+00 0. -1.
          6    2    1    2  502    0  0.18431150347E+02 -0.32997271121E+02  0.13111490946E+04  0.13226569940E+04  0.16994425085E+03 0.  0.
         24    2    3    3    0    0  0.57745676145E+02 -0.67377832527E+02  0.99910252982E+03  0.10062351182E+04  0.80180499480E+02 0.  0.
         -6    2    1    2    0  501 -0.18431150347E+02  0.32997271121E+02  0.98698864944E+03  0.10024527763E+04  0.17127885843E+03 0.  0.
        -24    2    5    5    0    0  0.35445086723E+02 -0.24966882749E+02  0.37944208931E+03  0.38975594687E+03  0.77805524013E+02 0.  0.
          5    1    3    3  502    0 -0.39314525799E+02  0.34380561406E+02  0.31204656475E+03  0.31642187585E+03  0.47000000000E+01 0. -1.
        -13    1    4    4    0    0  0.27597157265E+02  0.13605279140E+02  0.18278045211E+03  0.18535209840E+03  0.00000000000E+00 0.  1.
         14    1    4    4    0    0  0.30148518881E+02 -0.80983111667E+02  0.81632207771E+03  0.82088301975E+03  0.00000000000E+00 0. -1.
         -5    1    5    5    0  501 -0.53876237070E+02  0.57964153870E+02  0.60754656013E+03  0.61269682942E+03  0.47000000000E+01 0.  1.
         11    1    6    6    0    0  0.69237449427E+01  0.27598614022E+02  0.14811164926E+03  0.15082003311E+03  0.00000000000E+00 0. -1.
        -12    1    6    6    0    0  0.28521341781E+02 -0.52565496771E+02  0.23133044006E+03  0.23893591376E+03  0.00000000000E+00 0.  1.
</event>
<event>
12    1  0.2614920E-002  0.2209022E+03  0.7818608E-02  0.1133212E+00
          2   -1    0    0  502    0  0.00000000000E+00  0.00000000000E+00  0.39252736315E+03  0.39252736315E+03  0.00000000000E+00 0.  1.
         -2   -1    0    0    0  501 -0.00000000000E+00 -0.00000000000E+00 -0.17981185886E+03  0.17981185886E+03  0.00000000000E+00 0. -1.
          6    2    1    2  502    0  0.55081801005E+02 -0.12812017626E+03  0.26511297756E+03  0.34465739696E+03  0.17045540779E+03 0.  0.
         24    2    3    3    0    0  0.46069990950E+02 -0.42168542752E+02  0.66035608627E+02  0.12757956566E+03  0.89527727004E+02 0.  0.
         -6    2    1    2    0  501 -0.55081801005E+02  0.12812017626E+03 -0.52397473268E+02  0.22768182505E+03  0.17217646148E+03 0.  0.
        -24    2    5    5    0    0 -0.70984307828E+02  0.61144110460E+02 -0.84278897383E+02  0.15167394180E+03  0.84407806949E+02 0.  0.
          5    1    3    3  502    0  0.90118100547E+01 -0.85951633504E+02  0.19907736893E+03  0.21707783130E+03  0.47000000000E+01 0. -1.
        -11    1    4    4    0    0 -0.77364859833E+01 -0.75540183115E+01  0.62580135027E+02  0.63507398845E+02  0.00000000000E+00 0.  1.
         12    1    4    4    0    0  0.53806476934E+02 -0.34614524440E+02  0.34554735996E+01  0.64072166812E+02  0.00000000000E+00 0. -1.
         -5    1    5    5    0  501  0.15902506823E+02  0.66976065796E+02  0.31881424116E+02  0.76007883252E+02  0.47000000000E+01 0.  1.
         13    1    6    6    0    0 -0.42145953029E+02  0.26141625122E+02 -0.93086873792E+02  0.10547431912E+03  0.00000000000E+00 0. -1.
        -14    1    6    6    0    0 -0.28838354799E+02  0.35002485338E+02  0.88079764082E+01  0.46199622680E+02  0.00000000000E+00 0.  1.
</event>
<event>
12    1  0.2614920E-002  0.2716727E+03  0.7818608E-02  0.1100326E+00
         -1   -1    0    0    0  501 -0.00000000000E+00  0.00000000000E+00  0.37932752630E+02  0.37932752630E+02  0.00000000000E+00 0. -1.
          1   -1    0    0  502    0  0.00000000000E+00 -0.00000000000E+00 -0.19602370885E+04  0.19602370885E+04  0.00000000000E+00 0.  1.
          6    2    1    2  502    0 -0.82483707875E+01 -0.21049067527E+03 -0.10472588831E+04  0.10819297071E+04  0.17159942552E+03 0.  0.
         24    2    3    3    0    0 -0.19347986246E+02 -0.18241053227E+03 -0.10242719370E+04  0.10436911717E+04  0.80686518103E+02 0.  0.
         -6    2    1    2    0  501  0.82483707875E+01  0.21049067527E+03 -0.87504545271E+03  0.91624013399E+03  0.17151407763E+03 0.  0.
        -24    2    5    5    0    0  0.40182155493E+02  0.10434099308E+03 -0.29219298941E+03  0.32292183357E+03  0.80000744243E+02 0.  0.
          5    1    3    3  502    0  0.11099615459E+02 -0.28080143002E+02 -0.22986946129E+02  0.38238535363E+02  0.47000000000E+01 0. -1.
        -13    1    4    4    0    0 -0.41386959213E+02 -0.50333656301E+02 -0.28128647885E+03  0.28873593565E+03  0.00000000000E+00 0.  1.
         14    1    4    4    0    0  0.22038972966E+02 -0.13207687597E+03 -0.74298545815E+03  0.75495523610E+03  0.00000000000E+00 0. -1.
         -5    1    5    5    0  501 -0.31933784706E+02  0.10614968219E+03 -0.58285246330E+03  0.59331830042E+03  0.47000000000E+01 0.  1.
         11    1    6    6    0    0  0.14926773736E+02  0.95872522615E+02 -0.15277653217E+03  0.18098347424E+03  0.00000000000E+00 0. -1.
        -12    1    6    6    0    0  0.25255381758E+02  0.84684704644E+01 -0.13941645724E+03  0.14193835933E+03  0.00000000000E+00 0.  1.
</event>
<event>
12    1  0.2614920E-002  0.1830253E+03  0.7818608E-02  0.1164907E+00
         -1   -1    0    0    0  501 -0.00000000000E+00  0.00000000000E+00  0.23897569385E+03  0.23897569385E+03  0.00000000000E+00 0. -1.
          1   -1    0    0  502    0  0.00000000000E+00 -0.00000000000E+00 -0.17212183887E+03  0.17212183887E+03  0.00000000000E+00 0.  1.
          6    2    1    2  502    0  0.62225300402E+02 -0.34120951854E+02 -0.55467940339E+02  0.18878351332E+03  0.16591050338E+03 0.  0.
         24    2    3    3    0    0  0.87020178065E+02 -0.19743009650E+02  0.70405405283E+01  0.11985665817E+03  0.79710422640E+02 0.  0.
         -6    2    1    2    0  501 -0.62225300402E+02  0.34120951854E+02  0.12232179532E+03  0.22231401939E+03  0.17153621846E+03 0.  0.
        -24    2    5    5    0    0 -0.80823508598E+02  0.64533769413E+02  0.13239857397E+03  0.18497149286E+03  0.77382322548E+02 0.  0.
          5    1    3    3  502    0 -0.24794877663E+02 -0.14377942205E+02 -0.62508480867E+02  0.68926855149E+02  0.47000000000E+01 0. -1.
        -11    1    4    4    0    0  0.34818766978E+02  0.62215734185E-01 -0.35454001036E+02  0.49692419886E+02  0.00000000000E+00 0.  1.
         12    1    4    4    0    0  0.52201411086E+02 -0.19805225384E+02  0.42494541564E+02  0.70164238289E+02  0.00000000000E+00 0. -1.
         -5    1    5    5    0  501  0.18598208196E+02 -0.30412817558E+02 -0.10076778659E+02  0.37342526536E+02  0.47000000000E+01 0.  1.
         13    1    6    6    0    0 -0.66282193948E+02  0.81989501909E+02  0.99338709369E+02  0.14485781593E+03  0.00000000000E+00 0. -1.
        -14    1    6    6    0    0 -0.14541314650E+02 -0.17455732496E+02  0.33059864605E+02  0.40113676925E+02  0.00000000000E+00 0.  1.
</event>
<event>
12    1  0.2614920E-002  0.1910608E+03  0.7818608E-02  0.1157508E+00
          2   -1    0    0  502    0  0.00000000000E+00  0.00000000000E+00  0.14836483486E+04  0.14836483486E+04  0.00000000000E+00 0.  1.
         -2   -1    0    0    0  501 -0.00000000000E+00 -0.00000000000E+00 -0.24624885090E+02  0.24624885090E+02  0.00000000000E+00 0. -1.
          6    2    1    2  502    0 -0.26834916589E+02  0.68754771635E+02  0.70059288560E+03  0.72553185966E+03  0.17354756309E+03 0.  0.
         24    2    3    3    0    0 -0.73796601664E+02  0.74617575082E+02  0.59797276120E+03  0.61242680999E+03  0.80507474958E+02 0.  0.
         -6    2    1    2    0  501  0.26834916589E+02 -0.68754771635E+02  0.75843057792E+03  0.78274137404E+03  0.17894073249E+03 0.  0.
        -24    2    5    5    0    0 -0.13677158473E+02 -0.95751913397E+01  0.15714120841E+03  0.17717185134E+03  0.80110901699E+02 0.  0.
          5    1    3    3  502    0  0.46961685075E+02 -0.58628034473E+01  0.10262012440E+03  0.11310504967E+03  0.47000000000E+01 0. -1.
        -11    1    4    4    0    0 -0.17036127464E+02  0.75719151716E+00  0.29417243434E+03  0.29466629279E+03  0.00000000000E+00 0.  1.
         12    1    4    4    0    0 -0.56760474201E+02  0.73860383565E+02  0.30380032686E+03  0.31776051721E+03  0.00000000000E+00 0. -1.
         -5    1    5    5    0  501  0.40512075062E+02 -0.59179580295E+02  0.60128936950E+03  0.60556952270E+03  0.47000000000E+01 0.  1.
         13    1    6    6    0    0 -0.29211471573E+02  0.18027730971E+01  0.15506729122E+03  0.15780502168E+03  0.00000000000E+00 0. -1.
        -14    1    6    6    0    0  0.15534313100E+02 -0.11377964437E+02  0.20739171920E+01  0.19366829651E+02  0.00000000000E+00 0.  1.
</event>
<event>
12    1  0.2614920E-002  0.1931882E+03  0.7818608E-02  0.1155617E+00
          1   -1    0    0  502    0  0.00000000000E+00  0.00000000000E+00  0.75482150749E+03  0.75482150749E+03  0.00000000000E+00 0. -1.
         -1   -1    0    0    0  501 -0.00000000000E+00 -0.00000000000E+00 -0.19467491459E+03  0.19467491459E+03  0.00000000000E+00 0.  1.
          6    2    1    2  502    0  0.37069909330E+01  0.89297474621E+02  0.68983589413E+03  0.71616790279E+03  0.17039695829E+03 0.  0.
         24    2    3    3    0    0  0.68249310705E+02  0.31337896630E+02  0.36995410663E+03  0.38469924410E+03  0.74077224678E+02 0.  0.
         -6    2    1    2    0  501 -0.37069909330E+01 -0.89297474621E+02 -0.12968930123E+03  0.23332851929E+03  0.17214848912E+03 0.  0.
        -24    2    5    5    0    0  0.44441635776E+02 -0.28502524889E+02 -0.12633160571E+02  0.92834582648E+02  0.75307437042E+02 0.  0.
          5    1    3    3  502    0 -0.64542319772E+02  0.57959577992E+02  0.31988178750E+03  0.33146865869E+03  0.47000000000E+01 0. -1.
        -11    1    4    4    0    0  0.66391701509E+02  0.97878681937E-01  0.31042361524E+03  0.31744399271E+03  0.00000000000E+00 0.  1.
         12    1    4    4    0    0  0.18576091958E+01  0.31240017948E+02  0.59530491395E+02  0.67255251386E+02  0.00000000000E+00 0. -1.
         -5    1    5    5    0  501 -0.48148626709E+02 -0.60794949732E+02 -0.11705614066E+03  0.14049393664E+03  0.47000000000E+01 0.  1.
         11    1    6    6    0    0  0.57685125771E+01  0.93784958761E+01 -0.33158849247E+02  0.34939107110E+02  0.00000000000E+00 0. -1.
        -12    1    6    6    0    0  0.38673123199E+02 -0.37881020765E+02  0.20525688676E+02  0.57895475538E+02  0.00000000000E+00 0.  1.
</event>
<event>
12    1  0.2614920E-002  0.1812233E+03  0.7818608E-02  0.1166624E+00
          2   -1    0    0  502    0  0.00000000000E+00  0.00000000000E+00  0.15417946971E+04  0.15417946971E+04  0.00000000000E+00 0.  1.
         -2   -1    0    0    0  501 -0.00000000000E+00 -0.00000000000E+00 -0.21381201044E+02  0.21381201044E+02  0.00000000000E+00 0. -1.
          6    2    1    2  502    0 -0.40673964491E+02 -0.36853215392E+02  0.71368426607E+03  0.73641064069E+03  0.17304007982E+03 0.  0.
         24    2    3    3    0    0  0.43853871664E+02 -0.32801662166E+02  0.35830378408E+03  0.37106320722E+03  0.79417825238E+02 0.  0.
         -6    2    1    2    0  501  0.40673964491E+02  0.36853215392E+02  0.80672923000E+03  0.82676525746E+03  0.17238390162E+03 0.  0.
        -24    2    5    5    0    0  0.44693264952E+02 -0.25680238977E+02  0.26676607167E+03  0.28315796351E+03  0.79732883396E+02 0.  0.
          5    1    3    3  502    0 -0.84527836155E+02 -0.40515532265E+01  0.35538048198E+03  0.36534743347E+03  0.47000000000E+01 0. -1.
        -11    1    4    4    0    0  0.14264050113E+02  0.25376830012E+02  0.14903962711E+03  0.15185604063E+03  0.00000000000E+00 0.  1.
         12    1    4    4    0    0  0.29589821551E+02 -0.58178492178E+02  0.20926415698E+03  0.21920716660E+03  0.00000000000E+00 0. -1.
         -5    1    5    5    0  501 -0.40193004615E+01  0.62533454369E+02  0.53996315832E+03  0.54360729395E+03  0.47000000000E+01 0.  1.
         13    1    6    6    0    0 -0.12843796998E+02  0.18245160331E+02  0.54604066637E+02  0.58986889137E+02  0.00000000000E+00 0. -1.
        -14    1    6    6    0    0  0.57537061950E+02 -0.43925399308E+02  0.21216200504E+03  0.22417107437E+03  0.00000000000E+00 0.  1.
</event>
<event>
12    1  0.2614920E-002  0.1897868E+03  0.7818608E-02  0.1158654E+00
          2   -1    0    0  502    0  0.00000000000E+00  0.00000000000E+00  0.11710693731E+03  0.11710693731E+03  0.00000000000E+00 0. -1.
         -2   -1    0    0    0  501 -0.00000000000E+00 -0.00000000000E+00 -0.35080832470E+03  0.35080832470E+03  0.00000000000E+00 0.  1.
          6    2    1    2  502    0 -0.76844572306E+02  0.25527913486E+02 -0.35174916739E+02  0.19384203890E+03  0.17257085100E+03 0.  0.
         24    2    3    3    0    0 -0.20357742126E+01  0.61869624436E+02  0.11163970815E+01  0.10297826347E+03  0.82287797391E+02 0.  0.
         -6    2    1    2    0  501  0.76844572306E+02 -0.25527913486E+02 -0.19852647066E+03  0.27407322311E+03  0.17072378105E+03 0.  0.
        -24    2    5    5    0    0  0.71150205601E+02 -0.99477008173E+01 -0.22140916688E+03  0.24542227853E+03  0.77773820239E+02 0.  0.
          5    1    3    3  502    0 -0.74808798093E+02 -0.36341710949E+02 -0.36291313821E+02  0.90863775432E+02  0.47000000000E+01 0. -1.
        -13    1    4    4    0    0 -0.15540732843E+02  0.70675811687E+02 -0.21238048963E+02  0.75416440241E+02  0.00000000000E+00 0.  1.
         14    1    4    4    0    0  0.13504958630E+02 -0.88061872511E+01  0.22354446044E+02  0.27561823224E+02  0.00000000000E+00 0. -1.
         -5    1    5    5    0  501  0.56943667042E+01 -0.15580212669E+02  0.22882696220E+02  0.28650944579E+02  0.47000000000E+01 0.  1.
         13    1    6    6    0    0  0.28143063572E+02 -0.33158418270E+02 -0.45884147958E+02  0.63220785848E+02  0.00000000000E+00 0. -1.
        -14    1    6    6    0    0  0.43007142029E+02  0.23210717453E+02 -0.17552501892E+03  0.18220149268E+03  0.00000000000E+00 0.  1.
</event>
<event>
12    1  0.2614920E-002  0.1832187E+03  0.7818608E-02  0.1164724E+00
          2   -1    0    0  502    0  0.00000000000E+00  0.00000000000E+00  0.77347864392E+03  0.77347864392E+03  0.00000000000E+00 0. -1.
         -2   -1    0    0    0  501 -0.00000000000E+00 -0.00000000000E+00 -0.74052094006E+02  0.74052094006E+02  0.00000000000E+00 0.  1.
          6    2    1    2  502    0  0.55077716452E+02  0.29080990369E+02  0.76369411378E+02  0.19791353186E+03  0.17163397172E+03 0.  0.
         24    2    3    3    0    0  0.77578911331E+02 -0.22796273442E+02  0.15363495701E+02  0.11459867113E+03  0.79741211791E+02 0.  0.
         -6    2    1    2    0  501 -0.55077716452E+02 -0.29080990369E+02  0.62305713853E+03  0.64961720606E+03  0.17298282483E+03 0.  0.
        -24    2    5    5    0    0  0.35795214201E+02 -0.78563849967E+01  0.36012069904E+03  0.37057234477E+03  0.79334259237E+02 0.  0.
          5    1    3    3  502    0 -0.22501194879E+02  0.51877263811E+02  0.61005915678E+02  0.83314860734E+02  0.47000000000E+01 0. -1.
        -11    1    4    4    0    0 -0.13599942020E+02  0.75704832333E+01  0.96768439463E+01  0.18327900810E+02  0.00000000000E+00 0.  1.
         12    1    4    4    0    0  0.91178853351E+02 -0.30366756675E+02  0.56866517544E+01  0.96270770318E+02  0.00000000000E+00 0. -1.
         -5    1    5    5    0  501 -0.90872930653E+02 -0.21224605373E+02  0.26293643949E+03  0.27904486129E+03  0.47000000000E+01 0.  1.
         13    1    6    6    0    0  0.14957398404E+02  0.35794906113E+02  0.14716308469E+03  0.15219057976E+03  0.00000000000E+00 0. -1.
        -14    1    6    6    0    0  0.20837815797E+02 -0.43651291110E+02  0.21295761435E+03  0.21838176502E+03  0.00000000000E+00 0.  1.
</event>
<event>
12    1  0.2614920E-002  0.2423074E+03  0.7818608E-02  0.1118265E+00
         -2   -1    0    0    0  501 -0.00000000000E+00  0.00000000000E+00  0.10287675302E+03  0.10287675302E+03  0.00000000000E+00 0. -1.
          2   -1    0    0  502    0  0.00000000000E+00 -0.00000000000E+00 -0.57516483634E+03  0.57516483634E+03  0.00000000000E+00 0.  1.
          6    2    1    2  502    0  0.13561712652E+03 -0.10310409845E+03 -0.20648733438E+03  0.31849385411E+03  0.17256551140E+03 0.  0.
         24    2    3    3    0    0  0.54418616182E+02 -0.55676587583E+01 -0.28668538695E+02  0.99980309344E+02  0.78624376210E+02 0.  0.
         -6    2    1    2    0  501 -0.13561712652E+03  0.10310409845E+03 -0.26580074894E+03  0.35954773525E+03  0.17205253751E+03 0.  0.
        -24    2    5    5    0    0 -0.93241854526E+02  0.13869227744E+03 -0.22098645184E+03  0.28818532648E+03  0.79285428949E+02 0.  0.
          5    1    3    3  502    0  0.81198510338E+02 -0.97536439692E+02 -0.17781879569E+03  0.21851354477E+03  0.47000000000E+01 0. -1.
        -13    1    4    4    0    0  0.38860929358E+02  0.47231949926E+01 -0.55123913597E+02  0.67610104657E+02  0.00000000000E+00 0.  1.
         14    1    4    4    0    0  0.15557686824E+02 -0.10290853751E+02  0.26455374902E+02  0.32370204687E+02  0.00000000000E+00 0. -1.
         -5    1    5    5    0  501 -0.42375271994E+02 -0.35588178994E+02 -0.44814297101E+02  0.71362408769E+02  0.47000000000E+01 0.  1.
         11    1    6    6    0    0 -0.83985635492E+01  0.99916873438E+01  0.55440082217E+01  0.14181174593E+02  0.00000000000E+00 0. -1.
        -12    1    6    6    0    0 -0.84843290977E+02  0.12870059010E+03 -0.22653046006E+03  0.27400415189E+03  0.00000000000E+00 0.  1.
</event>
<event>
12    1  0.2614920E-002  0.2516178E+03  0.7818608E-02  0.1112287E+00
         -4   -1    0    0    0  501 -0.00000000000E+00  0.00000000000E+00  0.10742690735E+03  0.10742690735E+03  0.00000000000E+00 0. -1.
          4   -1    0    0  502    0  0.00000000000E+00 -0.00000000000E+00 -0.73013993184E+03  0.73013993184E+03  0.00000000000E+00 0.  1.
          6    2    1    2  502    0 -0.47200212503E+02  0.17650117220E+03 -0.12679527470E+03  0.28116592699E+03  0.17203695232E+03 0.  0.
         24    2    3    3    0    0 -0.48914008203E+02  0.20333517855E+03 -0.11241921098E+03  0.25031528356E+03  0.79258356981E+02 0.  0.
         -6    2    1    2    0  501  0.47200212503E+02 -0.17650117220E+03 -0.49591774979E+03  0.55640091220E+03  0.17397424147E+03 0.  0.
        -24    2    5    5    0    0  0.72440293530E+02 -0.58968969347E+02 -0.18138122067E+03  0.21964254401E+03  0.81355789311E+02 0.  0.
          5    1    3    3  502    0  0.17137957005E+01 -0.26834006344E+02 -0.14376063720E+02  0.30850643434E+02  0.47000000000E+01 0. -1.
        -11    1    4    4    0    0 -0.19360309333E+01  0.15827435084E+03 -0.85183341074E+02  0.17975182877E+03  0.00000000000E+00 0.  1.
         12    1    4    4    0    0 -0.46977977270E+02  0.45060827711E+02 -0.27235869906E+02  0.70563454790E+02  0.00000000000E+00 0. -1.
         -5    1    5    5    0  501 -0.25240081027E+02 -0.11753220286E+03 -0.31453652911E+03  0.33675836819E+03  0.47000000000E+01 0.  1.
         13    1    6    6    0    0  0.38721553886E+02 -0.31162680157E+02 -0.16604517401E+03  0.17332475640E+03  0.00000000000E+00 0. -1.
        -14    1    6    6    0    0  0.33718739643E+02 -0.27806289190E+02 -0.15336046661E+02  0.46317787608E+02  0.00000000000E+00 0.  1.
</event>
<event>
12    1  0.2743584E-002  0.1801432E+03  0.7818608E-02  0.1167665E+00
          2   -1    0    0  502    0  0.00000000000E+00  0.00000000000E+00  0.68559614558E+03  0.68559614558E+03  0.00000000000E+00 0.  1.
         -2   -1    0    0    0  501 -0.00000000000E+00 -0.00000000000E+00 -0.50302430925E+02  0.50302430925E+02  0.00000000000E+00 0. -1.
          6    2    1    2  502    0  0.46853445746E+02 -0.10775079192E+02  0.22727400360E+03  0.28963969456E+03  0.17299228956E+03 0.  0.
         24    2    3    3    0    0 -0.29443114248E+02  0.15830161814E+00  0.18038749484E+03  0.19930067428E+03  0.79461867821E+02 0.  0.
         -6    2    1    2    0  501 -0.46853445746E+02  0.10775079192E+02  0.40801971106E+03  0.44625888194E+03  0.17422846320E+03 0.  0.
        -24    2    5    5    0    0 -0.83150062060E+02 -0.33636579819E+02  0.24683420075E+03  0.27510778336E+03  0.81925682675E+02 0.  0.
          5    1    3    3  502    0  0.76296559994E+02 -0.10933380811E+02  0.46886508757E+02  0.90339020286E+02  0.47000000000E+01 0. -1.
        -13    1    4    4    0    0 -0.10909157570E+02 -0.39485195284E+02  0.85348426864E+02  0.94670187143E+02  0.00000000000E+00 0.  1.
         14    1    4    4    0    0 -0.18533956678E+02  0.39643496902E+02  0.95039067974E+02  0.10463048714E+03  0.00000000000E+00 0. -1.
         -5    1    5    5    0  501  0.36296616315E+02  0.44411659012E+02  0.16118551031E+03  0.17115109858E+03  0.47000000000E+01 0.  1.
         13    1    6    6    0    0 -0.39985065382E+02  0.60472500462E+00  0.26461518618E+02  0.47951883316E+02  0.00000000000E+00 0. -1.
        -14    1    6    6    0    0 -0.43164996678E+02 -0.34241304824E+02  0.22037268213E+03  0.22715590004E+03  0.00000000000E+00 0.  1.
</event>
<event>
12    1  0.2614920E-002  0.2411749E+03  0.7818608E-02  0.1119013E+00
         -2   -1    0    0    0  501 -0.00000000000E+00  0.00000000000E+00  0.13814010511E+03  0.13814010511E+03  0.00000000000E+00 0. -1.
          2   -1    0    0  502    0  0.00000000000E+00 -0.00000000000E+00 -0.42263773709E+03  0.42263773709E+03  0.00000000000E+00 0.  1.
          6    2    1    2  502    0  0.81623617178E+02  0.14851941421E+03 -0.12558292735E+03  0.27258023786E+03  0.17265133406E+03 0.  0.
         24    2    3    3    0    0  0.40655475029E+02  0.63552256312E+02  0.56164502852E+01  0.11092265751E+03  0.81120493732E+02 0.  0.
         -6    2    1    2    0  501 -0.81623617178E+02 -0.14851941421E+03 -0.15891470462E+03  0.28819760433E+03  0.17053898240E+03 0.  0.
        -24    2    5    5    0    0 -0.28873918805E+01 -0.14134525826E+03 -0.11526224972E+03  0.19776260830E+03  0.76405784914E+02 0.  0.
          5    1    3    3  502    0  0.40968142149E+02  0.84967157897E+02 -0.13119937764E+03  0.16165758035E+03  0.47000000000E+01 0. -1.
        -11    1    4    4    0    0 -0.98344476632E+01 -0.14246658102E+02 -0.37229280596E+01  0.17707168641E+02  0.00000000000E+00 0.  1.
         12    1    4    4    0    0  0.50489922692E+02  0.77798914414E+02  0.93393783448E+01  0.93215488870E+02  0.00000000000E+00 0. -1.
         -5    1    5    5    0  501 -0.78736225297E+02 -0.71741559513E+01 -0.43652454901E+02  0.90434996028E+02  0.47000000000E+01 0.  1.
         13    1    6    6    0    0  0.30532262002E+02 -0.44263166808E+02 -0.19026590802E+02  0.57039092878E+02  0.00000000000E+00 0. -1.
        -14    1    6    6    0    0 -0.33419653883E+02 -0.97082091450E+02 -0.96235658920E+02  0.14072351543E+03  0.00000000000E+00 0.  1.
</event>
<event>
12    1  0.2614920E-002  0.2969698E+03  0.7818608E-02  0.1086765E+00
         -2   -1    0    0    0  501 -0.00000000000E+00  0.00000000000E+00  0.11077455092E+03  0.11077455092E+03  0.00000000000E+00 0.  1.
          2   -1    0    0  502    0  0.00000000000E+00 -0.00000000000E+00 -0.13620447318E+04  0.13620447318E+04  0.00000000000E+00 0. -1.
          6    2    1    2  502    0  0.16190772355E+02 -0.24109534763E+03 -0.11004263243E+04  0.11398175236E+04  0.17279115753E+03 0.  0.
         24    2    3    3    0    0  0.39042004104E+02 -0.79786916265E+02 -0.29802913969E+03  0.32103432842E+03  0.79695933588E+02 0.  0.
         -6    2    1    2    0  501 -0.16190772355E+02  0.24109534763E+03 -0.15084385662E+03  0.33300175916E+03  0.17247375095E+03 0.  0.
        -24    2    5    5    0    0  0.24447922327E+01  0.14221554312E+03 -0.37435672514E+02  0.18131785682E+03  0.10603536161E+03 0.  0.
          5    1    3    3  502    0 -0.22851231749E+02 -0.16130843137E+03 -0.80239718462E+03  0.81878319518E+03  0.47000000000E+01 0. -1.
        -11    1    4    4    0    0  0.23878002238E+02 -0.19508090678E+01 -0.16052147672E+03  0.16229944281E+03  0.00000000000E+00 0.  1.
         12    1    4    4    0    0  0.15164001866E+02 -0.77836107197E+02 -0.13750766296E+03  0.15873488561E+03  0.00000000000E+00 0. -1.
         -5    1    5    5    0  501 -0.18635564588E+02  0.98879804510E+02 -0.11340818410E+03  0.15168390234E+03  0.47000000000E+01 0.  1.
         13    1    6    6    0    0  0.48903897691E+02  0.95687411956E+02 -0.42072523344E+02  0.11540263964E+03  0.00000000000E+00 0. -1.
        -14    1    6    6    0    0 -0.46459105458E+02  0.46528131166E+02  0.46368508308E+01  0.65915217177E+02  0.00000000000E+00 0.  1.
</event>
<event>
12    1  0.2614920E-002  0.1816374E+03  0.7818608E-02  0.1166228E+00
          2   -1    0    0  502    0  0.00000000000E+00  0.00000000000E+00  0.28039726318E+03  0.28039726318E+03  0.00000000000E+00 0.  1.
         -2   -1    0    0    0  501 -0.00000000000E+00 -0.00000000000E+00 -0.11807676532E+03  0.11807676532E+03  0.00000000000E+00 0. -1.
          6    2    1    2  502    0  0.51765916184E+02 -0.34462470468E+02  0.68973631806E+02  0.19339909113E+03  0.16964219586E+03 0.  0.
         24    2    3    3    0    0  0.52441880934E+02 -0.85181457940E+02  0.38498841272E+02  0.13403853624E+03  0.80486873246E+02 0.  0.
         -6    2    1    2    0  501 -0.51765916184E+02  0.34462470468E+02  0.93346866055E+02  0.20507493738E+03  0.17168203340E+03 0.  0.
        -24    2    5    5    0    0 -0.47794593594E+02 -0.39982340541E+02  0.31649277717E+02  0.10819107033E+03  0.82587651536E+02 0.  0.
          5    1    3    3  502    0 -0.67596475014E+00  0.50718987472E+02  0.30474790534E+02  0.59360554888E+02  0.47000000000E+01 0. -1.
        -11    1    4    4    0    0  0.49410491155E+02 -0.67759196968E+01  0.16852896553E+02  0.52643421680E+02  0.00000000000E+00 0.  1.
         12    1    4    4    0    0  0.30313897794E+01 -0.78405538244E+02  0.21645944719E+02  0.81395114559E+02  0.00000000000E+00 0. -1.
         -5    1    5    5    0  501 -0.39713225898E+01  0.74444811009E+02  0.61697588338E+02  0.96883867057E+02  0.47000000000E+01 0.  1.
         13    1    6    6    0    0 -0.18488582595E+02 -0.38782063943E+02  0.55641050304E+02  0.70297956222E+02  0.00000000000E+00 0. -1.
        -14    1    6    6    0    0 -0.29306011000E+02 -0.12002765979E+01 -0.23991772587E+02  0.37893114104E+02  0.00000000000E+00 0.  1.
</event>
<event>
12    1  0.2614920E-002  0.1758331E+03  0.7818608E-02  0.1171898E+00
         -2   -1    0    0    0  501 -0.00000000000E+00  0.00000000000E+00  0.59695516214E+02  0.59695516214E+02  0.00000000000E+00 0.  1.
          2   -1    0    0  502    0  0.00000000000E+00 -0.00000000000E+00 -0.84754145026E+03  0.84754145026E+03  0.00000000000E+00 0. -1.
          6    2    1    2  502    0 -0.30767260638E+02 -0.15573200016E+02 -0.10969130243E+03  0.20640921446E+03  0.17141596513E+03 0.  0.
         24    2    3    3    0    0 -0.32233573275E+01 -0.29436408375E+02  0.79730840586E+01  0.84680610584E+02  0.78932525419E+02 0.  0.
         -6    2    1    2    0  501  0.30767260638E+02  0.15573200016E+02 -0.67815463161E+03  0.70082775201E+03  0.17342630918E+03 0.  0.
        -24    2    5    5    0    0  0.83744392618E+02  0.11294272340E+02 -0.54141144017E+03  0.55404329730E+03  0.81834857250E+02 0.  0.
          5    1    3    3  502    0 -0.27543903310E+02  0.13863208359E+02 -0.11766438649E+03  0.12172860388E+03  0.47000000000E+01 0. -1.
        -13    1    4    4    0    0 -0.32640125485E+02 -0.41187239427E+02  0.32431367313E+01  0.52652487302E+02  0.00000000000E+00 0.  1.
         14    1    4    4    0    0  0.29416768157E+02  0.11750831052E+02  0.47299473272E+01  0.32028123282E+02  0.00000000000E+00 0. -1.
         -5    1    5    5    0  501 -0.52977131980E+02  0.42789276767E+01 -0.13674319145E+03  0.14678445470E+03  0.47000000000E+01 0.  1.
         13    1    6    6    0    0 -0.74510331935E+01  0.17915125241E+02 -0.41156786025E+02  0.45501105964E+02  0.00000000000E+00 0. -1.
        -14    1    6    6    0    0  0.91195425811E+02 -0.66208529013E+01 -0.50025465414E+03  0.50854219134E+03  0.00000000000E+00 0.  1.
</event>
<event>
12    1  0.2614920E-002  0.1882021E+03  0.7818608E-02  0.1160093E+00
         -2   -1    0    0    0  501 -0.00000000000E+00  0.00000000000E+00  0.29824428509E+02  0.29824428509E+02  0.00000000000E+00 0.  1.
          2   -1    0    0  502    0  0.00000000000E+00 -0.00000000000E+00 -0.12931392293E+04  0.12931392293E+04  0.00000000000E+00 0. -1.
          6    2    1    2  502    0  0.70575139016E+02  0.17036349668E+02 -0.83150447214E+03  0.85336396313E+03  0.17764931443E+03 0.  0.
         24    2    3    3    0    0 -0.14424225607E+02 -0.34363366609E+02 -0.47069470530E+03  0.47910122030E+03  0.81213142090E+02 0.  0.
         -6    2    1    2    0  501 -0.70575139016E+02 -0.17036349668E+02 -0.43181032868E+03  0.46959969471E+03  0.16968389983E+03 0.  0.
        -24    2    5    5    0    0 -0.11458434729E+03 -0.39831856908E+02 -0.27122162485E+03  0.30147097212E+03  0.51062978528E+02 0.  0.
          5    1    3    3  502    0  0.84999364623E+02  0.51399716277E+02 -0.36080976684E+03  0.37426274283E+03  0.47000000000E+01 0. -1.
        -13    1    4    4    0    0 -0.54094569115E+01 -0.63322089349E+01 -0.89106314553E+00  0.83757440029E+01  0.00000000000E+00 0.  1.
         14    1    4    4    0    0 -0.90147686957E+01 -0.28031157674E+02 -0.46980364215E+03  0.47072547630E+03  0.00000000000E+00 0. -1.
         -5    1    5    5    0  501  0.44009208271E+02  0.22795507240E+02 -0.16058870383E+03  0.16812872260E+03  0.47000000000E+01 0.  1.
         13    1    6    6    0    0 -0.33765506780E+02 -0.63240144141E+01 -0.32771729739E+02  0.47477245882E+02  0.00000000000E+00 0. -1.
        -14    1    6    6    0    0 -0.80818840506E+02 -0.33507842494E+02 -0.23844989511E+03  0.25399372624E+03  0.00000000000E+00 0.  1.
</event>
<event>
12    1  0.2614920E-002  0.1804824E+03  0.7818608E-02  0.1167337E+00
          2   -1    0    0  502    0  0.00000000000E+00  0.00000000000E+00  0.19121270719E+03  0.19121270719E+03  0.00000000000E+00 0. -1.
         -2   -1    0    0    0  501 -0.00000000000E+00 -0.00000000000E+00 -0.17647091567E+03  0.17647091567E+03  0.00000000000E+00 0.  1.
          6    2    1    2  502    0 -0.38422707024E+02  0.25734055359E+02  0.41405612322E+02  0.18276177988E+03  0.17189792736E+03 0.  0.
         24    2    3    3    0    0  0.50174935680E+01  0.11750243146E+02  0.86100974527E+02  0.11871208484E+03  0.80721359118E+02 0.  0.
         -6    2    1    2    0  501  0.38422707024E+02 -0.25734055359E+02 -0.26663820802E+02  0.18492184299E+03  0.17704966155E+03 0.  0.
        -24    2    5    5    0    0  0.54181395201E+02 -0.39154029647E+02  0.41437712733E+02  0.11358923591E+03  0.81955895786E+02 0.  0.
          5    1    3    3  502    0 -0.43440200592E+02  0.13983812213E+02 -0.44695362204E+02  0.64049695035E+02  0.47000000000E+01 0. -1.
        -11    1    4    4    0    0 -0.13958281769E+02 -0.11575733385E+02  0.86760451124E+02  0.88635247574E+02  0.00000000000E+00 0.  1.
         12    1    4    4    0    0  0.18975775337E+02  0.23325976531E+02 -0.65947659729E+00  0.30076837269E+02  0.00000000000E+00 0. -1.
         -5    1    5    5    0  501 -0.15758688177E+02  0.13419974288E+02 -0.68101533535E+02  0.71332607079E+02  0.47000000000E+01 0.  1.
         11    1    6    6    0    0 -0.18282735035E+02  0.60712328240E+01  0.14201662413E+02  0.23933355044E+02  0.00000000000E+00 0. -1.
        -12    1    6    6    0    0  0.72464130236E+02 -0.45225262471E+02  0.27236050320E+02  0.89655880864E+02  0.00000000000E+00 0.  1.
</event>
<event>
12    1  0.2614920E-002  0.3327423E+03  0.7818608E-02  0.1069930E+00
          1   -1    0    0  502    0  0.00000000000E+00  0.00000000000E+00  0.77435472467E+03  0.77435472467E+03  0.00000000000E+00 0. -1.
         -1   -1    0    0    0  501 -0.00000000000E+00 -0.00000000000E+00 -0.16185255275E+03  0.16185255275E+03  0.00000000000E+00 0.  1.
          6    2    1    2  502    0 -0.14057158702E+03  0.24564459152E+03  0.46437803326E+03  0.57007888913E+03  0.17100101065E+03 0.  0.
         24    2    3    3    0    0 -0.11563351179E+02  0.92489297065E+02  0.23886176440E+03  0.26845106109E+03  0.79517598948E+02 0.  0.
         -6    2    1    2    0  501  0.14057158702E+03 -0.24564459152E+03  0.14812413866E+03  0.36612838829E+03  0.17890667913E+03 0.  0.
        -24    2    5    5    0    0  0.16594936273E+03 -0.23085449717E+03  0.10396561649E+03  0.31288514017E+03  0.79090275430E+02 0.  0.
          5    1    3    3  502    0 -0.12900823584E+03  0.15315529446E+03  0.22551626886E+03  0.30162782805E+03  0.47000000000E+01 0. -1.
        -11    1    4    4    0    0 -0.35029828482E+02  0.16420445508E+02  0.11386113320E+03  0.12025422058E+03  0.00000000000E+00 0.  1.
         12    1    4    4    0    0  0.23466477304E+02  0.76068851557E+02  0.12500063120E+03  0.14819684050E+03  0.00000000000E+00 0. -1.
         -5    1    5    5    0  501 -0.25377775714E+02 -0.14790094350E+02  0.44158522170E+02  0.53243248128E+02  0.47000000000E+01 0.  1.
         13    1    6    6    0    0  0.28707217278E+02 -0.26815142963E+01  0.10828502613E+02  0.30798560220E+02  0.00000000000E+00 0. -1.
        -14    1    6    6    0    0  0.13724214545E+03 -0.22817298288E+03  0.93137113880E+02  0.28208657995E+03  0.00000000000E+00 0.  1.
</event>
<event>
12    1  0.2614920E-002  0.1890077E+03  0.7818608E-02  0.1159359E+00
          2   -1    0    0  502    0  0.00000000000E+00  0.00000000000E+00  0.27390620894E+04  0.27390620894E+04  0.00000000000E+00 0. -1.
         -2   -1    0    0    0  501 -0.00000000000E+00 -0.00000000000E+00 -0.13050378808E+02  0.13050378808E+02  0.00000000000E+00 0.  1.
          6    2    1    2  502    0  0.69572460577E+02 -0.39918718727E+02  0.14093369179E+04  0.14222685380E+04  0.17373374642E+03 0.  0.
         24    2    3    3    0    0  0.59062548420E+02 -0.35950082041E+01  0.40241589357E+03  0.41462678150E+03  0.80470540133E+02 0.  0.
         -6    2    1    2    0  501 -0.69572460577E+02  0.39918718727E+02  0.13166747927E+04  0.13298439302E+04  0.16857798680E+03 0.  0.
        -24    2    5    5    0    0 -0.91642639598E+02  0.19994164868E+02  0.60469956960E+03  0.61723261333E+03  0.80724156629E+02 0.  0.
          5    1    3    3  502    0  0.10509912156E+02 -0.36323710523E+02  0.10069210243E+04  0.10076417565E+04  0.47000000000E+01 0. -1.
        -13    1    4    4    0    0 -0.99527215639E+01  0.22928405224E+02  0.12845461477E+03  0.13086388535E+03  0.00000000000E+00 0.  1.
         14    1    4    4    0    0  0.69015269984E+02 -0.26523413428E+02  0.27396127880E+03  0.28376289615E+03  0.00000000000E+00 0. -1.
         -5    1    5    5    0  501  0.22070179022E+02  0.19924553859E+02  0.71197522310E+03  0.71261131688E+03  0.47000000000E+01 0.  1.
         13    1    6    6    0    0  0.47832842187E+01 -0.18884629565E+02  0.80687697227E+02  0.83006105351E+02  0.00000000000E+00 0. -1.
        -14    1    6    6    0    0 -0.96425923817E+02  0.38878794433E+02  0.52401187237E+03  0.53422650798E+03  0.00000000000E+00 0.  1.
</event>
<event>
12    1  0.2614920E-002  0.2162800E+03  0.7818608E-02  0.1136687E+00
          1   -1    0    0  502    0  0.00000000000E+00  0.00000000000E+00  0.75918666219E+03  0.75918666219E+03  0.00000000000E+00 0.  1.
         -1   -1    0    0    0  501 -0.00000000000E+00 -0.00000000000E+00 -0.63670286774E+02  0.63670286774E+02  0.00000000000E+00 0. -1.
          6    2    1    2  502    0 -0.89478344990E+02 -0.97223143826E+02  0.42142562395E+03  0.47360839413E+03  0.17101649204E+03 0.  0.
         24    2    3    3    0    0 -0.58062607866E+02  0.13358431087E+02  0.17149142444E+03  0.19846401869E+03  0.80180695589E+02 0.  0.
         -6    2    1    2    0  501  0.89478344990E+02  0.97223143826E+02  0.27409075146E+03  0.34924855483E+03  0.17143540795E+03 0.  0.
        -24    2    5    5    0    0  0.19724319864E+02 -0.11173839738E+02  0.96042072377E+02  0.12938734363E+03  0.83684535828E+02 0.  0.
          5    1    3    3  502    0 -0.31415737125E+02 -0.11058157491E+03  0.24993419951E+03  0.27514437544E+03  0.47000000000E+01 0. -1.
        -13    1    4    4    0    0  0.59652914382E+01  0.25546482899E+02  0.92004775670E+02  0.95671763006E+02  0.00000000000E+00 0.  1.
         14    1    4    4    0    0 -0.64027899304E+02 -0.12188051812E+02  0.79486648771E+02  0.10279225569E+03  0.00000000000E+00 0. -1.
         -5    1    5    5    0  501  0.69754025126E+02  0.10839698356E+03  0.17804867908E+03  0.21986121120E+03  0.47000000000E+01 0.  1.
         13    1    6    6    0    0  0.29761606113E+02 -0.12524552679E+01 -0.24506761305E+01  0.29888587389E+02  0.00000000000E+00 0. -1.
        -14    1    6    6    0    0 -0.10037286249E+02 -0.99213844702E+01  0.98492748508E+02  0.99498756242E+02  0.00000000000E+00 0.  1.
</event>
<event>
12    1  0.2614920E-002  0.2064977E+03  0.7818608E-02  0.1144370E+00
          1   -1    0    0  502    0  0.00000000000E+00  0.00000000000E+00  0.10808946873E+04  0.10808946873E+04  0.00000000000E+00 0.  1.
         -1   -1    0    0    0  501 -0.00000000000E+00 -0.00000000000E+00 -0.39884006096E+02  0.39884006096E+02  0.00000000000E+00 0. -1.
          6    2    1    2  502    0 -0.61140173524E+02 -0.97239097871E+02  0.57976851628E+03  0.61555471041E+03  0.17199565712E+03 0.  0.
         24    2    3    3    0    0  0.11808501620E+02 -0.21083199787E+02  0.38822189473E+03  0.39684616406E+03  0.78655555178E+02 0.  0.
         -6    2    1    2    0  501  0.61140173524E+02  0.97239097871E+02  0.46124216493E+03  0.50522398300E+03  0.17121149292E+03 0.  0.
        -24    2    5    5    0    0 -0.31248838289E+02  0.64431493908E+02  0.25921376140E+03  0.28061402280E+03  0.80153280624E+02 0.  0.
          5    1    3    3  502    0 -0.72948675144E+02 -0.76155898084E+02  0.19154662155E+03  0.21870854635E+03  0.47000000000E+01 0. -1.
        -11    1    4    4    0    0 -0.33716866644E+02 -0.79216018409E+01  0.14856921685E+03  0.15255291235E+03  0.00000000000E+00 0.  1.
         12    1    4    4    0    0  0.45525368265E+02 -0.13161597946E+02  0.23965267788E+03  0.24429325171E+03  0.00000000000E+00 0. -1.
         -5    1    5    5    0  501  0.92389011813E+02  0.32807603963E+02  0.20202840354E+03  0.22460996019E+03  0.47000000000E+01 0.  1.
         13    1    6    6    0    0 -0.51241246284E+02  0.21631504567E+02  0.17986191515E+03  0.18826549294E+03  0.00000000000E+00 0. -1.
        -14    1    6    6    0    0  0.19992407995E+02  0.42799989341E+02  0.79351846243E+02  0.92348529859E+02  0.00000000000E+00 0.  1.
</event>
<event>
12    1  0.2614920E-002  0.2002603E+03  0.7818608E-02  0.1149520E+00
          2   -1    0    0  502    0  0.00000000000E+00  0.00000000000E+00  0.57812190841E+03  0.57812190841E+03  0.00000000000E+00 0. -1.
         -2   -1    0    0    0  501 -0.00000000000E+00 -0.00000000000E+00 -0.83659478289E+02  0.83659478289E+02  0.00000000000E+00 0.  1.
          6    2    1    2  502    0 -0.87501116582E+02  0.53211808304E+02  0.38373544472E+03  0.43273531842E+03  0.17181100759E+03 0.  0.
         24    2    3    3    0    0  0.13117698565E+02  0.55734001609E+02  0.17209629987E+03  0.19833453973E+03  0.80256465580E+02 0.  0.
         -6    2    1    2    0  501  0.87501116582E+02 -0.53211808304E+02  0.11072698540E+03  0.22904606828E+03  0.17237660558E+03 0.  0.
        -24    2    5    5    0    0 -0.15961467034E+02 -0.10332150538E+02  0.70021279215E+02  0.10978913651E+03  0.82396317806E+02 0.  0.
          5    1    3    3  502    0 -0.10061881515E+03 -0.25221933057E+01  0.21163914485E+03  0.23440077869E+03  0.47000000000E+01 0. -1.
        -13    1    4    4    0    0 -0.10868624451E+02  0.67606691928E+02  0.97997413187E+02  0.11955034413E+03  0.00000000000E+00 0.  1.
         14    1    4    4    0    0  0.23986323016E+02 -0.11872690318E+02  0.74098886686E+02  0.78784195593E+02  0.00000000000E+00 0. -1.
         -5    1    5    5    0  501  0.10346258362E+03 -0.42879657766E+02  0.40705706183E+02  0.11925693177E+03  0.47000000000E+01 0.  1.
         13    1    6    6    0    0 -0.18606336896E+02  0.16660577226E+02 -0.87621931093E+01  0.26467841512E+02  0.00000000000E+00 0. -1.
        -14    1    6    6    0    0  0.26448698622E+01 -0.26992727764E+02  0.78783472324E+02  0.83321294998E+02  0.00000000000E+00 0.  1.
</event>
<event>
12    1  0.2614920E-002  0.1953073E+03  0.7818608E-02  0.1153760E+00
          1   -1    0    0  502    0  0.00000000000E+00  0.00000000000E+00  0.12306283794E+03  0.12306283794E+03  0.00000000000E+00 0.  1.
         -1   -1    0    0    0  501 -0.00000000000E+00 -0.00000000000E+00 -0.38908950377E+03  0.38908950377E+03  0.00000000000E+00 0. -1.
          6    2    1    2  502    0 -0.89328190376E+02  0.46000578976E+02 -0.19590669253E+02  0.19992124675E+03  0.17172399867E+03 0.  0.
         24    2    3    3    0    0 -0.12748055150E+03  0.60994745129E+02 -0.19336731853E+02  0.15865888906E+03  0.69477218802E+02 0.  0.
         -6    2    1    2    0  501  0.89328190376E+02 -0.46000578976E+02 -0.24643599658E+03  0.31223109496E+03  0.16328495763E+03 0.  0.
        -24    2    5    5    0    0  0.64119831497E+02 -0.76622972048E+02 -0.23998894662E+03  0.27177313199E+03  0.79268582256E+02 0.  0.
          5    1    3    3  502    0  0.38152361129E+02 -0.14994166152E+02 -0.25393739998E+00  0.41262357694E+02  0.47000000000E+01 0. -1.
        -11    1    4    4    0    0 -0.98758173026E+02  0.48359051663E+02  0.16313369515E+02  0.11116609484E+03  0.00000000000E+00 0.  1.
         12    1    4    4    0    0 -0.28722378479E+02  0.12635693466E+02 -0.35650101368E+02  0.47492794216E+02  0.00000000000E+00 0. -1.
         -5    1    5    5    0  501  0.25208358880E+02  0.30622393071E+02 -0.64470499562E+01  0.40457962973E+02  0.47000000000E+01 0.  1.
         11    1    6    6    0    0  0.60284716198E+02 -0.11434297265E+02 -0.13221278696E+03  0.14575737099E+03  0.00000000000E+00 0. -1.
        -12    1    6    6    0    0  0.38351152985E+01 -0.65188674782E+02 -0.10777615966E+03  0.12601576100E+03  0.00000000000E+00 0.  1.
</event>
<event>
12    1  0.2614920E-002  0.2278520E+03  0.7818608E-02  0.1128161E+00
          2   -1    0    0  502    0  0.00000000000E+00  0.00000000000E+00  0.24616056076E+04  0.24616056076E+04  0.00000000000E+00 0. -1.
         -2   -1    0    0    0  501 -0.00000000000E+00 -0.00000000000E+00 -0.21312797696E+02  0.21312797696E+02  0.00000000000E+00 0.  1.
          6    2    1    2  502    0 -0.12162528186E+03  0.73239078548E+02  0.13179568576E+04  0.13366863989E+04  0.17194062563E+03 0.  0.
         24    2    3    3    0    0 -0.67173405792E+02  0.87026791838E+02  0.11780495277E+04  0.11858511948E+04  0.79727269615E+02 0.  0.
         -6    2    1    2    0  501  0.12162528186E+03 -0.73239078548E+02  0.11223359522E+04  0.11462320063E+04  0.18453495820E+03 0.  0.
        -24    2    5    5    0    0  0.87374061996E+02  0.47810731073E+01  0.35208450653E+03  0.37126770408E+03  0.78861416311E+02 0.  0.
          5    1    3    3  502    0 -0.54451876065E+02 -0.13787713290E+02  0.13990732988E+03  0.15083520411E+03  0.47000000000E+01 0. -1.
        -11    1    4    4    0    0  0.93179064629E+01  0.43855332183E+02  0.28667850167E+03  0.29016319005E+03  0.00000000000E+00 0.  1.
         12    1    4    4    0    0 -0.76491312255E+02  0.43171459655E+02  0.89137102608E+03  0.89568800478E+03  0.00000000000E+00 0. -1.
         -5    1    5    5    0  501  0.34251219861E+02 -0.78020151655E+02  0.77025144570E+03  0.77496430223E+03  0.47000000000E+01 0.  1.
         13    1    6    6    0    0  0.37149148812E+02 -0.79019503128E+01  0.27964398994E+03  0.28221137678E+03  0.00000000000E+00 0. -1.
        -14    1    6    6    0    0  0.50224913183E+02  0.12683023420E+02  0.72440516592E+02  0.89056327296E+02  0.00000000000E+00 0.  1.
</event>
<event>
12    1  0.2614920E-002  0.1995261E+03  0.7818608E-02  0.1150139E+00
         -1   -1    0    0    0  501 -0.00000000000E+00  0.00000000000E+00  0.12419697871E+03  0.12419697871E+03  0.00000000000E+00 0. -1.
          1   -1    0    0  502    0  0.00000000000E+00 -0.00000000000E+00 -0.32313271166E+03  0.32313271166E+03  0.00000000000E+00 0.  1.
          6    2    1    2  502    0  0.89277662240E+02 -0.42463096526E+02 -0.11998240848E+03  0.23375146465E+03  0.17455759319E+03 0.  0.
         24    2    3    3    0    0  0.10461669522E+03 -0.84535621321E+02 -0.93995969850E+02  0.18176330957E+03  0.78177580977E+02 0.  0.
         -6    2    1    2    0  501 -0.89277662240E+02  0.42463096526E+02 -0.78953324478E+02  0.21357822572E+03  0.17207096069E+03 0.  0.
        -24    2    5    5    0    0 -0.46215969900E+02 -0.82692899081E+01 -0.10563018228E+03  0.14173235512E+03  0.82012365219E+02 0.  0.
          5    1    3    3  502    0 -0.15339032984E+02  0.42072524795E+02 -0.25986438626E+02  0.51988155074E+02  0.47000000000E+01 0. -1.
        -11    1    4    4    0    0  0.30803667424E+02 -0.71208885581E+02 -0.30062730336E+02  0.83206604712E+02  0.00000000000E+00 0.  1.
         12    1    4    4    0    0  0.73813027800E+02 -0.13326735740E+02 -0.63933239514E+02  0.98556704862E+02  0.00000000000E+00 0. -1.
         -5    1    5    5    0  501 -0.43061692340E+02  0.50732386434E+02  0.26676857803E+02  0.71845870603E+02  0.47000000000E+01 0.  1.
         13    1    6    6    0    0 -0.24707092918E+02  0.28678327327E+01 -0.11355538066E+03  0.11624753495E+03  0.00000000000E+00 0. -1.
        -14    1    6    6    0    0 -0.21508876982E+02 -0.11137122641E+02  0.79251983767E+01  0.25484820169E+02  0.00000000000E+00 0.  1.
</event>
<event>
12    1  0.2614920E-002  0.1759342E+03  0.7818608E-02  0.1171797E+00
          3   -1    0    0  502    0  0.00000000000E+00  0.00000000000E+00  0.49086425120E+03  0.49086425120E+03  0.00000000000E+00 0.  1.
         -3   -1    0    0    0  501 -0.00000000000E+00 -0.00000000000E+00 -0.66070747531E+02  0.66070747531E+02  0.00000000000E+00 0. -1.
          6    2    1    2  502    0 -0.26380899474E+02 -0.58009740445E+01  0.15325339184E+03  0.23353224596E+03  0.17412956278E+03 0.  0.
         24    2    3    3    0    0 -0.56513423975E+02 -0.57934652995E+02  0.11561411507E+03  0.16236557771E+03  0.80285528682E+02 0.  0.
         -6    2    1    2    0  501  0.26380899474E+02  0.58009740445E+01  0.27154011182E+03  0.32340275277E+03  0.17356758053E+03 0.  0.
        -24    2    5    5    0    0  0.36371780555E+02  0.52657048929E+01  0.51245893367E+02  0.10283136545E+03  0.81225082730E+02 0.  0.
          5    1    3    3  502    0  0.30132524500E+02  0.52133678950E+02  0.37639276778E+02  0.71166668252E+02  0.47000000000E+01 0. -1.
        -13    1    4    4    0    0  0.55945233079E+01 -0.34613748983E+02  0.79367206970E+02  0.86767297134E+02  0.00000000000E+00 0.  1.
         14    1    4    4    0    0 -0.62107947283E+02 -0.23320904012E+02  0.36246908097E+02  0.75598280577E+02  0.00000000000E+00 0. -1.
         -5    1    5    5    0  501 -0.99908810805E+01  0.53526915169E+00  0.22029421845E+03  0.22057138732E+03  0.47000000000E+01 0.  1.
         13    1    6    6    0    0 -0.24136308367E+02 -0.97220867306E+01  0.90219764840E+01  0.27540450462E+02  0.00000000000E+00 0. -1.
        -14    1    6    6    0    0  0.60508088922E+02  0.14987791623E+02  0.42223916883E+02  0.75290914988E+02  0.00000000000E+00 0.  1.
</event>
<event>
12    1  0.2614920E-002  0.1765528E+03  0.7818608E-02  0.1171182E+00
          1   -1    0    0  502    0  0.00000000000E+00  0.00000000000E+00  0.85527418949E+03  0.85527418949E+03  0.00000000000E+00 0. -1.
         -1   -1    0    0    0  501 -0.00000000000E+00 -0.00000000000E+00 -0.39596821585E+02  0.39596821585E+02  0.00000000000E+00 0.  1.
          6    2    1    2  502    0 -0.34300263909E+02  0.44078890503E+02  0.27232347994E+03  0.32208865215E+03  0.16267011227E+03 0.  0.
         24    2    3    3    0    0 -0.78903699180E+02  0.53033608831E+02  0.17204921175E+03  0.21187670961E+03  0.79072444004E+02 0.  0.
         -6    2    1    2    0  501  0.34300263909E+02 -0.44078890503E+02  0.54335388797E+03  0.57278235893E+03  0.17241440321E+03 0.  0.
        -24    2    5    5    0    0  0.77977458762E+02  0.78080096723E+01  0.36890653041E+03  0.38555544228E+03  0.80121918335E+02 0.  0.
          5    1    3    3  502    0  0.44603435271E+02 -0.89547183279E+01  0.10027426819E+03  0.11021194254E+03  0.47000000000E+01 0. -1.
        -11    1    4    4    0    0 -0.74949215980E+01  0.38690556374E+02  0.22122344760E+02  0.45194370667E+02  0.00000000000E+00 0.  1.
         12    1    4    4    0    0 -0.71408777582E+02  0.14343052457E+02  0.14992686699E+03  0.16668233894E+03  0.00000000000E+00 0. -1.
         -5    1    5    5    0  501 -0.43677194853E+02 -0.51886900176E+02  0.17444735755E+03  0.18722691665E+03  0.47000000000E+01 0.  1.
         13    1    6    6    0    0  0.23926122222E+02 -0.29354590905E+02  0.21413232769E+03  0.21745529448E+03  0.00000000000E+00 0. -1.
        -14    1    6    6    0    0  0.54051336540E+02  0.37162600578E+02  0.15477420272E+03  0.16810014780E+03  0.00000000000E+00 0.  1.
</event>
<event>
12    1  0.2967011E-002  0.2219469E+03  0.7818608E-02  0.1132440E+00
         -2   -1    0    0    0  501 -0.00000000000E+00  0.00000000000E+00  0.81969173094E+02  0.81969173094E+02  0.00000000000E+00 0. -1.
          2   -1    0    0  502    0  0.00000000000E+00 -0.00000000000E+00 -0.60492208069E+03  0.60492208069E+03  0.00000000000E+00 0.  1.
          6    2    1    2  502    0 -0.80693579207E+02  0.11482296901E+03 -0.28929719677E+03  0.36464642638E+03  0.17198366281E+03 0.  0.
         24    2    3    3    0    0 -0.11911762382E+03  0.61446932174E+02 -0.19535487714E+03  0.24987422621E+03  0.79428377321E+02 0.  0.
         -6    2    1    2    0  501  0.80693579207E+02 -0.11482296901E+03 -0.23365571083E+03  0.32224482741E+03  0.17190395473E+03 0.  0.
        -24    2    5    5    0    0  0.96274058039E+02 -0.10685444954E+03 -0.24806444969E+03  0.29909422528E+03  0.85057726025E+02 0.  0.
          5    1    3    3  502    0  0.38424044618E+02  0.53376036834E+02 -0.93942319632E+02  0.11477220017E+03  0.47000000000E+01 0. -1.
        -13    1    4    4    0    0 -0.28593797207E+02  0.29971897846E+02 -0.12300286092E+03  0.12979069186E+03  0.00000000000E+00 0.  1.
         14    1    4    4    0    0 -0.90523826618E+02  0.31475034328E+02 -0.72352016220E+02  0.12008353435E+03  0.00000000000E+00 0. -1.
         -5    1    5    5    0  501 -0.15580478832E+02 -0.79685194678E+01  0.14408738867E+02  0.23150602128E+02  0.47000000000E+01 0.  1.
         11    1    6    6    0    0  0.31717047183E+02 -0.40992408673E+02 -0.24650050256E+02  0.57393149665E+02  0.00000000000E+00 0. -1.
        -12    1    6    6    0    0  0.64557010856E+02 -0.65862040868E+02 -0.22341439944E+03  0.24170107561E+03  0.00000000000E+00 0.  1.
</event>
<event>
12    1  0.2614920E-002  0.1985346E+03  0.7818608E-02  0.1150981E+00
         -2   -1    0    0    0  501 -0.00000000000E+00  0.00000000000E+00  0.14504176062E+02  0.14504176062E+02  0.00000000000E+00 0.  1.
          2   -1    0    0  502    0  0.00000000000E+00 -0.00000000000E+00 -0.29375060912E+04  0.29375060912E+04  0.00000000000E+00 0. -1.
          6    2    1    2  502    0  0.86604289900E+02 -0.32920346278E+01 -0.18828882628E+04  0.18936067290E+04  0.18156842617E+03 0.  0.
         24    2    3    3    0    0 -0.10906765457E+02 -0.46639766833E+02 -0.95418435773E+03  0.95878029318E+03  0.80607919412E+02 0.  0.
         -6    2    1    2    0  501 -0.86604289900E+02  0.32920346278E+01 -0.10401136523E+04  0.10584035383E+04  0.17570002709E+03 0.  0.
        -24    2    5    5    0    0 -0.57763025261E+02  0.16115056035E+02 -0.10142170370E+04  0.10173064203E+04  0.51767676979E+02 0.  0.
          5    1    3    3  502    0  0.97511055357E+02  0.43347732205E+02 -0.92870390507E+03  0.93482643581E+03  0.47000000000E+01 0. -1.
        -11    1    4    4    0    0 -0.21362979479E+02  0.75629913990E+01 -0.89113509993E+02  0.91949950486E+02  0.00000000000E+00 0.  1.
         12    1    4    4    0    0  0.10456214022E+02 -0.54202758232E+02 -0.86507084774E+03  0.86683034270E+03  0.00000000000E+00 0. -1.
         -5    1    5    5    0  501 -0.28841264638E+02 -0.12823021407E+02 -0.25896615297E+02  0.41097117999E+02  0.47000000000E+01 0.  1.
         11    1    6    6    0    0 -0.63091160115E+02  0.91877960873E+00 -0.81728393175E+03  0.81971602628E+03  0.00000000000E+00 0. -1.
        -12    1    6    6    0    0  0.53281348534E+01  0.15196276426E+02 -0.19693310528E+03  0.19759039398E+03  0.00000000000E+00 0.  1.
</event>
<event>
12    1  0.2614920E-002  0.1881595E+03  0.7818608E-02  0.1160132E+00
          2   -1    0    0  502    0  0.00000000000E+00  0.00000000000E+00  0.98420583337E+03  0.98420583337E+03  0.00000000000E+00 0.  1.
         -2   -1    0    0    0  501 -0.00000000000E+00 -0.00000000000E+00 -0.47401480095E+02  0.47401480095E+02  0.00000000000E+00 0. -1.
          6    2    1    2  502    0  0.74737353573E+01 -0.74917707234E+02  0.72428822935E+03  0.74868292908E+03  0.17396600109E+03 0.  0.
         24    2    3    3    0    0 -0.33139258368E+02 -0.46719587127E+02  0.66050713049E+03  0.66784563689E+03  0.80418872224E+02 0.  0.
         -6    2    1    2    0  501 -0.74737353573E+01  0.74917707234E+02  0.21251612392E+03  0.28292438439E+03  0.17092274505E+03 0.  0.
        -24    2    5    5    0    0  0.47533785767E+02  0.80673820471E+02  0.10775690154E+03  0.16436830106E+03  0.81471850753E+02 0.  0.
          5    1    3    3  502    0  0.40612993725E+02 -0.28198120107E+02  0.63781098856E+02  0.80837292187E+02  0.47000000000E+01 0. -1.
        -13    1    4    4    0    0  0.25313353848E+02 -0.23394336074E+02  0.28861581420E+03  0.29066673192E+03  0.00000000000E+00 0.  1.
         14    1    4    4    0    0 -0.58452612216E+02 -0.23325251054E+02  0.37189131630E+03  0.37717890496E+03  0.00000000000E+00 0. -1.
         -5    1    5    5    0  501 -0.55007521124E+02 -0.57561132367E+01  0.10475922238E+03  0.11855608333E+03  0.47000000000E+01 0.  1.
         13    1    6    6    0    0 -0.51346467990E+00 -0.79331649765E+01 -0.77250090646E+01  0.11084877878E+02  0.00000000000E+00 0. -1.
        -14    1    6    6    0    0  0.48047250446E+02  0.88606985447E+02  0.11548191060E+03  0.15328342318E+03  0.00000000000E+00 0.  1.
</event>
<event>
12    1  0.2614920E-002  0.2485610E+03  0.7818608E-02  0.1114218E+00
         -2   -1    0    0    0  501 -0.00000000000E+00  0.00000000000E+00  0.32178839816E+02  0.32178839816E+02  0.00000000000E+00 0.  1.
          2   -1    0    0  502    0  0.00000000000E+00 -0.00000000000E+00 -0.19560145801E+04  0.19560145801E+04  0.00000000000E+00 0. -1.
          6    2    1    2  502    0  0.17354177803E+03 -0.46033459632E+02 -0.82774424092E+03  0.86431629406E+03  0.17218100844E+03 0.  0.
         24    2    3    3    0    0  0.69474096928E+02 -0.86373410052E+02 -0.36913751157E+03  0.39229975192E+03  0.73140801171E+02 0.  0.
         -6    2    1    2    0  501 -0.17354177803E+03  0.46033459632E+02 -0.10960914994E+04  0.11238771259E+04  0.17160242110E+03 0.  0.
        -24    2    5    5    0    0 -0.19914564891E+03  0.29378661443E+02 -0.98772200813E+03  0.10111873875E+04  0.79894130067E+02 0.  0.
          5    1    3    3  502    0  0.10406768111E+03  0.40339950420E+02 -0.45860672934E+03  0.47201654214E+03  0.47000000000E+01 0. -1.
        -11    1    4    4    0    0  0.72712069885E+02 -0.51970403604E+02 -0.19146178864E+03  0.21129501761E+03  0.00000000000E+00 0.  1.
         12    1    4    4    0    0 -0.32379729575E+01 -0.34403006447E+02 -0.17767572294E+03  0.18100473431E+03  0.00000000000E+00 0. -1.
         -5    1    5    5    0  501  0.25603870879E+02  0.16654798189E+02 -0.10836949126E+03  0.11268973841E+03  0.47000000000E+01 0.  1.
         11    1    6    6    0    0 -0.30771784799E+02  0.19521549491E+02 -0.33692717598E+03  0.33889218868E+03  0.00000000000E+00 0. -1.
        -12    1    6    6    0    0 -0.16837386411E+03  0.98571119522E+01 -0.65079483215E+03  0.67229519880E+03  0.00000000000E+00 0.  1.
</event>
<event>
12    1  0.2614920E-002  0.1901976E+03  0.7818608E-02  0.1158283E+00
         -2   -1    0    0    0  501 -0.00000000000E+00  0.00000000000E+00  0.31855019771E+02  0.31855019771E+02  0.00000000000E+00 0. -1.
          2   -1    0    0  502    0  0.00000000000E+00 -0.00000000000E+00 -0.11563876621E+04  0.11563876621E+04  0.00000000000E+00 0.  1.
          6    2    1    2  502    0  0.56997076369E+02  0.45973340907E+02 -0.47354030659E+03  0.50907146488E+03  0.17190439086E+03 0.  0.
         24    2    3    3    0    0  0.36490683228E+02 -0.34884552371E+02 -0.18199850452E+03  0.20579399552E+03  0.81726439955E+02 0.  0.
         -6    2    1    2    0  501 -0.56997076369E+02 -0.45973340907E+02 -0.65099233577E+03  0.67917121702E+03  0.17922138828E+03 0.  0.
        -24    2    5    5    0    0  0.19589885079E+02  0.85298101658E+01 -0.17211485988E+03  0.19113240397E+03  0.80321538797E+02 0.  0.
          5    1    3    3  502    0  0.20506393141E+02  0.80857893278E+02 -0.29154180208E+03  0.30327746936E+03  0.47000000000E+01 0. -1.
        -13    1    4    4    0    0  0.58879172573E+01 -0.10347168542E+02  0.62889597237E+01  0.13464118273E+02  0.00000000000E+00 0.  1.
         14    1    4    4    0    0  0.30602765970E+02 -0.24537383829E+02 -0.18828746424E+03  0.19232987724E+03  0.00000000000E+00 0. -1.
         -5    1    5    5    0  501 -0.76586961448E+02 -0.54503151072E+02 -0.47887747588E+03  0.48803881305E+03  0.47000000000E+01 0.  1.
         13    1    6    6    0    0 -0.23027728999E+01 -0.33086610199E+02 -0.47438405189E+02  0.57882888874E+02  0.00000000000E+00 0. -1.
        -14    1    6    6    0    0  0.21892657979E+02  0.41616420365E+02 -0.12467645470E+03  0.13324951509E+03  0.00000000000E+00 0.  1.
</event>
<event>
12    1  0.2614920E-002  0.2172232E+03  0.7818608E-02  0.1135970E+00
         -2   -1    0    0    0  501 -0.00000000000E+00  0.00000000000E+00  0.59420600624E+02  0.59420600624E+02  0.00000000000E+00 0. -1.
          2   -1    0    0  502    0  0.00000000000E+00 -0.00000000000E+00 -0.17300160858E+04  0.17300160858E+04  0.00000000000E+00 0.  1.
          6    2    1    2  502    0 -0.10057628059E+03  0.83865368986E+02 -0.14937225061E+04  0.15094626725E+04  0.17355588706E+03 0.  0.
         24    2    3    3    0    0 -0.83496212902E+02  0.22392244831E+02 -0.13029618134E+04  0.13082602729E+04  0.79764805865E+02 0.  0.
         -6    2    1    2    0  501  0.10057628059E+03 -0.83865368986E+02 -0.17687297905E+03  0.27997401396E+03  0.17306764412E+03 0.  0.
        -24    2    5    5    0    0  0.12752338380E+03 -0.10296702804E+03 -0.13941834181E+03  0.22981467185E+03  0.80702460203E+02 0.  0.
          5    1    3    3  502    0 -0.17080067685E+02  0.61473124155E+02 -0.19076069274E+03  0.20120239959E+03  0.47000000000E+01 0. -1.
        -13    1    4    4    0    0 -0.27565652476E+02 -0.30006281578E+02 -0.49261303397E+03  0.49429529976E+03  0.00000000000E+00 0.  1.
         14    1    4    4    0    0 -0.55930560426E+02  0.52398526409E+02 -0.81034877942E+03  0.81396497312E+03  0.00000000000E+00 0. -1.
         -5    1    5    5    0  501 -0.26947103214E+02  0.19101659053E+02 -0.37454637239E+02  0.50159342110E+02  0.47000000000E+01 0.  1.
         13    1    6    6    0    0  0.11561773677E+02  0.44387081287E+01  0.71127477118E+01  0.14281733803E+02  0.00000000000E+00 0. -1.
        -14    1    6    6    0    0  0.11596161012E+03 -0.10740573617E+03 -0.14653108952E+03  0.21553293804E+03  0.00000000000E+00 0.  1.
</event>
<event>
12    1  0.2614920E-002  0.1633286E+03  0.7818608E-02  0.1184989E+00
         -1   -1    0    0    0  501 -0.00000000000E+00  0.00000000000E+00  0.14189308000E+03  0.14189308000E+03  0.00000000000E+00 0. -1.
          1   -1    0    0  502    0  0.00000000000E+00 -0.00000000000E+00 -0.38577167431E+03  0.38577167431E+03  0.00000000000E+00 0.  1.
          6    2    1    2  502    0 -0.57031664135E+01  0.32634267125E+01 -0.31358446790E+03  0.35770302016E+03  0.17196818330E+03 0.  0.
         24    2    3    3    0    0  0.29954134662E+02 -0.49339672529E+02 -0.12186799925E+03  0.15567375614E+03  0.77787246009E+02 0.  0.
         -6    2    1    2    0  501  0.57031664135E+01 -0.32634267125E+01  0.69705873592E+02  0.16996173415E+03  0.15487061116E+03 0.  0.
        -24    2    5    5    0    0  0.29968348874E+02 -0.50783183002E+02  0.45813108199E+02  0.11131123922E+03  0.82548879362E+02 0.  0.
          5    1    3    3  502    0 -0.35657301076E+02  0.52603099241E+02 -0.19171646865E+03  0.20202926402E+03  0.47000000000E+01 0. -1.
        -11    1    4    4    0    0  0.16227449499E+01 -0.38125973326E+01 -0.96085590252E+02  0.96174892013E+02  0.00000000000E+00 0.  1.
         12    1    4    4    0    0  0.28331389712E+02 -0.45527075196E+02 -0.25782408998E+02  0.59498864129E+02  0.00000000000E+00 0. -1.
         -5    1    5    5    0  501 -0.24265182460E+02  0.47519756289E+02  0.23892765393E+02  0.58650494932E+02  0.47000000000E+01 0.  1.
         11    1    6    6    0    0  0.43584307322E+02 -0.47193024676E+02  0.90406413670E+00  0.64246328726E+02  0.00000000000E+00 0. -1.
        -12    1    6    6    0    0 -0.13615958449E+02 -0.35901583261E+01  0.44909044062E+02  0.47064910495E+02  0.00000000000E+00 0.  1.
</event>
<event>
12    1  0.2614920E-002  0.1794649E+03  0.7818608E-02  0.1168322E+00
         -1   -1    0    0    0  501 -0.00000000000E+00  0.00000000000E+00  0.75079036378E+02  0.75079036378E+02  0.00000000000E+00 0. -1.
          1   -1    0    0  502    0  0.00000000000E+00 -0.00000000000E+00 -0.74287348087E+03  0.74287348087E+03  0.00000000000E+00 0.  1.
          6    2    1    2  502    0  0.16597388560E+02  0.37847043963E+02 -0.70314613797E+02  0.19469182233E+03  0.17678486566E+03 0.  0.
         24    2    3    3    0    0 -0.35404308271E+02  0.75648238057E+02 -0.48306084145E+02  0.12657741764E+03  0.81928285268E+02 0.  0.
         -6    2    1    2    0  501 -0.16597388560E+02 -0.37847043963E+02 -0.59747983069E+03  0.62326069492E+03  0.17252209626E+03 0.  0.
        -24    2    5    5    0    0 -0.76169988016E+02 -0.35951616599E+02 -0.37482939333E+03  0.39272264055E+03  0.81483817343E+02 0.  0.
          5    1    3    3  502    0  0.52001696831E+02 -0.37801194094E+02 -0.22008529652E+02  0.68114404686E+02  0.47000000000E+01 0. -1.
        -11    1    4    4    0    0 -0.22925002770E+02  0.87285808125E+02 -0.57684087753E+02  0.10710659192E+03  0.00000000000E+00 0.  1.
         12    1    4    4    0    0 -0.12479305502E+02 -0.11637570068E+02  0.93780036081E+01  0.19470825729E+02  0.00000000000E+00 0. -1.
         -5    1    5    5    0  501  0.59572599456E+02 -0.18954273641E+01 -0.22265043737E+03  0.23053805437E+03  0.47000000000E+01 0.  1.
         11    1    6    6    0    0 -0.56173282400E+02 -0.60824221981E+02 -0.30327859752E+03  0.31437705283E+03  0.00000000000E+00 0. -1.
        -12    1    6    6    0    0 -0.19996705616E+02  0.24872605382E+02 -0.71550795809E+02  0.78345587718E+02  0.00000000000E+00 0.  1.
</event>
<event>
12    1  0.2614920E-002  0.2088780E+03  0.7818608E-02  0.1142458E+00
         -1   -1    0    0    0  501 -0.00000000000E+00  0.00000000000E+00  0.75794960491E+02  0.75794960491E+02  0.00000000000E+00 0.  1.
          1   -1    0    0  502    0  0.00000000000E+00 -0.00000000000E+00 -0.18168134279E+04  0.18168134279E+04  0.00000000000E+00 0. -1.
          6    2    1    2  502    0  0.11978190437E+03 -0.36542578525E+01 -0.89154013894E+02  0.22766559128E+03  0.17182003679E+03 0.  0.
         24    2    3    3    0    0  0.10975321644E+03  0.55277544567E+02 -0.34973159800E+02  0.14684983249E+03  0.72390440975E+02 0.  0.
         -6    2    1    2    0  501 -0.11978190437E+03  0.36542578525E+01 -0.16518644535E+04  0.16649427971E+04  0.17034461146E+03 0.  0.
        -24    2    5    5    0    0 -0.13824697540E+03  0.14819287458E+02 -0.16059441190E+04  0.16139880735E+04  0.81050296804E+02 0.  0.
          5    1    3    3  502    0  0.10028687934E+02 -0.58931802420E+02 -0.54180854094E+02  0.80815758788E+02  0.47000000000E+01 0. -1.
        -11    1    4    4    0    0  0.26725849604E+02  0.43750143675E+02  0.92199228337E+01  0.52089855881E+02  0.00000000000E+00 0.  1.
         12    1    4    4    0    0  0.83027366833E+02  0.11527400893E+02 -0.44193082633E+02  0.94759976610E+02  0.00000000000E+00 0. -1.
         -5    1    5    5    0  501  0.18465071030E+02 -0.11165029605E+02 -0.45920334456E+02  0.50954723537E+02  0.47000000000E+01 0.  1.
         13    1    6    6    0    0 -0.83178260348E+02  0.81360590044E+01 -0.52402172590E+03  0.53064450215E+03  0.00000000000E+00 0. -1.
        -14    1    6    6    0    0 -0.55068715053E+02  0.66832284532E+01 -0.10819223931E+04  0.10833435714E+04  0.00000000000E+00 0.  1.
</event>
<event>
12    1  0.2614920E-002  0.1741523E+03  0.7818608E-02  0.1173586E+00
          1   -1    0    0  502    0  0.00000000000E+00  0.00000000000E+00  0.11844500178E+04  0.11844500178E+04  0.00000000000E+00 0.  1.
         -1   -1    0    0    0  501 -0.00000000000E+00 -0.00000000000E+00 -0.43242675996E+02  0.43242675996E+02  0.00000000000E+00 0. -1.
          6    2    1    2  502    0  0.36704916153E+01 -0.10167013242E+02  0.96304561321E+03  0.97870385424E+03  0.17403315924E+03 0.  0.
         24    2    3    3    0    0  0.55956183693E+02 -0.32143982815E+02  0.78037155616E+03  0.78736990036E+03  0.82506146495E+02 0.  0.
         -6    2    1    2    0  501 -0.36704916153E+01  0.10167013242E+02  0.17816172862E+03  0.24898883958E+03  0.17360011528E+03 0.  0.
        -24    2    5    5    0    0  0.19073852744E+02  0.52441089687E+02  0.45011408227E+02  0.10737139517E+03  0.79929405633E+02 0.  0.
          5    1    3    3  502    0 -0.52285692077E+02  0.21976969572E+02  0.18267405705E+03  0.19133395388E+03  0.47000000000E+01 0. -1.
        -13    1    4    4    0    0  0.29846365035E+01 -0.75389432730E+01  0.53796494353E+03  0.53802604415E+03  0.00000000000E+00 0.  1.
         14    1    4    4    0    0  0.52971547189E+02 -0.24605039542E+02  0.24240661263E+03  0.24934385621E+03  0.00000000000E+00 0. -1.
         -5    1    5    5    0  501 -0.22744344359E+02 -0.42274076445E+02  0.13315032039E+03  0.14161744441E+03  0.47000000000E+01 0.  1.
         13    1    6    6    0    0  0.42625093375E+02  0.15429515226E+02  0.44464727039E+02  0.63498665151E+02  0.00000000000E+00 0. -1.
        -14    1    6    6    0    0 -0.23551240631E+02  0.37011574461E+02  0.54668118852E+00  0.43872730023E+02  0.00000000000E+00 0.  1.
</event>
<event>
12    1  0.2614920E-002  0.2024861E+03  0.7818608E-02  0.1147658E+00
          1   -1    0    0  502    0  0.00000000000E+00  0.00000000000E+00  0.70009273856E+02  0.70009273856E+02  0.00000000000E+00 0.  1.
         -1   -1    0    0    0  501 -0.00000000000E+00 -0.00000000000E+00 -0.73841210369E+03  0.73841210369E+03  0.00000000000E+00 0. -1.
          6    2    1    2  502    0 -0.10066386731E+03  0.38370339304E+02 -0.14989637888E+03  0.25165412463E+03  0.17104203263E+03 0.  0.
         24    2    3    3    0    0 -0.24138159329E+02  0.65715576280E+01 -0.14681412454E+03  0.16859428603E+03  0.79017782885E+02 0.  0.
         -6    2    1    2    0  501  0.10066386731E+03 -0.38370339304E+02 -0.51850645095E+03  0.55676725291E+03  0.17185847990E+03 0.  0.
        -24    2    5    5    0    0  0.87138047006E+02 -0.86998608869E+02 -0.33594387109E+03  0.36729735562E+03  0.82989551968E+02 0.  0.
          5    1    3    3  502    0 -0.76525707977E+02  0.31798781676E+02 -0.30822543405E+01  0.83059838606E+02  0.47000000000E+01 0. -1.
        -11    1    4    4    0    0  0.23089831358E+02  0.22067598697E+02 -0.72089956813E+02  0.78848469216E+02  0.00000000000E+00 0.  1.
         12    1    4    4    0    0 -0.47227990687E+02 -0.15496041069E+02 -0.74724167725E+02  0.89745816812E+02  0.00000000000E+00 0. -1.
         -5    1    5    5    0  501  0.13525820300E+02  0.48628269564E+02 -0.18256257986E+03  0.18946989729E+03  0.47000000000E+01 0.  1.
         13    1    6    6    0    0  0.98744692143E+02 -0.58147296551E+02 -0.23130232756E+03  0.25813250291E+03  0.00000000000E+00 0. -1.
        -14    1    6    6    0    0 -0.11606645137E+02 -0.28851312318E+02 -0.10464154353E+03  0.10916485270E+03  0.00000000000E+00 0.  1.
</event>
<event>
12    1  0.2614920E-002  0.1897291E+03  0.7818608E-02  0.1158706E+00
         -2   -1    0    0    0  501 -0.00000000000E+00  0.00000000000E+00  0.13922445459E+03  0.13922445459E+03  0.00000000000E+00 0.  1.
          2   -1    0    0  502    0  0.00000000000E+00 -0.00000000000E+00 -0.88623261391E+03  0.88623261391E+03  0.00000000000E+00 0. -1.
          6    2    1    2  502    0  0.28493759196E+02  0.73762273367E+02  0.58328077967E+02  0.19794039961E+03  0.17182976992E+03 0.  0.
         24    2    3    3    0    0  0.26846285739E+02  0.79898193084E+02  0.96866673203E+02  0.15859987340E+03  0.93093088619E+02 0.  0.
         -6    2    1    2    0  501 -0.28493759196E+02 -0.73762273367E+02 -0.80533623728E+03  0.82751666889E+03  0.17310290272E+03 0.  0.
        -24    2    5    5    0    0  0.17620391920E+02 -0.80424932721E+02 -0.72900755491E+03  0.73796744380E+03  0.79782736061E+02 0.  0.
          5    1    3    3  502    0  0.16474734572E+01 -0.61359197178E+01 -0.38538595236E+02  0.39340526208E+02  0.47000000000E+01 0. -1.
        -11    1    4    4    0    0  0.37974818357E+02  0.32869319120E+02 -0.13677114539E+00  0.50224472870E+02  0.00000000000E+00 0.  1.
         12    1    4    4    0    0 -0.11128532618E+02  0.47028873964E+02  0.97003444348E+02  0.10837540053E+03  0.00000000000E+00 0. -1.
         -5    1    5    5    0  501 -0.46114151116E+02  0.66626593544E+01 -0.76328682375E+02  0.89549225099E+02  0.47000000000E+01 0.  1.
         13    1    6    6    0    0  0.47232415218E+02 -0.31707807661E+02 -0.32204104713E+03  0.32702709697E+03  0.00000000000E+00 0. -1.
        -14    1    6    6    0    0 -0.29612023298E+02 -0.48717125060E+02 -0.40696650778E+03  0.41094034683E+03  0.00000000000E+00 0.  1.
</event>
<event>
12    1  0.2614920E-002  0.1877263E+03  0.7818608E-02  0.1160528E+00
          3   -1    0    0  502    0  0.00000000000E+00  0.00000000000E+00  0.34314017932E+03  0.34314017932E+03  0.00000000000E+00 0. -1.
         -3   -1    0    0    0  501 -0.00000000000E+00 -0.00000000000E+00 -0.15193333656E+03  0.15193333656E+03  0.00000000000E+00 0.  1.
          6    2    1    2  502    0 -0.25495117982E+02  0.72406638735E+02 -0.45357410513E+02  0.19297715502E+03  0.17114369780E+03 0.  0.
         24    2    3    3    0    0  0.47141683682E+02  0.15939853996E+01 -0.15767640163E+02  0.87202955248E+02  0.71630006268E+02 0.  0.
         -6    2    1    2    0  501  0.25495117982E+02 -0.72406638735E+02  0.23656425327E+03  0.30209636086E+03  0.17148423527E+03 0.  0.
        -24    2    5    5    0    0  0.18502871378E+02  0.26981647977E+02  0.13120368478E+03  0.15701065364E+03  0.79797073121E+02 0.  0.
          5    1    3    3  502    0 -0.72636801664E+02  0.70812653335E+02 -0.29589770350E+02  0.10577419977E+03  0.47000000000E+01 0. -1.
        -13    1    4    4    0    0  0.27349299449E+02  0.20070258654E+02 -0.38883517450E+02  0.51601621990E+02  0.00000000000E+00 0.  1.
         14    1    4    4    0    0  0.19792384233E+02 -0.18476273255E+02  0.23115877286E+02  0.35601333258E+02  0.00000000000E+00 0. -1.
         -5    1    5    5    0  501  0.69922466038E+01 -0.99388286712E+02  0.10536056849E+03  0.14508570722E+03  0.47000000000E+01 0.  1.
         11    1    6    6    0    0  0.29342968960E+01  0.38963723478E+02  0.13168429665E+03  0.13735914905E+03  0.00000000000E+00 0. -1.
        -12    1    6    6    0    0  0.15568574482E+02 -0.11982075501E+02 -0.48061186253E+00  0.19651504586E+02  0.00000000000E+00 0.  1.
</event>
<event>
12    1  0.2614920E-002  0.1966774E+03  0.7818608E-02  0.1152573E+00
         -4   -1    0    0    0  501 -0.00000000000E+00  0.00000000000E+00  0.88563391362E+03  0.88563391362E+03  0.00000000000E+00 0. -1.
          4   -1    0    0  502    0  0.00000000000E+00 -0.00000000000E+00 -0.57398238413E+02  0.57398238413E+02  0.00000000000E+00 0.  1.
          6    2    1    2  502    0 -0.92541991462E+02 -0.28799638630E+02  0.64615094691E+03  0.67569566837E+03  0.17222122603E+03 0.  0.
         24    2    3    3    0    0  0.41782688077E+01  0.23623780165E+02  0.20302784709E+03  0.21909606787E+03  0.78786035202E+02 0.  0.
         -6    2    1    2    0  501  0.92541991462E+02  0.28799638630E+02  0.18208472829E+03  0.26733648366E+03  0.17006030650E+03 0.  0.
        -24    2    5    5    0    0  0.53150643410E+02 -0.50831292153E+02  0.10184504674E+03  0.14753139222E+03  0.77358173375E+02 0.  0.
          5    1    3    3  502    0 -0.96720260270E+02 -0.52423418794E+02  0.44312309982E+03  0.45659960050E+03  0.47000000000E+01 0. -1.
        -13    1    4    4    0    0  0.22089080840E+01 -0.20332567330E+02  0.13448706538E+02  0.24477750646E+02  0.00000000000E+00 0.  1.
         14    1    4    4    0    0  0.19693607238E+01  0.43956347495E+02  0.18957914056E+03  0.19461831723E+03  0.00000000000E+00 0. -1.
         -5    1    5    5    0  501  0.39391348052E+02  0.79630930783E+02  0.80239681554E+02  0.11980509144E+03  0.47000000000E+01 0.  1.
         13    1    6    6    0    0 -0.82656865073E+01 -0.43393080633E+02  0.34219756257E+02  0.55877300745E+02  0.00000000000E+00 0. -1.
        -14    1    6    6    0    0  0.61416329918E+02 -0.74382115201E+01  0.67625290482E+02  0.91654091474E+02  0.00000000000E+00 0.  1.
</event>
<event>
12    1  0.2614920E-002  0.1715165E+03  0.7818608E-02  0.1176276E+00
         -1   -1    0    0    0  501 -0.00000000000E+00  0.00000000000E+00  0.29386388984E+02  0.29386388984E+02  0.00000000000E+00 0.  1.
          1   -1    0    0  502    0  0.00000000000E+00 -0.00000000000E+00 -0.10038351531E+04  0.10038351531E+04  0.00000000000E+00 0. -1.
          6    2    1    2  502    0 -0.10489057381E+02 -0.85158615513E+01 -0.45801456407E+03  0.48880303145E+03  0.17020141724E+03 0.  0.
         24    2    3    3    0    0 -0.75481103012E+01  0.41902772788E+02 -0.40644102608E+03  0.41646626570E+03  0.80231081548E+02 0.  0.
         -6    2    1    2    0  501  0.10489057381E+02  0.85158615513E+01 -0.51643420006E+03  0.54441851065E+03  0.17176929738E+03 0.  0.
        -24    2    5    5    0    0 -0.52514609891E+02  0.11884917106E+02 -0.40557543348E+03  0.41677616363E+03  0.79447484671E+02 0.  0.
          5    1    3    3  502    0 -0.29409470802E+01 -0.50418634339E+02 -0.51573537988E+02  0.72336765748E+02  0.47000000000E+01 0. -1.
        -11    1    4    4    0    0  0.33282222004E+02  0.27514546459E+01 -0.12414958232E+03  0.12856280798E+03  0.00000000000E+00 0.  1.
         12    1    4    4    0    0 -0.40830332305E+02  0.39151318142E+02 -0.28229144376E+03  0.28790345772E+03  0.00000000000E+00 0. -1.
         -5    1    5    5    0  501  0.63003667273E+02 -0.33690555546E+01 -0.11085876657E+03  0.12764234701E+03  0.47000000000E+01 0.  1.
         13    1    6    6    0    0  0.20758866491E+01 -0.22996976519E+02 -0.19759798695E+03  0.19894254115E+03  0.00000000000E+00 0. -1.
        -14    1    6    6    0    0 -0.54590496540E+02  0.34881893625E+02 -0.20797744654E+03  0.21783362248E+03  0.00000000000E+00 0.  1.
</event>
<event>
12    1  0.2614920E-002  0.1734488E+03  0.7818608E-02  0.1174298E+00
         -2   -1    0    0    0  501 -0.00000000000E+00  0.00000000000E+00  0.67124010108E+02  0.67124010108E+02  0.00000000000E+00 0. -1.
          2   -1    0    0  502    0  0.00000000000E+00 -0.00000000000E+00 -0.52422083356E+03  0.52422083356E+03  0.00000000000E+00 0.  1.
          6    2    1    2  502    0  0.10317077613E+02 -0.15751149082E+01 -0.34292085983E+03  0.38501933235E+03  0.17474623631E+03 0.  0.
         24    2    3    3    0    0  0.10142546644E+02 -0.15653906346E+01 -0.35894107992E+03  0.36832298522E+03  0.81962191836E+02 0.  0.
         -6    2    1    2    0  501 -0.10317077613E+02  0.15751149082E+01 -0.11417596362E+03  0.20632551132E+03  0.17153758443E+03 0.  0.
        -24    2    5    5    0    0 -0.68265316777E+02 -0.24226659977E+02 -0.78565906712E+02  0.13342903566E+03  0.79897567745E+02 0.  0.
          5    1    3    3  502    0  0.17453096858E+00 -0.97242736020E-02  0.16020220092E+02  0.16696347128E+02  0.47000000000E+01 0. -1.
        -13    1    4    4    0    0  0.40169576648E+02  0.16307575897E+02 -0.13841865139E+03  0.14504914675E+03  0.00000000000E+00 0.  1.
         14    1    4    4    0    0 -0.30027030003E+02 -0.17872966532E+02 -0.22052242853E+03  0.22327383847E+03  0.00000000000E+00 0. -1.
         -5    1    5    5    0  501  0.57948239165E+02  0.25801774886E+02 -0.35610056912E+02  0.72896475654E+02  0.47000000000E+01 0.  1.
         13    1    6    6    0    0  0.11357773900E+02  0.14000722740E+02 -0.56418971825E+01  0.18890480910E+02  0.00000000000E+00 0. -1.
        -14    1    6    6    0    0 -0.79623090678E+02 -0.38227382717E+02 -0.72924009530E+02  0.11453855475E+03  0.00000000000E+00 0.  1.
</event>
<event>
12    1  0.2614920E-002  0.1849480E+03  0.7818608E-02  0.1163098E+00
         -3   -1    0    0    0  501 -0.00000000000E+00  0.00000000000E+00  0.18314988452E+03  0.18314988452E+03  0.00000000000E+00 0. -1.
          3   -1    0    0  502    0  0.00000000000E+00 -0.00000000000E+00 -0.20794011631E+03  0.20794011631E+03  0.00000000000E+00 0.  1.
          6    2    1    2  502    0  0.26445386178E+02 -0.51967397625E+02  0.49709320685E+02  0.19475362652E+03  0.17904745073E+03 0.  0.
         24    2    3    3    0    0  0.12743916036E+02 -0.10414425101E+03  0.18048998646E+02  0.13202707469E+03  0.78082966681E+02 0.  0.
         -6    2    1    2    0  501 -0.26445386178E+02  0.51967397625E+02 -0.74499552477E+02  0.19633637431E+03  0.17204016883E+03 0.  0.
        -24    2    5    5    0    0 -0.95176326474E+01  0.57468753891E+02  0.20591885051E+02  0.99479339192E+02  0.77967109676E+02 0.  0.
          5    1    3    3  502    0  0.13701470142E+02  0.52176853381E+02  0.31660322039E+02  0.62726551829E+02  0.47000000000E+01 0. -1.
        -11    1    4    4    0    0 -0.16792365942E+02 -0.93848242685E+02 -0.11123616981E+01  0.95345233533E+02  0.00000000000E+00 0.  1.
         12    1    4    4    0    0  0.29536281978E+02 -0.10296008320E+02  0.19161360344E+02  0.36681841157E+02  0.00000000000E+00 0. -1.
         -5    1    5    5    0  501 -0.16927753530E+02 -0.55013562665E+01 -0.95091437528E+02  0.96857035116E+02  0.47000000000E+01 0.  1.
         13    1    6    6    0    0 -0.28650025656E+02  0.65701272189E+02  0.28590373610E+02  0.77167937646E+02  0.00000000000E+00 0. -1.
        -14    1    6    6    0    0  0.19132393008E+02 -0.82325182978E+01 -0.79984885592E+01  0.22311401547E+02  0.00000000000E+00 0.  1.
</event>
<event>
12    1  0.2614920E-002  0.1975983E+03  0.7818608E-02  0.1151781E+00
          1   -1    0    0  502    0  0.00000000000E+00  0.00000000000E+00  0.94872031101E+03  0.94872031101E+03  0.00000000000E+00 0.  1.
         -1   -1    0    0    0  501 -0.00000000000E+00 -0.00000000000E+00 -0.10626197355E+03  0.10626197355E+03  0.00000000000E+00 0. -1.
          6    2    1    2  502    0  0.68795747515E+02  0.50996658459E+02  0.43063679609E+01  0.19266621604E+03  0.17253466883E+03 0.  0.
         24    2    3    3    0    0  0.43680505999E+02  0.30264635258E+02 -0.63913383334E+02  0.11692576048E+03  0.82236112156E+02 0.  0.
         -6    2    1    2    0  501 -0.68795747515E+02 -0.50996658459E+02  0.83815196950E+03  0.86231606852E+03  0.18373013904E+03 0.  0.
        -24    2    5    5    0    0 -0.10461181993E+03  0.60473864685E+00  0.43479813011E+03  0.45407360995E+03  0.78672935150E+02 0.  0.
          5    1    3    3  502    0  0.25115241516E+02  0.20732023201E+02  0.68219751294E+02  0.75740455564E+02  0.47000000000E+01 0. -1.
        -13    1    4    4    0    0  0.38616485690E+02 -0.32993018172E+00  0.72559466352E+01  0.39293645574E+02  0.00000000000E+00 0.  1.
         14    1    4    4    0    0  0.50640203093E+01  0.30594565440E+02 -0.71169329969E+02  0.77632114903E+02  0.00000000000E+00 0. -1.
         -5    1    5    5    0  501  0.35816072413E+02 -0.51601397106E+02  0.40335383939E+03  0.40824245856E+03  0.47000000000E+01 0.  1.
         11    1    6    6    0    0 -0.97972467982E+02 -0.18732830909E+02  0.40987260490E+03  0.42183536562E+03  0.00000000000E+00 0. -1.
        -12    1    6    6    0    0 -0.66393519465E+01  0.19337569556E+02  0.24925525214E+02  0.32238244335E+02  0.00000000000E+00 0.  1.
</event>
<event>
12    1  0.2614920E-002  0.2261138E+03  0.7818608E-02  0.1129405E+00
          1   -1    0    0  502    0  0.00000000000E+00  0.00000000000E+00  0.21431180444E+03  0.21431180444E+03  0.00000000000E+00 0.  1.
         -1   -1    0    0    0  501 -0.00000000000E+00 -0.00000000000E+00 -0.24658692457E+03  0.24658692457E+03  0.00000000000E+00 0. -1.
          6    2    1    2  502    0  0.11674258624E+03 -0.89301713215E+02  0.25411299431E+02  0.22773705978E+03  0.17208953144E+03 0.  0.
         24    2    3    3    0    0  0.38066953000E+02 -0.49183962685E+02  0.68129819166E+02  0.12952172950E+03  0.90917825848E+02 0.  0.
         -6    2    1    2    0  501 -0.11674258624E+03  0.89301713215E+02 -0.57686419553E+02  0.23316166923E+03  0.17156052452E+03 0.  0.
        -24    2    5    5    0    0 -0.87174788837E+02  0.53238428075E+02 -0.10479804847E+03  0.16670558781E+03  0.79839514101E+02 0.  0.
          5    1    3    3  502    0  0.78675633238E+02 -0.40117750530E+02 -0.42718519735E+02  0.98215330277E+02  0.47000000000E+01 0. -1.
        -11    1    4    4    0    0  0.40387554001E+02  0.75000287098E+00  0.68510501909E+02  0.79532420398E+02  0.00000000000E+00 0.  1.
         12    1    4    4    0    0 -0.23206010005E+01 -0.49933965556E+02 -0.38068274310E+00  0.49989309102E+02  0.00000000000E+00 0. -1.
         -5    1    5    5    0  501 -0.29567797402E+02  0.36063285140E+02  0.47111628920E+02  0.66456081421E+02  0.47000000000E+01 0.  1.
         13    1    6    6    0    0  0.10967076622E+02  0.12443474561E+02 -0.37244494036E+02  0.40770935295E+02  0.00000000000E+00 0. -1.
        -14    1    6    6    0    0 -0.98141865459E+02  0.40794953514E+02 -0.67553554437E+02  0.12593465252E+03  0.00000000000E+00 0.  1.
</event>
<event>
12    1  0.2614920E-002  0.3203606E+03  0.7818608E-02  0.1075483E+00
         -2   -1    0    0    0  501 -0.00000000000E+00  0.00000000000E+00  0.77071407952E+03  0.77071407952E+03  0.00000000000E+00 0. -1.
          2   -1    0    0  502    0  0.00000000000E+00 -0.00000000000E+00 -0.15141580324E+03  0.15141580324E+03  0.00000000000E+00 0.  1.
          6    2    1    2  502    0 -0.18102969000E+03  0.19425446892E+03  0.46594721989E+03  0.56303959330E+03  0.17146493678E+03 0.  0.
         24    2    3    3    0    0 -0.18252982996E+03  0.12753977889E+03  0.28760392919E+03  0.37256250905E+03  0.80642848669E+02 0.  0.
         -6    2    1    2    0  501  0.18102969000E+03 -0.19425446892E+03  0.15335105640E+03  0.35909028946E+03  0.18687627493E+03 0.  0.
        -24    2    5    5    0    0  0.15522811462E+03 -0.55316969290E+02  0.84037712637E+02  0.20162353196E+03  0.80212074119E+02 0.  0.
          5    1    3    3  502    0  0.15001399641E+01  0.66714690023E+02  0.17834329070E+03  0.19047708424E+03  0.47000000000E+01 0. -1.
        -11    1    4    4    0    0  0.73049767220E+01 -0.80055464094E+00  0.12761569268E+02  0.14726208705E+02  0.00000000000E+00 0.  1.
         12    1    4    4    0    0 -0.18983480668E+03  0.12834033354E+03  0.27484235992E+03  0.35783630035E+03  0.00000000000E+00 0. -1.
         -5    1    5    5    0  501  0.25801575377E+02 -0.13893749963E+03  0.69313343763E+02  0.15746675750E+03  0.47000000000E+01 0.  1.
         11    1    6    6    0    0  0.69611928457E+02 -0.34385235053E+02 -0.30729404279E+01  0.77702045894E+02  0.00000000000E+00 0. -1.
        -12    1    6    6    0    0  0.85616186161E+02 -0.20931734237E+02  0.87110653065E+02  0.12392148606E+03  0.00000000000E+00 0.  1.
</event>
<event>
12    1  0.2614920E-002  0.1878365E+03  0.7818608E-02  0.1160427E+00
          3   -1    0    0  502    0  0.00000000000E+00  0.00000000000E+00  0.45827241399E+02  0.45827241399E+02  0.00000000000E+00 0.  1.
         -3   -1    0    0    0  501 -0.00000000000E+00 -0.00000000000E+00 -0.12632611662E+04  0.12632611662E+04  0.00000000000E+00 0. -1.
          6    2    1    2  502    0  0.48792858775E+02  0.30571433144E+02 -0.20150959066E+03  0.27611276929E+03  0.17976871432E+03 0.  0.
         24    2    3    3    0    0  0.49892121476E+02  0.80141947904E+02 -0.18673176657E+03  0.22416165384E+03  0.80422253179E+02 0.  0.
         -6    2    1    2    0  501 -0.48792858775E+02 -0.30571433144E+02 -0.10159243341E+04  0.10329756383E+04  0.17782311726E+03 0.  0.
        -24    2    5    5    0    0 -0.57486148587E+02 -0.72985571868E+02 -0.47840946170E+03  0.49369940061E+03  0.78942600233E+02 0.  0.
          5    1    3    3  502    0 -0.10992627012E+01 -0.49570514760E+02 -0.14777824085E+02  0.51951115453E+02  0.47000000000E+01 0. -1.
        -11    1    4    4    0    0  0.48906812172E+02  0.31616539443E+02 -0.42816125030E+02  0.72282102942E+02  0.00000000000E+00 0.  1.
         12    1    4    4    0    0  0.98530930380E+00  0.48525408462E+02 -0.14391564154E+03  0.15187955090E+03  0.00000000000E+00 0. -1.
         -5    1    5    5    0  501  0.86932898121E+01  0.42414138725E+02 -0.53751487243E+03  0.53927623768E+03  0.47000000000E+01 0.  1.
         13    1    6    6    0    0 -0.46183300002E+02 -0.73025915649E+02 -0.47359741697E+03  0.48141478469E+03  0.00000000000E+00 0. -1.
        -14    1    6    6    0    0 -0.11302848585E+02  0.40343780698E-01 -0.48120447339E+01  0.12284615919E+02  0.00000000000E+00 0.  1.
</event>
<event>
12    1  0.2614920E-002  0.1942587E+03  0.7818608E-02  0.1154675E+00
         -2   -1    0    0    0  501 -0.00000000000E+00  0.00000000000E+00  0.20420735686E+03  0.20420735686E+03  0.00000000000E+00 0. -1.
          2   -1    0    0  502    0  0.00000000000E+00 -0.00000000000E+00 -0.35568149496E+03  0.35568149496E+03  0.00000000000E+00 0.  1.
          6    2    1    2  502    0  0.83508662953E+02 -0.73107582966E+01 -0.26920524755E+03  0.33042237876E+03  0.17227982791E+03 0.  0.
         24    2    3    3    0    0  0.86442770439E+02 -0.63156490029E+02 -0.16529728230E+03  0.21232788278E+03  0.79365253577E+02 0.  0.
         -6    2    1    2    0  501 -0.83508662953E+02  0.73107582966E+01  0.11773110945E+03  0.22946647305E+03  0.17823328575E+03 0.  0.
        -24    2    5    5    0    0 -0.98193112968E+02  0.46015653702E+02  0.12920634217E+03  0.18625220496E+03  0.78970103056E+02 0.  0.
          5    1    3    3  502    0 -0.29341074868E+01  0.55845731733E+02 -0.10390796525E+03  0.11809449598E+03  0.47000000000E+01 0. -1.
        -11    1    4    4    0    0  0.43526394074E+02  0.10688303864E+02 -0.79513434364E+02  0.91275259873E+02  0.00000000000E+00 0.  1.
         12    1    4    4    0    0  0.42916376366E+02 -0.73844793893E+02 -0.85783847936E+02  0.12105262291E+03  0.00000000000E+00 0. -1.
         -5    1    5    5    0  501  0.14684450016E+02 -0.38704895405E+02 -0.11475232723E+02  0.43214268091E+02  0.47000000000E+01 0.  1.
         11    1    6    6    0    0 -0.55374952025E+02  0.65349131459E+02  0.69670561597E+02  0.11041232471E+03  0.00000000000E+00 0. -1.
        -12    1    6    6    0    0 -0.42818160943E+02 -0.19333477757E+02  0.59535780571E+02  0.75839880254E+02  0.00000000000E+00 0.  1.
</event>
<event>
12    1  0.2614920E-002  0.1833879E+03  0.7818608E-02  0.1164564E+00
         -2   -1    0    0    0  501 -0.00000000000E+00  0.00000000000E+00  0.70192182198E+02  0.70192182198E+02  0.00000000000E+00 0. -1.
          2   -1    0    0  502    0  0.00000000000E+00 -0.00000000000E+00 -0.66449983117E+03  0.66449983117E+03  0.00000000000E+00 0.  1.
          6    2    1    2  502    0  0.60082695013E+02  0.26883890844E+02 -0.49015124610E+03  0.52303137164E+03  0.17023776853E+03 0.  0.
         24    2    3    3    0    0 -0.22837893364E+02  0.17183478955E+02 -0.34443552487E+03  0.35502814732E+03  0.81193061734E+02 0.  0.
         -6    2    1    2    0  501 -0.60082695013E+02 -0.26883890844E+02 -0.10415640287E+03  0.21166064173E+03  0.17210170589E+03 0.  0.
        -24    2    5    5    0    0  0.24385817530E+02  0.16955085798E+02 -0.43432831066E+02  0.98672909401E+02  0.83473284374E+02 0.  0.
          5    1    3    3  502    0  0.82920588377E+02  0.97004118890E+01 -0.14571572123E+03  0.16800322432E+03  0.47000000000E+01 0. -1.
        -11    1    4    4    0    0  0.28534954294E+02  0.15558095312E+02 -0.96659922073E+02  0.10197763716E+03  0.00000000000E+00 0.  1.
         12    1    4    4    0    0 -0.51372847657E+02  0.16253836425E+01 -0.24777560280E+03  0.25305051016E+03  0.00000000000E+00 0. -1.
         -5    1    5    5    0  501 -0.84468512543E+02 -0.43838976642E+02 -0.60723571806E+02  0.11298773233E+03  0.47000000000E+01 0.  1.
         11    1    6    6    0    0  0.18700778283E+02  0.22527823941E+01  0.23381211262E+02  0.30024576217E+02  0.00000000000E+00 0. -1.
        -12    1    6    6    0    0  0.56850392471E+01  0.14702303404E+02 -0.66814042328E+02  0.68648333184E+02  0.00000000000E+00 0.  1.
</event>
<event>
12    1  0.2614920E-002  0.2225132E+03  0.7818608E-02  0.1132023E+00
         -2   -1    0    0    0  501 -0.00000000000E+00  0.00000000000E+00  0.15510668867E+03  0.15510668867E+03  0.00000000000E+00 0. -1.
          2   -1    0    0  502    0  0.00000000000E+00 -0.00000000000E+00 -0.35634805399E+03  0.35634805399E+03  0.00000000000E+00 0.  1.
          6    2    1    2  502    0  0.47986806519E+02  0.13258492686E+03 -0.17892494663E+02  0.22279567599E+03  0.17157003073E+03 0.  0.
         24    2    3    3    0    0  0.33372692828E+02  0.15210759992E+02  0.33245982040E+02  0.93848007669E+02  0.79731106700E+02 0.  0.
         -6    2    1    2    0  501 -0.47986806519E+02 -0.13258492686E+03 -0.18334887066E+03  0.28865906668E+03  0.17270133750E+03 0.  0.
        -24    2    5    5    0    0 -0.28135990740E+02 -0.15865671363E+03 -0.12017871612E+03  0.21734040588E+03  0.82645879925E+02 0.  0.
          5    1    3    3  502    0  0.14614113690E+02  0.11737416686E+03 -0.51138476703E+02  0.12894766832E+03  0.47000000000E+01 0. -1.
        -11    1    4    4    0    0  0.17409803186E+02  0.74724340174E+01 -0.25905259313E+02  0.32093939883E+02  0.00000000000E+00 0.  1.
         12    1    4    4    0    0  0.15962889642E+02  0.77383259748E+01  0.59151241353E+02  0.61754067787E+02  0.00000000000E+00 0. -1.
         -5    1    5    5    0  501 -0.19850815778E+02  0.26071786771E+02 -0.63170154541E+02  0.71318660792E+02  0.47000000000E+01 0.  1.
         13    1    6    6    0    0  0.23604841495E+02 -0.65077016166E+02 -0.23276962183E+02  0.73034399727E+02  0.00000000000E+00 0. -1.
        -14    1    6    6    0    0 -0.51740832236E+02 -0.93579697461E+02 -0.96901753935E+02  0.14430600616E+03  0.00000000000E+00 0.  1.
</event>
<event>
12    1  0.2614920E-002  0.2182491E+03  0.7818608E-02  0.1135195E+00
          3   -1    0    0  502    0  0.00000000000E+00  0.00000000000E+00  0.24165821468E+03  0.24165821468E+03  0.00000000000E+00 0. -1.
         -3   -1    0    0    0  501 -0.00000000000E+00 -0.00000000000E+00 -0.20942273454E+03  0.20942273454E+03  0.00000000000E+00 0.  1.
          6    2    1    2  502    0  0.25272715890E+02  0.13252997347E+03  0.70798830008E+02  0.22928656023E+03  0.17133869479E+03 0.  0.
         24    2    3    3    0    0 -0.27262796819E+01  0.12501592516E+03 -0.48557443343E+01  0.14813171259E+03  0.79265451988E+02 0.  0.
         -6    2    1    2    0  501 -0.25272715890E+02 -0.13252997347E+03 -0.38563349863E+02  0.22179438900E+03  0.17176354387E+03 0.  0.
        -24    2    5    5    0    0 -0.23710626689E+02 -0.59692444018E+02 -0.84122748647E+02  0.13573920533E+03  0.84988901228E+02 0.  0.
          5    1    3    3  502    0  0.27998995572E+02  0.75140483110E+01  0.75654574342E+02  0.81154847631E+02  0.47000000000E+01 0. -1.
        -13    1    4    4    0    0  0.21517323149E+02  0.47700091100E+02 -0.33564925086E+02  0.62168304485E+02  0.00000000000E+00 0.  1.
         14    1    4    4    0    0 -0.24243602831E+02  0.77315834059E+02  0.28709180751E+02  0.85963408110E+02  0.00000000000E+00 0. -1.
         -5    1    5    5    0  501 -0.15620892014E+01 -0.72837529452E+02  0.45559398783E+02  0.86055183672E+02  0.47000000000E+01 0.  1.
         11    1    6    6    0    0  0.27593001127E+02 -0.25556137555E+02 -0.91785163626E+01  0.38713499461E+02  0.00000000000E+00 0. -1.
        -12    1    6    6    0    0 -0.51303627816E+02 -0.34136306463E+02 -0.74944232284E+02  0.97025705865E+02  0.00000000000E+00 0.  1.
</event>
<event>
12    1  0.2614920E-002  0.1786000E+03  0.7818608E-02  0.1169165E+00
         -2   -1    0    0    0  501 -0.00000000000E+00  0.00000000000E+00  0.36496946019E+02  0.36496946019E+02  0.00000000000E+00 0. -1.
          2   -1    0    0  502    0  0.00000000000E+00 -0.00000000000E+00 -0.13982398128E+04  0.13982398128E+04  0.00000000000E+00 0.  1.
          6    2    1    2  502    0  0.17582059097E+02  0.44917088254E+02 -0.11202988652E+04  0.11344570330E+04  0.17203644582E+03 0.  0.
         24    2    3    3    0    0  0.34206157804E+02  0.58758873362E+02 -0.10982229002E+04  0.11031937334E+04  0.79499738295E+02 0.  0.
         -6    2    1    2    0  501 -0.17582059097E+02 -0.44917088254E+02 -0.24144400153E+03  0.30027972579E+03  0.17188959895E+03 0.  0.
        -24    2    5    5    0    0 -0.67111030705E+01 -0.29183387191E+01 -0.33401136894E+02  0.87709746315E+02  0.80770093769E+02 0.  0.
          5    1    3    3  502    0 -0.16624098707E+02 -0.13841785108E+02 -0.22075965048E+02  0.31263299660E+02  0.47000000000E+01 0. -1.
        -13    1    4    4    0    0 -0.91193318747E+01  0.15132435414E+02 -0.70255636464E+03  0.70277848452E+03  0.00000000000E+00 0.  1.
         14    1    4    4    0    0  0.43325489679E+02  0.43626437948E+02 -0.39566653554E+03  0.40041524883E+03  0.00000000000E+00 0. -1.
         -5    1    5    5    0  501 -0.10870956026E+02 -0.41998749535E+02 -0.20804286464E+03  0.21256997948E+03  0.47000000000E+01 0.  1.
         13    1    6    6    0    0  0.23201955879E+02 -0.11607289768E+02  0.15136798285E+02  0.30036354551E+02  0.00000000000E+00 0. -1.
        -14    1    6    6    0    0 -0.29913058950E+02  0.86889510484E+01 -0.48537935179E+02  0.57673391764E+02  0.00000000000E+00 0.  1.
</event>
<event>
12    1  0.2614920E-002  0.2073736E+03  0.7818608E-02  0.1143663E+00
          1   -1    0    0  502    0  0.00000000000E+00  0.00000000000E+00  0.40690056792E+03  0.40690056792E+03  0.00000000000E+00 0. -1.
         -1   -1    0    0    0  501 -0.00000000000E+00 -0.00000000000E+00 -0.26853252966E+03  0.26853252966E+03  0.00000000000E+00 0.  1.
          6    2    1    2  502    0 -0.15927951649E+02  0.11445347484E+03 -0.19369532439E+03  0.28438030120E+03  0.17320790822E+03 0.  0.
         24    2    3    3    0    0 -0.37181373580E+02  0.14385102550E+03 -0.14877861236E+03  0.22645340806E+03  0.84086255991E+02 0.  0.
         -6    2    1    2    0  501  0.15927951649E+02 -0.11445347484E+03  0.33206336266E+03  0.39105279639E+03  0.17118094285E+03 0.  0.
        -24    2    5    5    0    0 -0.16587085605E+01  0.39976307220E+01  0.17932646180E+03  0.19691211051E+03  0.81226024164E+02 0.  0.
          5    1    3    3  502    0  0.21253421930E+02 -0.29397550665E+02 -0.44916712031E+02  0.57926893137E+02  0.47000000000E+01 0. -1.
        -11    1    4    4    0    0  0.96767567375E+01  0.59808962014E+02 -0.16342309248E+02  0.62752072713E+02  0.00000000000E+00 0.  1.
         12    1    4    4    0    0 -0.46858130317E+02  0.84042063487E+02 -0.13243630312E+03  0.16370133535E+03  0.00000000000E+00 0. -1.
         -5    1    5    5    0  501  0.17586660210E+02 -0.11845110556E+03  0.15273690086E+03  0.19414068587E+03  0.47000000000E+01 0.  1.
         11    1    6    6    0    0 -0.12724337592E+02 -0.78446347353E+01  0.18006812978E+03  0.18068751596E+03  0.00000000000E+00 0. -1.
        -12    1    6    6    0    0  0.11065629032E+02  0.11842265457E+02 -0.74166798496E+00  0.16224594553E+02  0.00000000000E+00 0.  1.
</event>
<event>
12    1  0.2614920E-002  0.1775785E+03  0.7818608E-02  0.1170167E+00
         -2   -1    0    0    0  501 -0.00000000000E+00  0.00000000000E+00  0.47878653335E+03  0.47878653335E+03  0.00000000000E+00 0. -1.
          2   -1    0    0  502    0  0.00000000000E+00 -0.00000000000E+00 -0.66459224469E+02  0.66459224469E+02  0.00000000000E+00 0.  1.
          6    2    1    2  502    0  0.39643474842E+02 -0.12281143653E+02  0.23127945748E+03  0.29122047864E+03  0.17203705456E+03 0.  0.
         24    2    3    3    0    0  0.22639189949E+02  0.37451730252E+02  0.21154369971E+03  0.23488137512E+03  0.92213656622E+02 0.  0.
         -6    2    1    2    0  501 -0.39643474842E+02  0.12281143653E+02  0.18104785140E+03  0.25402527917E+03  0.17328614017E+03 0.  0.
        -24    2    5    5    0    0  0.23705335594E+02  0.38696425996E+02  0.15587987563E+03  0.18076986348E+03  0.79497494258E+02 0.  0.
          5    1    3    3  502    0  0.17004284893E+02 -0.49732873906E+02  0.19735757769E+02  0.56339103528E+02  0.47000000000E+01 0. -1.
        -11    1    4    4    0    0  0.29153824196E+02 -0.10692334175E+02  0.19227370789E+02  0.36523461813E+02  0.00000000000E+00 0.  1.
         12    1    4    4    0    0 -0.65146342469E+01  0.48144064428E+02  0.19231632892E+03  0.19835791330E+03  0.00000000000E+00 0. -1.
         -5    1    5    5    0  501 -0.63348810436E+02 -0.26415282343E+02  0.25167975765E+02  0.73255415697E+02  0.47000000000E+01 0.  1.
         13    1    6    6    0    0  0.21019737586E+02 -0.22173290694E+02  0.49107384945E+02  0.57836143064E+02  0.00000000000E+00 0. -1.
        -14    1    6    6    0    0  0.26855980076E+01  0.60869716691E+02  0.10677249069E+03  0.12293372041E+03  0.00000000000E+00 0.  1.
</event>
<event>
12    1  0.2614920E-002  0.2124760E+03  0.7818608E-02  0.1139620E+00
          1   -1    0    0  502    0  0.00000000000E+00  0.00000000000E+00  0.17044292481E+03  0.17044292481E+03  0.00000000000E+00 0.  1.
         -1   -1    0    0    0  501 -0.00000000000E+00 -0.00000000000E+00 -0.30582617680E+03  0.30582617680E+03  0.00000000000E+00 0. -1.
          6    2    1    2  502    0  0.10724844241E+03  0.59743593779E+02  0.19635660894E+02  0.21269552908E+03  0.17257550092E+03 0.  0.
         24    2    3    3    0    0  0.10982396982E+03  0.10085441281E+03  0.24007505991E+01  0.16779714475E+03  0.76923346592E+02 0.  0.
         -6    2    1    2    0  501 -0.10724844241E+03 -0.59743593779E+02 -0.15501891289E+03  0.26357357253E+03  0.17426600182E+03 0.  0.
        -24    2    5    5    0    0 -0.50661452167E+02  0.58135837977E+01 -0.14908286184E+03  0.17664165838E+03  0.79851081946E+02 0.  0.
          5    1    3    3  502    0 -0.25755274076E+01 -0.41110819036E+02  0.17234910295E+02  0.44898384337E+02  0.47000000000E+01 0. -1.
        -13    1    4    4    0    0  0.57898983024E+02  0.94755095434E+02  0.19596034827E+02  0.11276003249E+03  0.00000000000E+00 0.  1.
         14    1    4    4    0    0  0.51924986792E+02  0.60993173806E+01 -0.17195284228E+02  0.55037112256E+02  0.00000000000E+00 0. -1.
         -5    1    5    5    0  501 -0.56586990242E+02 -0.65557177576E+02 -0.59360510451E+01  0.86931914154E+02  0.47000000000E+01 0.  1.
         11    1    6    6    0    0 -0.33698428038E+02 -0.30156755272E+02 -0.39423566961E+02  0.59993596098E+02  0.00000000000E+00 0. -1.
        -12    1    6    6    0    0 -0.16963024129E+02  0.35970339070E+02 -0.10965929488E+03  0.11664806228E+03  0.00000000000E+00 0.  1.
</event>
<event>
12    1  0.2614920E-002  0.3236255E+03  0.7818608E-02  0.1073993E+00
          2   -1    0    0  502    0  0.00000000000E+00  0.00000000000E+00  0.26579604509E+03  0.26579604509E+03  0.00000000000E+00 0. -1.
         -2   -1    0    0    0  501 -0.00000000000E+00 -0.00000000000E+00 -0.49693198877E+03  0.49693198877E+03  0.00000000000E+00 0.  1.
          6    2    1    2  502    0  0.15074046678E+03 -0.22927515645E+03  0.57995649073E+02  0.32868352846E+03  0.17140472829E+03 0.  0.
         24    2    3    3    0    0  0.35179322160E+02 -0.38567182832E+02  0.46080926049E+02  0.10532740033E+03  0.79027825582E+02 0.  0.
         -6    2    1    2    0  501 -0.15074046678E+03  0.22927515645E+03 -0.28913159275E+03  0.43404450540E+03  0.17177825545E+03 0.  0.
        -24    2    5    5    0    0 -0.89890091682E+02  0.43572735831E+02 -0.14140252296E+03  0.18902588318E+03  0.75876868149E+02 0.  0.
          5    1    3    3  502    0  0.11556114462E+03 -0.19070797362E+03  0.11914723024E+02  0.22335612813E+03  0.47000000000E+01 0. -1.
        -13    1    4    4    0    0 -0.20419269010E+02 -0.18079111568E+02  0.36092666314E+02  0.45238052386E+02  0.00000000000E+00 0.  1.
         14    1    4    4    0    0  0.55598591170E+02 -0.20488071264E+02  0.99882597354E+01  0.60089347947E+02  0.00000000000E+00 0. -1.
         -5    1    5    5    0  501 -0.60850375097E+02  0.18570242062E+03 -0.14772906979E+03  0.24501862222E+03  0.47000000000E+01 0.  1.
         11    1    6    6    0    0 -0.84298030555E+01  0.14711890062E+02  0.61422624152E+01  0.18034097603E+02  0.00000000000E+00 0. -1.
        -12    1    6    6    0    0 -0.81460288626E+02  0.28860845769E+02 -0.14754478538E+03  0.17099178557E+03  0.00000000000E+00 0.  1.
</event>
<event>
12    1  0.2614920E-002  0.1736861E+03  0.7818608E-02  0.1174057E+00
         -2   -1    0    0    0  501 -0.00000000000E+00  0.00000000000E+00  0.51512246589E+03  0.51512246589E+03  0.00000000000E+00 0.  1.
          2   -1    0    0  502    0  0.00000000000E+00 -0.00000000000E+00 -0.70473871354E+02  0.70473871354E+02  0.00000000000E+00 0. -1.
          6    2    1    2  502    0  0.14937393210E+02  0.26349988829E+02  0.34359167370E+03  0.38537997015E+03  0.17188669388E+03 0.  0.
         24    2    3    3    0    0 -0.11151791620E+02 -0.49405897593E+02  0.20505597443E+03  0.22527428673E+03  0.78327813951E+02 0.  0.
         -6    2    1    2    0  501 -0.14937393210E+02 -0.26349988829E+02  0.10105692083E+03  0.20021636709E+03  0.17016652072E+03 0.  0.
        -24    2    5    5    0    0  0.49444134492E+02  0.15144200675E+02  0.53770064460E+02  0.11007821946E+03  0.80943964062E+02 0.  0.
          5    1    3    3  502    0  0.26089184830E+02  0.75755886422E+02  0.13853569927E+03  0.16010568342E+03  0.47000000000E+01 0. -1.
        -13    1    4    4    0    0  0.21180982269E+02 -0.52319062197E+02  0.16057570027E+03  0.17020714966E+03  0.00000000000E+00 0.  1.
         14    1    4    4    0    0 -0.32332773889E+02  0.29131646035E+01  0.44480274161E+02  0.55067137067E+02  0.00000000000E+00 0. -1.
         -5    1    5    5    0  501 -0.64381527701E+02 -0.41494189504E+02  0.47286856374E+02  0.90138147626E+02  0.47000000000E+01 0.  1.
         11    1    6    6    0    0 -0.10104047843E+02 -0.18955754401E+02  0.31124885116E+02  0.37817600151E+02  0.00000000000E+00 0. -1.
        -12    1    6    6    0    0  0.59548182335E+02  0.34099955076E+02  0.22645179345E+02  0.72260619311E+02  0.00000000000E+00 0.  1.
</event>
<event>
12    1  0.2614920E-002  0.2113512E+03  0.7818608E-02  0.1140500E+00
          2   -1    0    0  502    0  0.00000000000E+00  0.00000000000E+00  0.27432379277E+03  0.27432379277E+03  0.00000000000E+00 0.  1.
         -2   -1    0    0    0  501 -0.00000000000E+00 -0.00000000000E+00 -0.19851389122E+03  0.19851389122E+03  0.00000000000E+00 0. -1.
          6    2    1    2  502    0 -0.11999572073E+03  0.18151405401E+02  0.13805939766E+03  0.25202816185E+03  0.17242201302E+03 0.  0.
         24    2    3    3    0    0 -0.62626706527E+02 -0.45285831699E+02  0.12159189599E+03  0.16479998147E+03  0.80009585675E+02 0.  0.
         -6    2    1    2    0  501  0.11999572073E+03 -0.18151405401E+02 -0.62249496116E+02  0.22080952214E+03  0.17364734028E+03 0.  0.
        -24    2    5    5    0    0  0.72587605280E+02 -0.78912349667E+02 -0.55078599425E+02  0.14326641465E+03  0.77430575891E+02 0.  0.
          5    1    3    3  502    0 -0.57369014205E+02  0.63437237100E+02  0.16467501673E+02  0.87228180384E+02  0.47000000000E+01 0. -1.
        -11    1    4    4    0    0 -0.52023415387E+02 -0.57896720694E+02  0.52781247235E+02  0.94044277207E+02  0.00000000000E+00 0.  1.
         12    1    4    4    0    0 -0.10603291141E+02  0.12610888996E+02  0.68810648751E+02  0.70755704263E+02  0.00000000000E+00 0. -1.
         -5    1    5    5    0  501  0.47408115453E+02  0.60760944265E+02 -0.71708966918E+01  0.77543107483E+02  0.47000000000E+01 0.  1.
         11    1    6    6    0    0  0.76273854481E+02 -0.30168426922E+02 -0.24488714051E+02  0.85601004528E+02  0.00000000000E+00 0. -1.
        -12    1    6    6    0    0 -0.36862492013E+01 -0.48743922745E+02 -0.30589885374E+02  0.57665410125E+02  0.00000000000E+00 0.  1.
</event>
<event>
12    1  0.2614920E-002  0.2384076E+03  0.7818608E-02  0.1120858E+00
          2   -1    0    0  502    0  0.00000000000E+00  0.00000000000E+00  0.16724875498E+03  0.16724875498E+03  0.00000000000E+00 0. -1.
         -2   -1    0    0    0  501 -0.00000000000E+00 -0.00000000000E+00 -0.67407054653E+03  0.67407054653E+03  0.00000000000E+00 0.  1.
          6    2    1    2  502    0 -0.11566246840E+03 -0.11804941911E+03 -0.54972350419E+03  0.59927087249E+03  0.17209350832E+03 0.  0.
         24    2    3    3    0    0 -0.34976990778E+02 -0.58829336590E+02 -0.43081471054E+03  0.44377632056E+03  0.81558734305E+02 0.  0.
         -6    2    1    2    0  501  0.11566246840E+03  0.11804941911E+03  0.42901712636E+02  0.24204842903E+03  0.17156168890E+03 0.  0.
        -24    2    5    5    0    0  0.13642786631E+03  0.12044324916E+03  0.67010273389E+02  0.20979560164E+03  0.80029236877E+02 0.  0.
          5    1    3    3  502    0 -0.80685477625E+02 -0.59220082519E+02 -0.11890879364E+03  0.15549455193E+03  0.47000000000E+01 0. -1.
        -13    1    4    4    0    0 -0.47267410023E+02 -0.20012419715E+02 -0.12300187830E+03  0.13328228336E+03  0.00000000000E+00 0.  1.
         14    1    4    4    0    0  0.12290419245E+02 -0.38816916875E+02 -0.30781283225E+03  0.31049403720E+03  0.00000000000E+00 0. -1.
         -5    1    5    5    0  501 -0.20765397908E+02 -0.23938300510E+01 -0.24108560753E+02  0.32252827383E+02  0.47000000000E+01 0.  1.
         13    1    6    6    0    0  0.50835370953E+02  0.94169463135E+02  0.20716887776E+02  0.10900143195E+03  0.00000000000E+00 0. -1.
        -14    1    6    6    0    0  0.85592495358E+02  0.26273786026E+02  0.46293385614E+02  0.10079416970E+03  0.00000000000E+00 0.  1.
</event>
<event>
12    1  0.2614920E-002  0.1828688E+03  0.7818608E-02  0.1165055E+00
         -1   -1    0    0    0  501 -0.00000000000E+00  0.00000000000E+00  0.78761911505E+01  0.78761911505E+01  0.00000000000E+00 0.  1.
          1   -1    0    0  502    0  0.00000000000E+00 -0.00000000000E+00 -0.42472337857E+04  0.42472337857E+04  0.00000000000E+00 0. -1.
          6    2    1    2  502    0 -0.41674187696E+01  0.59398379528E+02 -0.21474458389E+04  0.21551478272E+04  0.17202613596E+03 0.  0.
         24    2    3    3    0    0 -0.12255569128E+02 -0.17994844357E+01 -0.18282692352E+04  0.18300226343E+04  0.79126535638E+02 0.  0.
         -6    2    1    2    0  501  0.41674187696E+01 -0.59398379528E+02 -0.20919117557E+04  0.20999621496E+04  0.17378349010E+03 0.  0.
        -24    2    5    5    0    0 -0.37457305453E+02 -0.50546600084E+02 -0.52782758932E+03  0.53529210737E+03  0.63068753392E+02 0.  0.
          5    1    3    3  502    0  0.80881503587E+01  0.61197863964E+02 -0.31917660369E+03  0.32512519292E+03  0.47000000000E+01 0. -1.
        -13    1    4    4    0    0 -0.37608631219E+02 -0.12412801934E+02 -0.53600053226E+03  0.53746167991E+03  0.00000000000E+00 0.  1.
         14    1    4    4    0    0  0.25353062090E+02  0.10613317499E+02 -0.12922687029E+04  0.12925609544E+04  0.00000000000E+00 0. -1.
         -5    1    5    5    0  501  0.41624724223E+02 -0.88517794442E+01 -0.15640841663E+04  0.15646700422E+04  0.47000000000E+01 0.  1.
         11    1    6    6    0    0  0.37407643770E+01  0.12509074625E+02 -0.10493642928E+03  0.10574556471E+03  0.00000000000E+00 0. -1.
        -12    1    6    6    0    0 -0.41198069830E+02 -0.63055674709E+02 -0.42289116004E+03  0.42954654266E+03  0.00000000000E+00 0.  1.
</event>
<event>
12    1  0.2614920E-002  0.1791048E+03  0.7818608E-02  0.1168672E+00
          2   -1    0    0  502    0  0.00000000000E+00  0.00000000000E+00  0.12220836066E+03  0.12220836066E+03  0.00000000000E+00 0. -1.
         -2   -1    0    0    0  501 -0.00000000000E+00 -0.00000000000E+00 -0.55279165274E+03  0.55279165274E+03  0.00000000000E+00 0.  1.
          6    2    1    2  502    0 -0.46464907140E+02 -0.22939804312E+02 -0.45981180466E+03  0.49342593080E+03  0.17133893681E+03 0.  0.
         24    2    3    3    0    0 -0.28039665462E+02 -0.81643122602E+02 -0.29644018737E+03  0.31878932397E+03  0.79360103852E+02 0.  0.
         -6    2    1    2    0  501  0.46464907140E+02  0.22939804312E+02  0.29228512582E+02  0.18157408260E+03  0.17155063191E+03 0.  0.
        -24    2    5    5    0    0  0.65971263648E+02  0.83910632834E+01 -0.37520862919E+02  0.11037202547E+03  0.79696620270E+02 0.  0.
          5    1    3    3  502    0 -0.18425241678E+02  0.58703318290E+02 -0.16337161729E+03  0.17463660683E+03  0.47000000000E+01 0. -1.
        -13    1    4    4    0    0 -0.51993836172E+02 -0.34311938781E+02 -0.13110206656E+03  0.14514964692E+03  0.00000000000E+00 0.  1.
         14    1    4    4    0    0  0.23954170709E+02 -0.47331183821E+02 -0.16533812081E+03  0.17363967706E+03  0.00000000000E+00 0. -1.
         -5    1    5    5    0  501 -0.19506356508E+02  0.14548741028E+02  0.66749375501E+02  0.71202057130E+02  0.47000000000E+01 0.  1.
         11    1    6    6    0    0  0.11433066827E+02  0.11784496508E+02  0.23367543019E+02  0.28559261926E+02  0.00000000000E+00 0. -1.
        -12    1    6    6    0    0  0.54538196821E+02 -0.33934332246E+01 -0.60888405938E+02  0.81812763547E+02  0.00000000000E+00 0.  1.
</event>
<event>
12    1  0.2614920E-002  0.2165304E+03  0.7818608E-02  0.1136496E+00
          1   -1    0    0  502    0  0.00000000000E+00  0.00000000000E+00  0.67446419788E+03  0.67446419788E+03  0.00000000000E+00 0.  1.
         -1   -1    0    0    0  501 -0.00000000000E+00 -0.00000000000E+00 -0.14413773394E+03  0.14413773394E+03  0.00000000000E+00 0. -1.
          6    2    1    2  502    0  0.11339075940E+03 -0.69720003797E+02  0.55963299293E+03  0.60004196913E+03  0.17071301854E+03 0.  0.
         24    2    3    3    0    0  0.34047657256E+02  0.17001669784E+01  0.38360653045E+03  0.39412068770E+03  0.83755672885E+02 0.  0.
         -6    2    1    2    0  501 -0.11339075940E+03  0.69720003797E+02 -0.29306528989E+02  0.21855996269E+03  0.17085444508E+03 0.  0.
        -24    2    5    5    0    0 -0.68066665292E+02 -0.26765855200E+02 -0.67950934487E+01  0.10950653898E+03  0.81215927350E+02 0.  0.
          5    1    3    3  502    0  0.79343102149E+02 -0.71420170775E+02  0.17602646248E+03  0.20592128143E+03  0.47000000000E+01 0. -1.
        -13    1    4    4    0    0  0.47953035098E+02 -0.29404744806E+02  0.24801001215E+03  0.25430906142E+03  0.00000000000E+00 0.  1.
         14    1    4    4    0    0 -0.13905377842E+02  0.31104911784E+02  0.13559651829E+03  0.13981162628E+03  0.00000000000E+00 0. -1.
         -5    1    5    5    0  501 -0.45324094113E+02  0.96485858997E+02 -0.22511435540E+02  0.10905342371E+03  0.47000000000E+01 0.  1.
         11    1    6    6    0    0 -0.69447968514E+02  0.85270081580E+01  0.94953968825E+01  0.70610854412E+02  0.00000000000E+00 0. -1.
        -12    1    6    6    0    0  0.13813032217E+01 -0.35292863358E+02 -0.16290490331E+02  0.38895684566E+02  0.00000000000E+00 0.  1.
</event>
<event>
12    1  0.2614920E-002  0.1965552E+03  0.7818608E-02  0.1152678E+00
          1   -1    0    0  502    0  0.00000000000E+00  0.00000000000E+00  0.26007457059E+03  0.26007457059E+03  0.00000000000E+00 0.  1.
         -1   -1    0    0    0  501 -0.00000000000E+00 -0.00000000000E+00 -0.35414789923E+03  0.35414789923E+03  0.00000000000E+00 0. -1.
          6    2    1    2  502    0 -0.90144000924E+02  0.34592622959E+02 -0.28104160929E+03  0.34299186373E+03  0.17127884273E+03 0.  0.
         24    2    3    3    0    0 -0.25774217178E+02 -0.37201656198E+02 -0.89445327812E+02  0.12844789934E+03  0.80312655809E+02 0.  0.
         -6    2    1    2    0  501  0.90144000924E+02 -0.34592622959E+02  0.18696828066E+03  0.27123060609E+03  0.17113244357E+03 0.  0.
        -24    2    5    5    0    0  0.10360897103E+03 -0.77008214264E+02  0.15380188731E+03  0.21553062895E+03  0.78315691499E+02 0.  0.
          5    1    3    3  502    0 -0.64369783747E+02  0.71794279156E+02 -0.19159628148E+03  0.21454396439E+03  0.47000000000E+01 0. -1.
        -11    1    4    4    0    0  0.22439406384E+02  0.27530338117E+01 -0.48836220199E+02  0.53815263238E+02  0.00000000000E+00 0.  1.
         12    1    4    4    0    0 -0.48213623562E+02 -0.39954690010E+02 -0.40609107613E+02  0.74632636104E+02  0.00000000000E+00 0. -1.
         -5    1    5    5    0  501 -0.13464970103E+02  0.42415591306E+02  0.33166393346E+02  0.55699977138E+02  0.47000000000E+01 0.  1.
         13    1    6    6    0    0  0.13678667591E+02  0.92780959525E+01 -0.12770721917E+01  0.16577693595E+02  0.00000000000E+00 0. -1.
        -14    1    6    6    0    0  0.89930303436E+02 -0.86286310217E+02  0.15507895950E+03  0.19895293536E+03  0.00000000000E+00 0.  1.
</event>
<event>
12    1  0.2614920E-002  0.2724645E+03  0.7818608E-02  0.1099877E+00
          1   -1    0    0  502    0  0.00000000000E+00  0.00000000000E+00  0.26954158223E+03  0.26954158223E+03  0.00000000000E+00 0.  1.
         -1   -1    0    0    0  501 -0.00000000000E+00 -0.00000000000E+00 -0.27786989902E+03  0.27786989902E+03  0.00000000000E+00 0. -1.
          6    2    1    2  502    0 -0.17699763421E+03 -0.11627882920E+03  0.21529049923E+02  0.27379776770E+03  0.17219985183E+03 0.  0.
         24    2    3    3    0    0 -0.23466385769E+02 -0.77253253749E+02 -0.13288747770E+02  0.11153499063E+03  0.75793976287E+02 0.  0.
         -6    2    1    2    0  501  0.17699763421E+03  0.11627882920E+03 -0.29857366705E+02  0.27361371355E+03  0.17065776649E+03 0.  0.
        -24    2    5    5    0    0  0.64354595687E+02 -0.51952853342E+01  0.11510115219E+02  0.10279868731E+03  0.79161748244E+02 0.  0.
          5    1    3    3  502    0 -0.15353124844E+03 -0.39025575448E+02  0.34817797694E+02  0.16226277707E+03  0.47000000000E+01 0. -1.
        -11    1    4    4    0    0 -0.44755883955E+02 -0.54532671806E+02  0.11826961316E+02  0.71531660521E+02  0.00000000000E+00 0.  1.
         12    1    4    4    0    0  0.21289498186E+02 -0.22720581943E+02 -0.25115709087E+02  0.40003330108E+02  0.00000000000E+00 0. -1.
         -5    1    5    5    0  501  0.11264303852E+03  0.12147411453E+03 -0.41367481924E+02  0.17081502624E+03  0.47000000000E+01 0.  1.
         13    1    6    6    0    0  0.81108983508E+02  0.68741581509E+01  0.73143401208E+01  0.81727723738E+02  0.00000000000E+00 0. -1.
        -14    1    6    6    0    0 -0.16754387821E+02 -0.12069443485E+02  0.41957750979E+01  0.21070963575E+02  0.00000000000E+00 0.  1.
</event>
<event>
12    1  0.2614920E-002  0.1832745E+03  0.7818608E-02  0.1164671E+00
          2   -1    0    0  502    0  0.00000000000E+00  0.00000000000E+00  0.18457408867E+04  0.18457408867E+04  0.00000000000E+00 0.  1.
         -2   -1    0    0    0  501 -0.00000000000E+00 -0.00000000000E+00 -0.18329226212E+02  0.18329226212E+02  0.00000000000E+00 0. -1.
          6    2    1    2  502    0 -0.49849951330E+02  0.39806638657E+02  0.99270281121E+03  0.10094886952E+04  0.17186904354E+03 0.  0.
         24    2    3    3    0    0 -0.73147998536E+02  0.97712806806E+01  0.36937682753E+03  0.38498705891E+03  0.79559331317E+02 0.  0.
         -6    2    1    2    0  501  0.49849951330E+02 -0.39806638657E+02  0.83470884925E+03  0.85458141773E+03  0.17175840704E+03 0.  0.
        -24    2    5    5    0    0  0.70989820958E+02 -0.44868827181E+02  0.81889903654E+03  0.82729479064E+03  0.82269509717E+02 0.  0.
          5    1    3    3  502    0  0.23298047206E+02  0.30035357977E+02  0.62332598368E+03  0.62450163624E+03  0.47000000000E+01 0. -1.
        -13    1    4    4    0    0 -0.32296055107E+02  0.16387018659E+02  0.31280299999E+03  0.31489249968E+03  0.00000000000E+00 0.  1.
         14    1    4    4    0    0 -0.40851943429E+02 -0.66157379789E+01  0.56573827542E+02  0.70094559230E+02  0.00000000000E+00 0. -1.
         -5    1    5    5    0  501 -0.21139869628E+02  0.50621885241E+01  0.15809812708E+02  0.27286627098E+02  0.47000000000E+01 0.  1.
         13    1    6    6    0    0  0.76623979507E+02 -0.62435774218E+02  0.66819414460E+03  0.67546493248E+03  0.00000000000E+00 0. -1.
        -14    1    6    6    0    0 -0.56341585491E+01  0.17566947037E+02  0.15070489194E+03  0.15182985815E+03  0.00000000000E+00 0.  1.
</event>
<event>
12    1  0.2614920E-002  0.2480851E+03  0.7818608E-02  0.1114521E+00
         -2   -1    0    0    0  501 -0.00000000000E+00  0.00000000000E+00  0.28665256771E+02  0.28665256771E+02  0.00000000000E+00 0.  1.
          2   -1    0    0  502    0  0.00000000000E+00 -0.00000000000E+00 -0.27413449152E+04  0.27413449152E+04  0.00000000000E+00 0. -1.
          6    2    1    2  502    0  0.74718062352E+02 -0.16216132353E+03 -0.71038503641E+03  0.75237359495E+03  0.17187216973E+03 0.  0.
         24    2    3    3    0    0 -0.21144121556E+02 -0.47647201577E+02 -0.30378813945E+03  0.31919214446E+03  0.82940109225E+02 0.  0.
         -6    2    1    2    0  501 -0.74718062352E+02  0.16216132353E+03 -0.20022946220E+04  0.20176365770E+04  0.17261089159E+03 0.  0.
        -24    2    5    5    0    0 -0.34344042229E+02  0.59250623211E+02 -0.14790800318E+04  0.14828503850E+04  0.80482136516E+02 0.  0.
          5    1    3    3  502    0  0.95862183908E+02 -0.11451412195E+03 -0.40659689696E+03  0.43318145049E+03  0.47000000000E+01 0. -1.
        -11    1    4    4    0    0 -0.23972957709E+02  0.30662656431E+00 -0.19584048075E+02  0.30956932344E+02  0.00000000000E+00 0.  1.
         12    1    4    4    0    0  0.28288361528E+01 -0.47953828142E+02 -0.28420409138E+03  0.28823521212E+03  0.00000000000E+00 0. -1.
         -5    1    5    5    0  501 -0.40374020123E+02  0.10291070032E+03 -0.52321459018E+03  0.53478619197E+03  0.47000000000E+01 0.  1.
         11    1    6    6    0    0 -0.48730982675E+02  0.46095663205E+01 -0.63858855509E+03  0.64046178611E+03  0.00000000000E+00 0. -1.
        -12    1    6    6    0    0  0.14386940447E+02  0.54641056891E+02 -0.84049147672E+03  0.84238859892E+03  0.00000000000E+00 0.  1.
</event>
<event>
12    1  0.2614920E-002  0.5439465E+03  0.7818608E-02  0.1002905E+00
          1   -1    0    0  502    0  0.00000000000E+00  0.00000000000E+00  0.55097060543E+03  0.55097060543E+03  0.00000000000E+00 0.  1.
         -1   -1    0    0    0  501 -0.00000000000E+00 -0.00000000000E+00 -0.58695693668E+03  0.58695693668E+03  0.00000000000E+00 0. -1.
          6    2    1    2  502    0  0.51577700853E+03 -0.20230016344E+02 -0.18396201661E+03  0.57419872016E+03  0.17154291183E+03 0.  0.
         24    2    3    3    0    0  0.43269091357E+03 -0.51023476978E+02 -0.10543207195E+03  0.45570577269E+03  0.82018336848E+02 0.  0.
         -6    2    1    2    0  501 -0.51577700853E+03  0.20230016344E+02  0.14797568535E+03  0.56372882194E+03  0.17163392773E+03 0.  0.
        -24    2    5    5    0    0 -0.11000380218E+03  0.96070453957E+01  0.58405431251E+02  0.14802500560E+03  0.79417101868E+02 0.  0.
          5    1    3    3  502    0  0.83086094957E+02  0.30793460634E+02 -0.78529944660E+02  0.11849294748E+03  0.47000000000E+01 0.  1.
        -13    1    4    4    0    0 -0.33822925152E+01 -0.27952140995E+01 -0.25401235001E+01  0.50700445675E+01  0.00000000000E+00 0.  1.
         14    1    4    4    0    0  0.43607320608E+03 -0.48228262878E+02 -0.10289194845E+03  0.45063572812E+03  0.00000000000E+00 0. -1.
         -5    1    5    5    0  501 -0.40577320635E+03  0.10622970948E+02  0.89570254104E+02  0.41570381634E+03  0.47000000000E+01 0.  1.
         11    1    6    6    0    0 -0.25999163775E+02  0.33298644043E+02  0.41306072085E+02  0.59084243274E+02  0.00000000000E+00 0. -1.
        -12    1    6    6    0    0 -0.84004638404E+02 -0.23691598648E+02  0.17099359166E+02  0.88940762329E+02  0.00000000000E+00 0.  1.
</event>
<event>
12    1  0.2614920E-002  0.1834136E+03  0.7818608E-02  0.1164540E+00
          2   -1    0    0  502    0  0.00000000000E+00  0.00000000000E+00  0.35306007613E+04  0.35306007613E+04  0.00000000000E+00 0. -1.
         -2   -1    0    0    0  501 -0.00000000000E+00 -0.00000000000E+00 -0.10028068293E+02  0.10028068293E+02  0.00000000000E+00 0.  1.
          6    2    1    2  502    0 -0.14450955771E+02 -0.60688456881E+02  0.13654736639E+04  0.13777427628E+04  0.17252499759E+03 0.  0.
         24    2    3    3    0    0 -0.54889785732E+02  0.13276030532E+02  0.77992433139E+03  0.78613803400E+03  0.80882039053E+02 0.  0.
         -6    2    1    2    0  501  0.14450955771E+02  0.60688456881E+02  0.21550990291E+04  0.21628860668E+04  0.17243083725E+03 0.  0.
        -24    2    5    5    0    0  0.31063532310E+02 -0.17920840874E+02  0.15540747014E+04  0.15564969739E+04  0.79047788111E+02 0.  0.
          5    1    3    3  502    0  0.40438829960E+02 -0.73964487413E+02  0.58554933247E+03  0.59160472879E+03  0.47000000000E+01 0. -1.
        -11    1    4    4    0    0 -0.68127001407E+02 -0.78200563721E+01  0.44098281061E+03  0.44628273645E+03  0.00000000000E+00 0.  1.
         12    1    4    4    0    0  0.13237215675E+02  0.21096086905E+02  0.33894152078E+03  0.33985529755E+03  0.00000000000E+00 0. -1.
         -5    1    5    5    0  501 -0.16612576539E+02  0.78609297755E+02  0.60102432773E+03  0.60638909284E+03  0.47000000000E+01 0.  1.
         13    1    6    6    0    0  0.25103102918E+02 -0.46859716238E+02  0.75111542093E+03  0.75299427245E+03  0.00000000000E+00 0. -1.
        -14    1    6    6    0    0  0.59604293923E+01  0.28938875364E+02  0.80295928043E+03  0.80350270146E+03  0.00000000000E+00 0.  1.
</event>
<event>
12    1  0.2614920E-002  0.2091796E+03  0.7818608E-02  0.1142217E+00
          2   -1    0    0  502    0  0.00000000000E+00  0.00000000000E+00  0.56393482655E+03  0.56393482655E+03  0.00000000000E+00 0.  1.
         -2   -1    0    0    0  501 -0.00000000000E+00 -0.00000000000E+00 -0.80435911407E+02  0.80435911407E+02  0.00000000000E+00 0. -1.
          6    2    1    2  502    0 -0.47821310483E+02 -0.10811100380E+03  0.18115111398E+03  0.27671395327E+03  0.17256888178E+03 0.  0.
         24    2    3    3    0    0 -0.47715615256E+02 -0.10213205869E+03  0.52232889700E+02  0.14757156090E+03  0.79632615596E+02 0.  0.
         -6    2    1    2    0  501  0.47821310483E+02  0.10811100380E+03  0.30234780116E+03  0.36765678469E+03  0.17257592990E+03 0.  0.
        -24    2    5    5    0    0  0.20626039881E+02  0.14122129428E+03  0.25725421873E+03  0.30527573584E+03  0.81514749337E+02 0.  0.
          5    1    3    3  502    0 -0.10569522759E+00 -0.59789451054E+01  0.12891822428E+03  0.12914239237E+03  0.47000000000E+01 0. -1.
        -13    1    4    4    0    0 -0.47160566901E+02 -0.24745616119E+02 -0.16306648597E+01  0.53283427588E+02  0.00000000000E+00 0.  1.
         14    1    4    4    0    0 -0.55504835415E+00 -0.77386442575E+02  0.53863554560E+02  0.94288133309E+02  0.00000000000E+00 0. -1.
         -5    1    5    5    0  501  0.27195270602E+02 -0.33110290479E+02  0.45093582429E+02  0.62381048845E+02  0.47000000000E+01 0.  1.
         13    1    6    6    0    0  0.21741530848E+02  0.10307686617E+03  0.24244392414E+03  0.26434180686E+03  0.00000000000E+00 0. -1.
        -14    1    6    6    0    0 -0.11154909663E+01  0.38144428111E+02  0.14810294596E+02  0.40933928984E+02  0.00000000000E+00 0.  1.
</event>
<event>
12    1  0.2614920E-002  0.2958158E+03  0.7818608E-02  0.1087351E+00
         -2   -1    0    0    0  501 -0.00000000000E+00  0.00000000000E+00  0.10188669486E+03  0.10188669486E+03  0.00000000000E+00 0.  1.
          2   -1    0    0  502    0  0.00000000000E+00 -0.00000000000E+00 -0.89067605492E+03  0.89067605492E+03  0.00000000000E+00 0. -1.
          6    2    1    2  502    0  0.80598767685E+02  0.22656237199E+03 -0.48792325005E+03  0.57048799068E+03  0.17193248623E+03 0.  0.
         24    2    3    3    0    0  0.32396531878E+02  0.22816165297E+03 -0.36579267253E+03  0.43909552057E+03  0.76767973439E+02 0.  0.
         -6    2    1    2    0  501 -0.80598767685E+02 -0.22656237199E+03 -0.30086611001E+03  0.42207475909E+03  0.17262681239E+03 0.  0.
        -24    2    5    5    0    0 -0.93201270991E+02 -0.75977277021E+02 -0.16616631820E+03  0.21958817230E+03  0.78413624917E+02 0.  0.
          5    1    3    3  502    0  0.48202235807E+02 -0.15992809812E+01 -0.12213057752E+03  0.13139247011E+03  0.47000000000E+01 0. -1.
        -13    1    4    4    0    0  0.40061375251E+02  0.88018521748E+02 -0.10374373785E+03  0.14182713810E+03  0.00000000000E+00 0.  1.
         14    1    4    4    0    0 -0.76648433730E+01  0.14014313122E+03 -0.26204893468E+03  0.29726838247E+03  0.00000000000E+00 0. -1.
         -5    1    5    5    0  501  0.12602503306E+02 -0.15058509497E+03 -0.13469979181E+03  0.20248658679E+03  0.47000000000E+01 0.  1.
         11    1    6    6    0    0 -0.82973002600E+02 -0.86639150863E+02 -0.11444009426E+03  0.16579323508E+03  0.00000000000E+00 0. -1.
        -12    1    6    6    0    0 -0.10228268391E+02  0.10661873842E+02 -0.51726223934E+02  0.53794937221E+02  0.00000000000E+00 0.  1.
</event>
<event>
12    1  0.2614920E-002  0.1974189E+03  0.7818608E-02  0.1151935E+00
          2   -1    0    0  502    0  0.00000000000E+00  0.00000000000E+00  0.13236683984E+04  0.13236683984E+04  0.00000000000E+00 0.  1.
         -2   -1    0    0    0  501 -0.00000000000E+00 -0.00000000000E+00 -0.30124719896E+02  0.30124719896E+02  0.00000000000E+00 0. -1.
          6    2    1    2  502    0  0.95705727965E+02  0.29976773391E+01  0.75045398373E+03  0.77614283118E+03  0.17334341713E+03 0.  0.
         24    2    3    3    0    0  0.49816449223E+02  0.48861155468E+02  0.63410122610E+03  0.64284114800E+03  0.79317624148E+02 0.  0.
         -6    2    1    2    0  501 -0.95705727965E+02 -0.29976773391E+01  0.54308969479E+03  0.57765028713E+03  0.17194436658E+03 0.  0.
        -24    2    5    5    0    0 -0.56374371339E+02  0.49002748991E+02  0.45440776266E+03  0.46747962389E+03  0.80445290932E+02 0.  0.
          5    1    3    3  502    0  0.45889278743E+02 -0.45863478129E+02  0.11635275763E+03  0.13330168318E+03  0.47000000000E+01 0. -1.
        -13    1    4    4    0    0 -0.12885687601E+02  0.63885237573E+01  0.29654746454E+03  0.29689603047E+03  0.00000000000E+00 0.  1.
         14    1    4    4    0    0  0.62702136823E+02  0.42472631711E+02  0.33755376156E+03  0.34594511754E+03  0.00000000000E+00 0. -1.
         -5    1    5    5    0  501 -0.39331356626E+02 -0.52000426330E+02  0.88681932128E+02  0.11017066324E+03  0.47000000000E+01 0.  1.
         13    1    6    6    0    0 -0.30681979196E+02  0.62649535299E+02  0.20857604656E+03  0.21993252446E+03  0.00000000000E+00 0. -1.
        -14    1    6    6    0    0 -0.25692392143E+02 -0.13646786309E+02  0.24583171610E+03  0.24754709942E+03  0.00000000000E+00 0.  1.
</event>
<event>
12    1  0.2614920E-002  0.3432999E+03  0.7818608E-02  0.1065399E+00
         -2   -1    0    0    0  501 -0.00000000000E+00  0.00000000000E+00  0.84837422457E+02  0.84837422457E+02  0.00000000000E+00 0. -1.
          2   -1    0    0  502    0  0.00000000000E+00 -0.00000000000E+00 -0.14656212050E+04  0.14656212050E+04  0.00000000000E+00 0.  1.
          6    2    1    2  502    0  0.27696378981E+03 -0.10571911699E+03 -0.86855430436E+03  0.93415642502E+03  0.17428761923E+03 0.  0.
         24    2    3    3    0    0  0.10283209721E+03  0.14897364724E+02 -0.33836929695E+03  0.36320247406E+03  0.81399535349E+02 0.  0.
         -6    2    1    2    0  501 -0.27696378981E+03  0.10571911699E+03 -0.51222947823E+03  0.61630220249E+03  0.17194154199E+03 0.  0.
        -24    2    5    5    0    0 -0.23016643808E+03  0.13157859893E+03 -0.47879792346E+03  0.55306879526E+03  0.79675114504E+02 0.  0.
          5    1    3    3  502    0  0.17413169260E+03 -0.12061648171E+03 -0.53018500741E+03  0.57095395095E+03  0.47000000000E+01 0. -1.
        -11    1    4    4    0    0  0.29434305415E+02 -0.12117771375E+02 -0.21351098384E+03  0.21587069959E+03  0.00000000000E+00 0.  1.
         12    1    4    4    0    0  0.73397791791E+02  0.27015136099E+02 -0.12485831311E+03  0.14733177447E+03  0.00000000000E+00 0. -1.
         -5    1    5    5    0  501 -0.46797351723E+02 -0.25859481942E+02 -0.33431554772E+02  0.63233407223E+02  0.47000000000E+01 0.  1.
         13    1    6    6    0    0 -0.12389968353E+03  0.65036367301E+02 -0.17261713006E+03  0.22221056285E+03  0.00000000000E+00 0. -1.
        -14    1    6    6    0    0 -0.10626675456E+03  0.66542231626E+02 -0.30618079339E+03  0.33085823241E+03  0.00000000000E+00 0.  1.
</event>
<event>
12    1  0.2614920E-002  0.2559229E+03  0.7818608E-02  0.1109618E+00
         -1   -1    0    0    0  501 -0.00000000000E+00  0.00000000000E+00  0.62951652059E+03  0.62951652059E+03  0.00000000000E+00 0. -1.
          1   -1    0    0  502    0  0.00000000000E+00 -0.00000000000E+00 -0.11163595360E+04  0.11163595360E+04  0.00000000000E+00 0.  1.
          6    2    1    2  502    0 -0.18587692285E+03  0.38959569146E+02 -0.10746737816E+04  0.11046925191E+04  0.17132935096E+03 0.  0.
         24    2    3    3    0    0 -0.10058760010E+03 -0.39772312418E+02 -0.68945211499E+03  0.70233596063E+03  0.78942261150E+02 0.  0.
         -6    2    1    2    0  501  0.18587692285E+03 -0.38959569146E+02  0.58783076617E+03  0.64118353747E+03  0.17176507382E+03 0.  0.
        -24    2    5    5    0    0  0.15138960467E+03  0.30198734086E+02  0.45788584355E+03  0.48992211166E+03  0.80829783061E+02 0.  0.
          5    1    3    3  502    0 -0.85289322747E+02  0.78731881563E+02 -0.38522166657E+03  0.40235655847E+03  0.47000000000E+01 0. -1.
        -13    1    4    4    0    0 -0.28358808307E+02  0.97590160127E+01 -0.36631237989E+03  0.36753805254E+03  0.00000000000E+00 0.  1.
         14    1    4    4    0    0 -0.72228791797E+02 -0.49531328430E+02 -0.32313973510E+03  0.33479790809E+03  0.00000000000E+00 0. -1.
         -5    1    5    5    0  501  0.34487318184E+02 -0.69158303232E+02  0.12994492262E+03  0.15126142580E+03  0.47000000000E+01 0.  1.
         13    1    6    6    0    0  0.12427462724E+03 -0.49899723117E+01  0.27666535941E+03  0.30333612363E+03  0.00000000000E+00 0. -1.
        -14    1    6    6    0    0  0.27114977425E+02  0.35188706398E+02  0.18122048414E+03  0.18658598804E+03  0.00000000000E+00 0.  1.
</event>
<event>
12    1  0.2614920E-002  0.2202917E+03  0.7818608E-02  0.1133666E+00
          2   -1    0    0  502    0  0.00000000000E+00  0.00000000000E+00  0.20176848723E+04  0.20176848723E+04  0.00000000000E+00 0. -1.
         -2   -1    0    0    0  501 -0.00000000000E+00 -0.00000000000E+00 -0.32295339775E+02  0.32295339775E+02  0.00000000000E+00 0.  1.
          6    2    1    2  502    0 -0.70501386213E+02 -0.11714170127E+03  0.47189283201E+03  0.52040827065E+03  0.17160798237E+03 0.  0.
         24    2    3    3    0    0 -0.11106166538E+02 -0.46373518581E+02  0.95440166149E+02  0.13275555566E+03  0.79002291626E+02 0.  0.
         -6    2    1    2    0  501  0.70501386213E+02  0.11714170127E+03  0.15134967005E+04  0.15295719414E+04  0.17385464595E+03 0.  0.
        -24    2    5    5    0    0  0.70404425077E+02  0.10656471592E+03  0.67135013976E+03  0.68734584245E+03  0.73623876737E+02 0.  0.
          5    1    3    3  502    0 -0.59395219675E+02 -0.70768182691E+02  0.37645266587E+03  0.38765271499E+03  0.47000000000E+01 0. -1.
        -11    1    4    4    0    0 -0.28564466320E+02  0.12240737456E+02  0.30273997975E+02  0.43385243378E+02  0.00000000000E+00 0.  1.
         12    1    4    4    0    0  0.17458299782E+02 -0.58614256037E+02  0.65166168174E+02  0.89370312277E+02  0.00000000000E+00 0. -1.
         -5    1    5    5    0  501  0.96961136030E-01  0.10576985349E+02  0.84214656074E+03  0.84222609897E+03  0.47000000000E+01 0.  1.
         13    1    6    6    0    0  0.70295504311E+02  0.81890678616E+02  0.63012730405E+03  0.63930271427E+03  0.00000000000E+00 0. -1.
        -14    1    6    6    0    0  0.10892076589E+00  0.24674037306E+02  0.41222835711E+02  0.48043128174E+02  0.00000000000E+00 0.  1.
</event>
<event>
12    1  0.2614920E-002  0.1839587E+03  0.7818608E-02  0.1164026E+00
          1   -1    0    0  502    0  0.00000000000E+00  0.00000000000E+00  0.12522492659E+04  0.12522492659E+04  0.00000000000E+00 0.  1.
         -1   -1    0    0    0  501 -0.00000000000E+00 -0.00000000000E+00 -0.48651116430E+02  0.48651116430E+02  0.00000000000E+00 0. -1.
          6    2    1    2  502    0 -0.30576212342E+02  0.56902934402E+02  0.10377325220E+04  0.10541314662E+04  0.17358430836E+03 0.  0.
         24    2    3    3    0    0  0.35129743149E+02 -0.78374428837E+01  0.62023089746E+03  0.62653552898E+03  0.81023938046E+02 0.  0.
         -6    2    1    2    0  501  0.30576212342E+02 -0.56902934402E+02  0.16586562754E+03  0.24676891620E+03  0.17091121349E+03 0.  0.
        -24    2    5    5    0    0  0.58097990930E+02 -0.81833360501E+02  0.16724772947E+03  0.20931261302E+03  0.75946635956E+02 0.  0.
          5    1    3    3  502    0 -0.65705955491E+02  0.64740377285E+02  0.41750162450E+03  0.42759593719E+03  0.47000000000E+01 0. -1.
        -13    1    4    4    0    0 -0.65122110274E+01 -0.28930278002E+02  0.10246793125E+03  0.10667261510E+03  0.00000000000E+00 0.  1.
         14    1    4    4    0    0  0.41641954176E+02  0.21092835118E+02  0.51776296622E+03  0.51986291388E+03  0.00000000000E+00 0. -1.
         -5    1    5    5    0  501 -0.27521778588E+02  0.24930426099E+02 -0.13821019359E+01  0.37456303180E+02  0.47000000000E+01 0.  1.
         11    1    6    6    0    0  0.41290610908E+02 -0.59658536405E+02  0.48315848968E+02  0.87169242148E+02  0.00000000000E+00 0. -1.
        -12    1    6    6    0    0  0.16807380023E+02 -0.22174824096E+02  0.11893188050E+03  0.12214337087E+03  0.00000000000E+00 0.  1.
</event>
<event>
12    1  0.2614920E-002  0.1916455E+03  0.7818608E-02  0.1156986E+00
         -2   -1    0    0    0  501 -0.00000000000E+00  0.00000000000E+00  0.19198346988E+02  0.19198346988E+02  0.00000000000E+00 0. -1.
          2   -1    0    0  502    0  0.00000000000E+00 -0.00000000000E+00 -0.19184974108E+04  0.19184974108E+04  0.00000000000E+00 0.  1.
          6    2    1    2  502    0  0.54015698265E+01 -0.84953188588E+02 -0.89558284282E+03  0.91574608711E+03  0.17110244444E+03 0.  0.
         24    2    3    3    0    0 -0.51819869982E+02 -0.16861684224E+02 -0.35487066093E+03  0.36774745592E+03  0.79595163342E+02 0.  0.
         -6    2    1    2    0  501 -0.54015698265E+01  0.84953188588E+02 -0.10037162210E+04  0.10219496707E+04  0.17230396371E+03 0.  0.
        -24    2    5    5    0    0  0.55387497012E+02  0.21800167971E+02 -0.43974562316E+03  0.45118830208E+03  0.81557640356E+02 0.  0.
          5    1    3    3  502    0  0.57221439809E+02 -0.68091504364E+02 -0.54071218189E+03  0.54799863119E+03  0.47000000000E+01 0. -1.
        -11    1    4    4    0    0 -0.29494095810E+01  0.29156085287E+02 -0.11218593333E+03  0.11595024780E+03  0.00000000000E+00 0.  1.
         12    1    4    4    0    0 -0.48870460401E+02 -0.46017769511E+02 -0.24268472760E+03  0.25179720813E+03  0.00000000000E+00 0. -1.
         -5    1    5    5    0  501 -0.60789066838E+02  0.63153020616E+02 -0.56397059784E+03  0.57076136861E+03  0.47000000000E+01 0.  1.
         13    1    6    6    0    0  0.10527922213E+02  0.38452053259E+02 -0.93398509492E+02  0.10155136199E+03  0.00000000000E+00 0. -1.
        -14    1    6    6    0    0  0.44859574799E+02 -0.16651885288E+02 -0.34634711367E+03  0.34963694010E+03  0.00000000000E+00 0.  1.
</event>
<event>
12    1  0.2614920E-002  0.1938401E+03  0.7818608E-02  0.1155043E+00
         -2   -1    0    0    0  501 -0.00000000000E+00  0.00000000000E+00  0.19438218272E+02  0.19438218272E+02  0.00000000000E+00 0.  1.
          2   -1    0    0  502    0  0.00000000000E+00 -0.00000000000E+00 -0.21753464194E+04  0.21753464194E+04  0.00000000000E+00 0. -1.
          6    2    1    2  502    0 -0.11172273097E+03  0.67784148976E+01 -0.73594813111E+03  0.76227784703E+03  0.16407299860E+03 0.  0.
         24    2    3    3    0    0 -0.13012357907E+03  0.19280106521E+02 -0.45455534608E+03  0.47996795884E+03  0.80279577283E+02 0.  0.
         -6    2    1    2    0  501  0.11172273097E+03 -0.67784148976E+01 -0.14199600700E+04  0.14325067907E+04  0.15251619342E+03 0.  0.
        -24    2    5    5    0    0  0.10577573394E+03 -0.11144102837E+02 -0.71051203990E+03  0.72300483614E+03  0.81215376097E+02 0.  0.
          5    1    3    3  502    0  0.18400848095E+02 -0.12501691624E+02 -0.28139278503E+03  0.28230988820E+03  0.47000000000E+01 0. -1.
        -13    1    4    4    0    0 -0.13227503426E+02 -0.19437253797E+02 -0.31197405763E+02  0.39064713085E+02  0.00000000000E+00 0.  1.
         14    1    4    4    0    0 -0.11689607564E+03  0.38717360318E+02 -0.42335794031E+03  0.44090324575E+03  0.00000000000E+00 0. -1.
         -5    1    5    5    0  501  0.59469970333E+01  0.43656879398E+01 -0.70944803014E+03  0.70950195452E+03  0.47000000000E+01 0.  1.
         11    1    6    6    0    0  0.49994862162E+02 -0.45665291824E+02 -0.39246208503E+03  0.39826033358E+03  0.00000000000E+00 0. -1.
        -12    1    6    6    0    0  0.55780871776E+02  0.34521188986E+02 -0.31804995488E+03  0.32474450256E+03  0.00000000000E+00 0.  1.
</event>
<event>
12    1  0.2614920E-002  0.2751074E+03  0.7818608E-02  0.1098392E+00
          2   -1    0    0  502    0  0.00000000000E+00  0.00000000000E+00  0.25876513251E+04  0.25876513251E+04  0.00000000000E+00 0.  1.
         -2   -1    0    0    0  501 -0.00000000000E+00 -0.00000000000E+00 -0.37159096169E+02  0.37159096169E+02  0.00000000000E+00 0. -1.
          6    2    1    2  502    0 -0.27219070760E+02  0.21168150864E+03  0.66531638254E+03  0.71949166857E+03  0.17167537202E+03 0.  0.
         24    2    3    3    0    0  0.16645302138E+02  0.15689063592E+03  0.59186728711E+03  0.61779121350E+03  0.80419899305E+02 0.  0.
         -6    2    1    2    0  501  0.27219070760E+02 -0.21168150864E+03  0.18851758464E+04  0.19053187527E+04  0.17550395620E+03 0.  0.
        -24    2    5    5    0    0 -0.36582739038E+02 -0.18050701035E+03  0.15285598571E+04  0.15416711567E+04  0.79584175483E+02 0.  0.
          5    1    3    3  502    0 -0.43864372898E+02  0.54790872719E+02  0.73449095432E+02  0.10170045508E+03  0.47000000000E+01 0. -1.
        -11    1    4    4    0    0  0.31279516933E+02  0.37233449651E+02  0.26452133798E+03  0.26895404106E+03  0.00000000000E+00 0.  1.
         12    1    4    4    0    0 -0.14634214795E+02  0.11965718627E+03  0.32734594912E+03  0.34883717244E+03  0.00000000000E+00 0. -1.
         -5    1    5    5    0  501  0.63801809798E+02 -0.31174498284E+02  0.35661598927E+03  0.36364759600E+03  0.47000000000E+01 0.  1.
         13    1    6    6    0    0 -0.69391740488E+01 -0.42360707714E+00  0.99753073110E+01  0.12158878870E+02  0.00000000000E+00 0. -1.
        -14    1    6    6    0    0 -0.29643564989E+02 -0.18008340328E+03  0.15185845498E+04  0.15295122778E+04  0.00000000000E+00 0.  1.
</event>
<event>
12    1  0.2614920E-002  0.2021656E+03  0.7818608E-02  0.1147925E+00
          2   -1    0    0  502    0  0.00000000000E+00  0.00000000000E+00  0.21649815317E+04  0.21649815317E+04  0.00000000000E+00 0. -1.
         -2   -1    0    0    0  501 -0.00000000000E+00 -0.00000000000E+00 -0.21257105161E+02  0.21257105161E+02  0.00000000000E+00 0.  1.
          6    2    1    2  502    0  0.13182177380E+02  0.10583687557E+03  0.14374588467E+04  0.14516030797E+04  0.17172172535E+03 0.  0.
         24    2    3    3    0    0 -0.28951164703E+02 -0.21859803567E+01  0.51089288227E+03  0.51779863958E+03  0.79126136948E+02 0.  0.
         -6    2    1    2    0  501 -0.13182177380E+02 -0.10583687557E+03  0.70626557983E+03  0.73463555717E+03  0.17176471865E+03 0.  0.
        -24    2    5    5    0    0  0.14056477532E+02 -0.68316493840E+02  0.66208746804E+03  0.67042092545E+03  0.78991607423E+02 0.  0.
          5    1    3    3  502    0  0.42133342083E+02  0.10802285593E+03  0.92656596444E+03  0.93380444011E+03  0.47000000000E+01 0. -1.
        -11    1    4    4    0    0 -0.25253858624E+02 -0.28472379847E+02  0.44691266525E+03  0.44853022658E+03  0.00000000000E+00 0.  1.
         12    1    4    4    0    0 -0.36973060792E+01  0.26286399490E+02  0.63980217021E+02  0.69268413006E+02  0.00000000000E+00 0. -1.
         -5    1    5    5    0  501 -0.27238654912E+02 -0.37520381730E+02  0.44178111791E+02  0.64214631728E+02  0.47000000000E+01 0.  1.
         11    1    6    6    0    0 -0.15788934724E+02 -0.72101354285E+02  0.41548437274E+03  0.42198952563E+03  0.00000000000E+00 0. -1.
        -12    1    6    6    0    0  0.29845412256E+02  0.37848604455E+01  0.24660309530E+03  0.24843139982E+03  0.00000000000E+00 0.  1.
</event>
<event>
12    1  0.2614920E-002  0.1906092E+03  0.7818608E-02  0.1157913E+00
          2   -1    0    0  502    0  0.00000000000E+00  0.00000000000E+00  0.56516931036E+03  0.56516931036E+03  0.00000000000E+00 0. -1.
         -2   -1    0    0    0  501 -0.00000000000E+00 -0.00000000000E+00 -0.94986678562E+02  0.94986678562E+02  0.00000000000E+00 0.  1.
          6    2    1    2  502    0 -0.79657866961E+02 -0.25517331692E+02  0.46805081238E+02  0.19553738225E+03  0.17043368869E+03 0.  0.
         24    2    3    3    0    0 -0.43400788315E+02 -0.82116917996E+02  0.29098815103E+02  0.12586894763E+03  0.79808735667E+02 0.  0.
         -6    2    1    2    0  501  0.79657866961E+02  0.25517331692E+02  0.42337755056E+03  0.46461860668E+03  0.17212027587E+03 0.  0.
        -24    2    5    5    0    0  0.23661666992E+02 -0.85493184839E+01  0.37086114112E+03  0.38049860712E+03  0.81291073907E+02 0.  0.
          5    1    3    3  502    0 -0.36257078646E+02  0.56599586305E+02  0.17706266135E+02  0.69668434619E+02  0.47000000000E+01 0. -1.
        -13    1    4    4    0    0  0.90857817271E+00  0.14013164248E+02 -0.46112618739E+01  0.14780325525E+02  0.00000000000E+00 0.  1.
         14    1    4    4    0    0 -0.44309366488E+02 -0.96130082244E+02  0.33710076977E+02  0.11108862210E+03  0.00000000000E+00 0. -1.
         -5    1    5    5    0  501  0.55996199969E+02  0.34066650175E+02  0.52516409446E+02  0.84119999562E+02  0.47000000000E+01 0.  1.
         11    1    6    6    0    0 -0.29952671673E+02 -0.48858493919E+01  0.16312591122E+03  0.16592497394E+03  0.00000000000E+00 0. -1.
        -12    1    6    6    0    0  0.53614338665E+02 -0.36634690919E+01  0.20773522990E+03  0.21457363318E+03  0.00000000000E+00 0.  1.
</event>
<event>
12    1  0.2614920E-002  0.2000439E+03  0.7818608E-02  0.1149702E+00
         -1   -1    0    0    0  501 -0.00000000000E+00  0.00000000000E+00  0.24982367270E+02  0.24982367270E+02  0.00000000000E+00 0. -1.
          1   -1    0    0  502    0  0.00000000000E+00 -0.00000000000E+00 -0.16443781902E+04  0.16443781902E+04  0.00000000000E+00 0.  1.
          6    2    1    2  502    0  0.10161195058E+03 -0.84983896035E+01 -0.67382152423E+03  0.70277176662E+03  0.17162604205E+03 0.  0.
         24    2    3    3    0    0 -0.16030057097E+02 -0.12924708144E+02 -0.26896339807E+03  0.28111856007E+03  0.79134850147E+02 0.  0.
         -6    2    1    2    0  501 -0.10161195058E+03  0.84983896035E+01 -0.94557429875E+03  0.96658879090E+03  0.17258599340E+03 0.  0.
        -24    2    5    5    0    0 -0.36593225648E+02 -0.56354525285E+02 -0.40903814117E+03  0.42223001808E+03  0.80318681211E+02 0.  0.
          5    1    3    3  502    0  0.11764200768E+03  0.44263185407E+01 -0.40485812616E+03  0.42165320654E+03  0.47000000000E+01 0. -1.
        -11    1    4    4    0    0  0.68313903079E+01 -0.36426693244E+02 -0.21346788731E+03  0.21666128124E+03  0.00000000000E+00 0.  1.
         12    1    4    4    0    0 -0.22861447405E+02  0.23501985100E+02 -0.55495510755E+02  0.64457278837E+02  0.00000000000E+00 0. -1.
         -5    1    5    5    0  501 -0.65018724931E+02  0.64852914889E+02 -0.53653615758E+03  0.54435877282E+03  0.47000000000E+01 0.  1.
         11    1    6    6    0    0  0.91652573086E+01 -0.25634651933E+02 -0.35959169150E+02  0.45102097149E+02  0.00000000000E+00 0. -1.
        -12    1    6    6    0    0 -0.45758482956E+02 -0.30719873352E+02 -0.37307897202E+03  0.37712792093E+03  0.00000000000E+00 0.  1.
</event>
<event>
12    1  0.2614920E-002  0.1839759E+03  0.7818608E-02  0.1164010E+00
         -1   -1    0    0    0  501 -0.00000000000E+00  0.00000000000E+00  0.54376402957E+02  0.54376402957E+02  0.00000000000E+00 0. -1.
          1   -1    0    0  502    0  0.00000000000E+00 -0.00000000000E+00 -0.90557990196E+03  0.90557990196E+03  0.00000000000E+00 0.  1.
          6    2    1    2  502    0  0.42937947892E+02 -0.49240893496E+02 -0.15917458766E+03  0.24420000924E+03  0.17328809016E+03 0.  0.
         24    2    3    3    0    0 -0.38607168671E+02 -0.14565919627E+00 -0.90050594090E+02  0.12647080915E+03  0.79970128056E+02 0.  0.
         -6    2    1    2    0  501 -0.42937947892E+02  0.49240893496E+02 -0.69202891134E+03  0.71575629568E+03  0.17068897946E+03 0.  0.
        -24    2    5    5    0    0 -0.77089194008E+02 -0.10922771209E+02 -0.43074337918E+03  0.44542650916E+03  0.82479485888E+02 0.  0.
          5    1    3    3  502    0  0.81545116563E+02 -0.49095234300E+02 -0.69123993569E+02  0.11772920009E+03  0.47000000000E+01 0. -1.
        -13    1    4    4    0    0 -0.51055555005E+01 -0.10989530722E+02 -0.90447569894E+02  0.91255681369E+02  0.00000000000E+00 0.  1.
         14    1    4    4    0    0 -0.33501613171E+02  0.10843871525E+02  0.39697580413E+00  0.35215127779E+02  0.00000000000E+00 0. -1.
         -5    1    5    5    0  501  0.34151246116E+02  0.60163664705E+02 -0.26128553216E+03  0.27032978652E+03  0.47000000000E+01 0.  1.
         11    1    6    6    0    0 -0.54036317182E+02 -0.17769134218E+02 -0.11050109521E+03  0.12428257218E+03  0.00000000000E+00 0. -1.
        -12    1    6    6    0    0 -0.23052876825E+02  0.68463630082E+01 -0.32024228397E+03  0.32114393698E+03  0.00000000000E+00 0.  1.
</event>
<event>
12    1  0.2614920E-002  0.2148607E+03  0.7818608E-02  0.1137774E+00
          1   -1    0    0  502    0  0.00000000000E+00  0.00000000000E+00  0.26393674701E+04  0.26393674701E+04  0.00000000000E+00 0.  1.
         -1   -1    0    0    0  501 -0.00000000000E+00 -0.00000000000E+00 -0.19251620041E+02  0.19251620041E+02  0.00000000000E+00 0. -1.
          6    2    1    2  502    0  0.12326565778E+03 -0.30499048095E+02  0.91582578639E+03  0.94101089551E+03  0.17504290938E+03 0.  0.
         24    2    3    3    0    0  0.52571658947E+02  0.50449860605E+02  0.51037198003E+03  0.52152877862E+03  0.78763831649E+02 0.  0.
         -6    2    1    2    0  501 -0.12326565778E+03  0.30499048095E+02  0.17042900637E+04  0.17176081946E+04  0.17160616199E+03 0.  0.
        -24    2    5    5    0    0 -0.64296328414E+02 -0.28625720628E+02  0.13266360024E+04  0.13308035927E+04  0.78241100178E+02 0.  0.
          5    1    3    3  502    0  0.70693998830E+02 -0.80948908701E+02  0.40545380636E+03  0.41948211688E+03  0.47000000000E+01 0. -1.
        -11    1    4    4    0    0 -0.62167291851E+01 -0.15327657459E+02  0.13068635431E+03  0.13172891864E+03  0.00000000000E+00 0.  1.
         12    1    4    4    0    0  0.58788388132E+02  0.65777518064E+02  0.37968562572E+03  0.38979985998E+03  0.00000000000E+00 0. -1.
         -5    1    5    5    0  501 -0.58969329363E+02  0.59124768723E+02  0.37765406121E+03  0.38680460187E+03  0.47000000000E+01 0.  1.
         11    1    6    6    0    0 -0.82094467655E+01  0.16807601861E+02  0.83306282594E+02  0.85380484985E+02  0.00000000000E+00 0. -1.
        -12    1    6    6    0    0 -0.56086881648E+02 -0.45433322489E+02  0.12433297198E+04  0.12454231078E+04  0.00000000000E+00 0.  1.
</event>
<event>
12    1  0.2614920E-002  0.2852396E+03  0.7818608E-02  0.1092861E+00
          1   -1    0    0  502    0  0.00000000000E+00  0.00000000000E+00  0.17667155287E+04  0.17667155287E+04  0.00000000000E+00 0. -1.
         -1   -1    0    0    0  501 -0.00000000000E+00 -0.00000000000E+00 -0.46078674473E+02  0.46078674473E+02  0.00000000000E+00 0.  1.
          6    2    1    2  502    0  0.34737955519E+02 -0.22393545029E+03  0.88349272876E+03  0.92856352464E+03  0.17411779365E+03 0.  0.
         24    2    3    3    0    0  0.56440610728E+02 -0.12512356933E+03  0.70460742916E+03  0.72299885483E+03  0.86106124693E+02 0.  0.
         -6    2    1    2    0  501 -0.34737955519E+02  0.22393545029E+03  0.83714412543E+03  0.88423067850E+03  0.17233628349E+03 0.  0.
        -24    2    5    5    0    0 -0.71659882420E+02  0.20168710309E+03  0.78018529914E+03  0.81264425848E+03  0.76738279499E+02 0.  0.
          5    1    3    3  502    0 -0.21702655209E+02 -0.98811880960E+02  0.17888529960E+03  0.20556466981E+03  0.47000000000E+01 0. -1.
        -11    1    4    4    0    0  0.32695481139E+02 -0.11510236027E+02  0.72951677802E+02  0.80767736841E+02  0.00000000000E+00 0.  1.
         12    1    4    4    0    0  0.23745129589E+02 -0.11361333330E+03  0.63165575136E+03  0.64223111799E+03  0.00000000000E+00 0. -1.
         -5    1    5    5    0  501  0.36921926901E+02  0.22248347199E+02  0.56958826292E+02  0.71586420023E+02  0.47000000000E+01 0.  1.
         11    1    6    6    0    0 -0.75174452954E+02  0.12456809673E+03  0.58312931206E+03  0.60100599305E+03  0.00000000000E+00 0. -1.
        -12    1    6    6    0    0  0.35145705341E+01  0.77119006366E+02  0.19705598707E+03  0.21163826542E+03  0.00000000000E+00 0.  1.
</event>
<event>
12    1  0.2614920E-002  0.1971858E+03  0.7818608E-02  0.1152135E+00
         -1   -1    0    0    0  501 -0.00000000000E+00  0.00000000000E+00  0.52031351127E+02  0.52031351127E+02  0.00000000000E+00 0.  1.
          1   -1    0    0  502    0  0.00000000000E+00 -0.00000000000E+00 -0.30042434043E+04  0.30042434043E+04  0.00000000000E+00 0. -1.
          6    2    1    2  502    0  0.10392427660E+02  0.96971439043E+02 -0.28009547806E+04  0.28078997273E+04  0.17158593424E+03 0.  0.
         24    2    3    3    0    0  0.64457936424E+02  0.24495671326E+02 -0.15376764591E+04  0.15413808669E+04  0.81555014594E+02 0.  0.
         -6    2    1    2    0  501 -0.10392427660E+02 -0.96971439043E+02 -0.15125727251E+03  0.24837502811E+03  0.17117222192E+03 0.  0.
        -24    2    5    5    0    0 -0.27154214472E+02 -0.98869492646E+02 -0.41552838680E+02  0.13728176590E+03  0.81284173783E+02 0.  0.
          5    1    3    3  502    0 -0.54065508763E+02  0.72475767717E+02 -0.12632783215E+04  0.12665188604E+04  0.47000000000E+01 0. -1.
        -13    1    4    4    0    0  0.64247212133E+02  0.41188851393E+02 -0.82838897790E+03  0.83189694341E+03  0.00000000000E+00 0.  1.
         14    1    4    4    0    0  0.21072429075E+00 -0.16693180067E+02 -0.70928748124E+03  0.70948392350E+03  0.00000000000E+00 0. -1.
         -5    1    5    5    0  501  0.16761786811E+02  0.18980536024E+01 -0.10970443383E+03  0.11109326220E+03  0.47000000000E+01 0.  1.
         11    1    6    6    0    0 -0.47243640776E+01 -0.79463714705E+01 -0.42635878184E+02  0.43626626549E+02  0.00000000000E+00 0. -1.
        -12    1    6    6    0    0 -0.22429850394E+02 -0.90923121175E+02  0.10830395043E+01  0.93655139355E+02  0.00000000000E+00 0.  1.
</event>
<event>
12    1  0.2614920E-002  0.1742157E+03  0.7818608E-02  0.1173522E+00
          2   -1    0    0  502    0  0.00000000000E+00  0.00000000000E+00  0.42986578203E+03  0.42986578203E+03  0.00000000000E+00 0.  1.
         -2   -1    0    0    0  501 -0.00000000000E+00 -0.00000000000E+00 -0.84580921136E+02  0.84580921136E+02  0.00000000000E+00 0. -1.
          6    2    1    2  502    0 -0.21932187867E+02  0.11804102968E+02  0.27736502352E+03  0.32764746943E+03  0.17263009656E+03 0.  0.
         24    2    3    3    0    0 -0.61913055626E+02 -0.86533735594E+01  0.26077772277E+03  0.27954126734E+03  0.78931566093E+02 0.  0.
         -6    2    1    2    0  501  0.21932187867E+02 -0.11804102968E+02  0.67919837371E+02  0.18679923374E+03  0.17222221606E+03 0.  0.
        -24    2    5    5    0    0 -0.39592498964E+02  0.35043139165E+02  0.29233402943E+02  0.10020430667E+03  0.79942001792E+02 0.  0.
          5    1    3    3  502    0  0.39980867759E+02  0.20457476528E+02  0.16587300753E+02  0.48106202084E+02  0.47000000000E+01 0. -1.
        -13    1    4    4    0    0  0.11527428161E+02  0.16330757430E+02  0.86481039589E+02  0.88761170827E+02  0.00000000000E+00 0.  1.
         14    1    4    4    0    0 -0.73440483786E+02 -0.24984130989E+02  0.17429668318E+03  0.19078009652E+03  0.00000000000E+00 0. -1.
         -5    1    5    5    0  501  0.61524686830E+02 -0.46847242133E+02  0.38686434428E+02  0.86594927067E+02  0.47000000000E+01 0.  1.
         13    1    6    6    0    0 -0.39689231076E+02 -0.11895656225E+02  0.33205674371E+02  0.53097631876E+02  0.00000000000E+00 0. -1.
        -14    1    6    6    0    0  0.96732111913E-01  0.46938795390E+02 -0.39722714283E+01  0.47106674793E+02  0.00000000000E+00 0.  1.
</event>
<event>
12    1  0.2614920E-002  0.2002979E+03  0.7818608E-02  0.1149488E+00
         -1   -1    0    0    0  501 -0.00000000000E+00  0.00000000000E+00  0.12058486341E+04  0.12058486341E+04  0.00000000000E+00 0. -1.
          1   -1    0    0  502    0  0.00000000000E+00 -0.00000000000E+00 -0.31421641507E+03  0.31421641507E+03  0.00000000000E+00 0.  1.
          6    2    1    2  502    0 -0.78966325499E+02 -0.60390299663E+02  0.11640435681E+04  0.11808404683E+04  0.17176761689E+03 0.  0.
         24    2    3    3    0    0 -0.45527831310E+02  0.11999594893E+02  0.90808075336E+03  0.91270340956E+03  0.78740621590E+02 0.  0.
         -6    2    1    2    0  501  0.78966325499E+02  0.60390299663E+02 -0.27241134913E+03  0.33922458083E+03  0.17601904513E+03 0.  0.
        -24    2    5    5    0    0 -0.27773014607E+02  0.21448237457E+02 -0.97936445483E+02  0.13096187909E+03  0.79549350655E+02 0.  0.
          5    1    3    3  502    0 -0.33438494189E+02 -0.72389894556E+02  0.25596281477E+03  0.26813705874E+03  0.47000000000E+01 0. -1.
        -13    1    4    4    0    0  0.13707011435E+02  0.25926783358E+02  0.37954787606E+03  0.38067922255E+03  0.00000000000E+00 0.  1.
         14    1    4    4    0    0 -0.59234842745E+02 -0.13927188464E+02  0.52853287730E+03  0.53202418701E+03  0.00000000000E+00 0. -1.
         -5    1    5    5    0  501  0.10673934011E+03  0.38942062206E+02 -0.17447490365E+03  0.20826270175E+03  0.47000000000E+01 0.  1.
         13    1    6    6    0    0  0.12823457668E+01  0.22416801373E+01  0.13739747778E+02  0.13980350836E+02  0.00000000000E+00 0. -1.
        -14    1    6    6    0    0 -0.29055360373E+02  0.19206557320E+02 -0.11167619326E+03  0.11698152825E+03  0.00000000000E+00 0.  1.
</event>
<event>
12    1  0.2614920E-002  0.1782319E+03  0.7818608E-02  0.1169525E+00
         -1   -1    0    0    0  501 -0.00000000000E+00  0.00000000000E+00  0.82645310122E+02  0.82645310122E+02  0.00000000000E+00 0.  1.
          1   -1    0    0  502    0  0.00000000000E+00 -0.00000000000E+00 -0.43996097476E+03  0.43996097476E+03  0.00000000000E+00 0. -1.
          6    2    1    2  502    0  0.17157124414E+02  0.44608364605E+02 -0.85155756268E+02  0.19688615128E+03  0.17096309727E+03 0.  0.
         24    2    3    3    0    0 -0.10028150767E+02 -0.39095010015E+02 -0.44733400512E+02  0.99925587363E+02  0.79718644447E+02 0.  0.
         -6    2    1    2    0  501 -0.17157124414E+02 -0.44608364605E+02 -0.27215990837E+03  0.32572013361E+03  0.17244801130E+03 0.  0.
        -24    2    5    5    0    0  0.37371984862E+02 -0.42260674475E+01 -0.96764767559E+02  0.13759863270E+03  0.90307466922E+02 0.  0.
          5    1    3    3  502    0  0.27185275182E+02  0.83703374620E+02 -0.40422355755E+02  0.96960563913E+02  0.47000000000E+01 0. -1.
        -13    1    4    4    0    0  0.17001059319E+02 -0.17894942255E+02  0.16517164310E+02  0.29699860154E+02  0.00000000000E+00 0.  1.
         14    1    4    4    0    0 -0.27029210087E+02 -0.21200067760E+02 -0.61250564822E+02  0.70225727209E+02  0.00000000000E+00 0. -1.
         -5    1    5    5    0  501 -0.54529109276E+02 -0.40382297157E+02 -0.17539514081E+03  0.18812150090E+03  0.47000000000E+01 0.  1.
         13    1    6    6    0    0 -0.72487124016E+01 -0.39472782692E+02 -0.48994774930E+02  0.63333501209E+02  0.00000000000E+00 0. -1.
        -14    1    6    6    0    0  0.44620697263E+02  0.35246715245E+02 -0.47769992629E+02  0.74265131492E+02  0.00000000000E+00 0.  1.
</event>
<event>
12    1  0.2614920E-002  0.2036562E+03  0.7818608E-02  0.1146690E+00
          2   -1    0    0  502    0  0.00000000000E+00  0.00000000000E+00  0.39029279415E+03  0.39029279415E+03  0.00000000000E+00 0. -1.
         -2   -1    0    0    0  501 -0.00000000000E+00 -0.00000000000E+00 -0.11734857647E+03  0.11734857647E+03  0.00000000000E+00 0.  1.
          6    2    1    2  502    0  0.10175348725E+03  0.40608128015E+02  0.21476438715E+03  0.29631463736E+03  0.17226674113E+03 0.  0.
         24    2    3    3    0    0  0.72028732738E+02 -0.37877647740E+02  0.10058196592E+03  0.15452855432E+03  0.84495489196E+02 0.  0.
         -6    2    1    2    0  501 -0.10175348725E+03 -0.40608128015E+02  0.58179830531E+02  0.21132673326E+03  0.17108858315E+03 0.  0.
        -24    2    5    5    0    0 -0.13251726418E+03 -0.65409056480E+01  0.55263122860E+02  0.16509273285E+03  0.81228005874E+02 0.  0.
          5    1    3    3  502    0  0.29724754510E+02  0.78485775755E+02  0.11418242122E+03  0.14178608304E+03  0.47000000000E+01 0. -1.
        -11    1    4    4    0    0  0.56599820608E+02  0.15637773521E+02  0.34495430457E+02  0.68102968922E+02  0.00000000000E+00 0.  1.
         12    1    4    4    0    0  0.15428912129E+02 -0.53515421261E+02  0.66086535465E+02  0.86425585401E+02  0.00000000000E+00 0. -1.
         -5    1    5    5    0  501  0.30763776931E+02 -0.34067222367E+02  0.29167076709E+01  0.46234000417E+02  0.47000000000E+01 0.  1.
         13    1    6    6    0    0 -0.49287915621E+02 -0.24380594520E+02  0.58007638801E+02  0.79928706824E+02  0.00000000000E+00 0. -1.
        -14    1    6    6    0    0 -0.83229348559E+02  0.17839688872E+02 -0.27445159410E+01  0.85164026022E+02  0.00000000000E+00 0.  1.
</event>
<event>
12    1  0.2614920E-002  0.2687828E+03  0.7818608E-02  0.1101978E+00
         -2   -1    0    0    0  501 -0.00000000000E+00  0.00000000000E+00  0.28062771579E+03  0.28062771579E+03  0.00000000000E+00 0.  1.
          2   -1    0    0  502    0  0.00000000000E+00 -0.00000000000E+00 -0.35391352084E+03  0.35391352084E+03  0.00000000000E+00 0. -1.
          6    2    1    2  502    0 -0.16715589906E+03 -0.12046078133E+03 -0.20219972686E+03  0.33562702460E+03  0.17119835182E+03 0.  0.
         24    2    3    3    0    0 -0.73870275290E+02 -0.16629933147E+02 -0.15146915985E+03  0.18703788278E+03  0.79415936442E+02 0.  0.
         -6    2    1    2    0  501  0.16715589906E+03  0.12046078133E+03  0.12891392181E+03  0.29891421203E+03  0.17400865637E+03 0.  0.
        -24    2    5    5    0    0  0.46774591880E+02  0.23427669701E+02 -0.38984995180E+01  0.95031125120E+02  0.79240130552E+02 0.  0.
          5    1    3    3  502    0 -0.93285623768E+02 -0.10383084819E+03 -0.50730567017E+02  0.14858914182E+03  0.47000000000E+01 0. -1.
        -13    1    4    4    0    0 -0.37649834918E+01  0.20784001448E+02 -0.71711864621E+01  0.22306405630E+02  0.00000000000E+00 0.  1.
         14    1    4    4    0    0 -0.70105291798E+02 -0.37413934594E+02 -0.14429797339E+03  0.16473147715E+03  0.00000000000E+00 0. -1.
         -5    1    5    5    0  501  0.12038130718E+03  0.97033111632E+02  0.13281242133E+03  0.20388308691E+03  0.47000000000E+01 0.  1.
         13    1    6    6    0    0  0.63141212559E+02  0.36169109247E+02  0.39016943861E+01  0.72871396352E+02  0.00000000000E+00 0. -1.
        -14    1    6    6    0    0 -0.16366620679E+02 -0.12741439546E+02 -0.78001939041E+01  0.22159728769E+02  0.00000000000E+00 0.  1.
</event>
<event>
12    1  0.2614920E-002  0.2209561E+03  0.7818608E-02  0.1133172E+00
         -1   -1    0    0    0  501 -0.00000000000E+00  0.00000000000E+00  0.16070150515E+03  0.16070150515E+03  0.00000000000E+00 0. -1.
          1   -1    0    0  502    0  0.00000000000E+00 -0.00000000000E+00 -0.35136949231E+03  0.35136949231E+03  0.00000000000E+00 0.  1.
          6    2    1    2  502    0 -0.10616213054E+03 -0.93161754458E+02 -0.19008266922E+03  0.29261184747E+03  0.17187426127E+03 0.  0.
         24    2    3    3    0    0 -0.13566379736E+03 -0.10565650351E+03 -0.15045704204E+03  0.24143814887E+03  0.78019840949E+02 0.  0.
         -6    2    1    2    0  501  0.10616213054E+03  0.93161754458E+02 -0.58531794226E+00  0.21945914998E+03  0.16796566750E+03 0.  0.
        -24    2    5    5    0    0  0.84037408749E+02  0.53189371739E+02 -0.63018269549E+02  0.14195264612E+03  0.79296003105E+02 0.  0.
          5    1    3    3  502    0  0.29501666820E+02  0.12494749052E+02 -0.39625627176E+02  0.51173698597E+02  0.47000000000E+01 0. -1.
        -11    1    4    4    0    0  0.96617674140E+00  0.86239672544E+01 -0.16225288970E+02  0.18400171490E+02  0.00000000000E+00 0.  1.
         12    1    4    4    0    0 -0.13662997410E+03 -0.11428047076E+03 -0.13423175307E+03  0.22303797738E+03  0.00000000000E+00 0. -1.
         -5    1    5    5    0  501  0.22124721793E+02  0.39972382719E+02  0.62432951607E+02  0.77506503863E+02  0.47000000000E+01 0.  1.
         13    1    6    6    0    0  0.25094736059E+02  0.52900982769E+02 -0.42303364065E+01  0.58703964959E+02  0.00000000000E+00 0. -1.
        -14    1    6    6    0    0  0.58942672689E+02  0.28838897057E+00 -0.58787933143E+02  0.83248681162E+02  0.00000000000E+00 0.  1.
</event>
<event>
12    1  0.2614920E-002  0.1781884E+03  0.7818608E-02  0.1169568E+00
          1   -1    0    0  502    0  0.00000000000E+00  0.00000000000E+00  0.13788894248E+04  0.13788894248E+04  0.00000000000E+00 0.  1.
         -1   -1    0    0    0  501 -0.00000000000E+00 -0.00000000000E+00 -0.35098089219E+02  0.35098089219E+02  0.00000000000E+00 0. -1.
          6    2    1    2  502    0  0.30747234081E+02 -0.26174422033E+02  0.10829558910E+04  0.10972876195E+04  0.17209347867E+03 0.  0.
         24    2    3    3    0    0  0.77311395582E+02  0.57693782142E+01  0.87641765573E+03  0.88311768670E+03  0.76017127489E+02 0.  0.
         -6    2    1    2    0  501 -0.30747234081E+02  0.26174422033E+02  0.26083544464E+03  0.31669989453E+03  0.17502343054E+03 0.  0.
        -24    2    5    5    0    0  0.45400999555E+02 -0.72099416164E+01  0.10341220185E+03  0.13860655778E+03  0.80027872329E+02 0.  0.
          5    1    3    3  502    0 -0.46564161501E+02 -0.31943800247E+02  0.20653823525E+03  0.21416993284E+03  0.47000000000E+01 0. -1.
        -11    1    4    4    0    0  0.54287769337E+02 -0.19699551064E+02  0.74681238781E+03  0.74904203940E+03  0.00000000000E+00 0.  1.
         12    1    4    4    0    0  0.23023626246E+02  0.25468929278E+02  0.12960526793E+03  0.13407564730E+03  0.00000000000E+00 0. -1.
         -5    1    5    5    0  501 -0.76148233636E+02  0.33384363649E+02  0.15742324279E+03  0.17809333675E+03  0.47000000000E+01 0.  1.
         11    1    6    6    0    0  0.25737685711E+02  0.31123890000E+02  0.79895630421E+02  0.89523386636E+02  0.00000000000E+00 0. -1.
        -12    1    6    6    0    0  0.19663313844E+02 -0.38333831616E+02  0.23516571427E+02  0.49083171142E+02  0.00000000000E+00 0.  1.
</event>
<event>
12    1  0.2614920E-002  0.3115113E+03  0.7818608E-02  0.1079624E+00
         -1   -1    0    0    0  501 -0.00000000000E+00  0.00000000000E+00  0.17203951559E+03  0.17203951559E+03  0.00000000000E+00 0.  1.
          1   -1    0    0  502    0  0.00000000000E+00 -0.00000000000E+00 -0.10556959724E+04  0.10556959724E+04  0.00000000000E+00 0. -1.
          6    2    1    2  502    0 -0.10733087306E+03 -0.23501614525E+03 -0.86149839710E+03  0.91642829893E+03  0.17580908406E+03 0.  0.
         24    2    3    3    0    0 -0.40273703255E+02 -0.72220576698E+02 -0.19421888325E+03  0.22629562997E+03  0.81553385341E+02 0.  0.
         -6    2    1    2    0  501  0.10733087306E+03  0.23501614525E+03 -0.22158059685E+02  0.31130718903E+03  0.17224599123E+03 0.  0.
        -24    2    5    5    0    0  0.24593204857E+02  0.20596047793E+03 -0.10120963993E+02  0.22266896243E+03  0.80339832723E+02 0.  0.
          5    1    3    3  502    0 -0.67057169801E+02 -0.16279556855E+03 -0.66727951385E+03  0.69013266896E+03  0.47000000000E+01 0. -1.
        -13    1    4    4    0    0 -0.15245281682E+02 -0.82533929770E+01 -0.13348758933E+03  0.13460859413E+03  0.00000000000E+00 0.  1.
         14    1    4    4    0    0 -0.25028421573E+02 -0.63967183721E+02 -0.60731293920E+02  0.91687035839E+02  0.00000000000E+00 0. -1.
         -5    1    5    5    0  501  0.82737668198E+02  0.29055667317E+02 -0.12037095692E+02  0.88638226600E+02  0.47000000000E+01 0.  1.
         11    1    6    6    0    0 -0.13595445497E+02  0.34420641826E+02 -0.27450102228E+02  0.46077378770E+02  0.00000000000E+00 0. -1.
        -12    1    6    6    0    0  0.38188650354E+02  0.17153983610E+03  0.17329138236E+02  0.17659158366E+03  0.00000000000E+00 0.  1.
</event>
<event>
12    1  0.2614920E-002  0.1835073E+03  0.7818608E-02  0.1164451E+00
         -2   -1    0    0    0  501 -0.00000000000E+00  0.00000000000E+00  0.14529605929E+02  0.14529605929E+02  0.00000000000E+00 0.  1.
          2   -1    0    0  502    0  0.00000000000E+00 -0.00000000000E+00 -0.23237927910E+04  0.23237927910E+04  0.00000000000E+00 0. -1.
          6    2    1    2  502    0 -0.45013276144E+02 -0.44089578902E+02 -0.10908717431E+04  0.11060957900E+04  0.17168765462E+03 0.  0.
         24    2    3    3    0    0  0.16535135425E+01 -0.70277176685E+02 -0.42790792571E+03  0.44095919297E+03  0.79988757370E+02 0.  0.
         -6    2    1    2    0  501  0.45013276144E+02  0.44089578902E+02 -0.12183914420E+04  0.12322266070E+04  0.17301623905E+03 0.  0.
        -24    2    5    5    0    0  0.86002766968E+02 -0.45737175396E+01 -0.67209937313E+03  0.68222172581E+03  0.79319108629E+02 0.  0.
          5    1    3    3  502    0 -0.46666789687E+02  0.26187597783E+02 -0.66296381738E+03  0.66513659702E+03  0.47000000000E+01 0. -1.
        -11    1    4    4    0    0  0.24643205856E+02 -0.73006228303E+01 -0.41766147966E+02  0.49040776956E+02  0.00000000000E+00 0.  1.
         12    1    4    4    0    0 -0.22989692313E+02 -0.62976553855E+02 -0.38614177775E+03  0.39191841601E+03  0.00000000000E+00 0. -1.
         -5    1    5    5    0  501 -0.40989490823E+02  0.48663296441E+02 -0.54629206888E+03  0.55000488116E+03  0.47000000000E+01 0.  1.
         11    1    6    6    0    0  0.75420845173E+01 -0.28840462480E+02 -0.28197833918E+03  0.28354971183E+03  0.00000000000E+00 0. -1.
        -12    1    6    6    0    0  0.78460682451E+02  0.24266744941E+02 -0.39012103395E+03  0.39867201398E+03  0.00000000000E+00 0.  1.
</event>
<event>
12    1  0.2614920E-002  0.2000424E+03  0.7818608E-02  0.1149703E+00
          1   -1    0    0  502    0  0.00000000000E+00  0.00000000000E+00  0.25258714473E+03  0.25258714473E+03  0.00000000000E+00 0. -1.
         -1   -1    0    0    0  501 -0.00000000000E+00 -0.00000000000E+00 -0.15846747980E+03  0.15846747980E+03  0.00000000000E+00 0.  1.
          6    2    1    2  502    0  0.13660688342E+02  0.10104620291E+03  0.50316864627E+02  0.20638806071E+03  0.17224196704E+03 0.  0.
         24    2    3    3    0    0  0.42291242701E+02  0.52894303637E+02 -0.29557700813E+02  0.10871334417E+03  0.79740685711E+02 0.  0.
         -6    2    1    2    0  501 -0.13660688342E+02 -0.10104620291E+03  0.43802800298E+02  0.20466656381E+03  0.17196734428E+03 0.  0.
        -24    2    5    5    0    0  0.52428993010E+02 -0.37792000974E+02  0.43777678811E+02  0.11306399466E+03  0.81792096688E+02 0.  0.
          5    1    3    3  502    0 -0.28630554359E+02  0.48151899278E+02  0.79874565440E+02  0.97674716540E+02  0.47000000000E+01 0. -1.
        -11    1    4    4    0    0 -0.66294587316E+01  0.54510153295E+02 -0.22139791577E+02  0.59207068044E+02  0.00000000000E+00 0.  1.
         12    1    4    4    0    0  0.48920701432E+02 -0.16158496580E+01 -0.74179092358E+01  0.49506276129E+02  0.00000000000E+00 0. -1.
         -5    1    5    5    0  501 -0.66089681351E+02 -0.63254201940E+02  0.25121486732E-01  0.91602569152E+02  0.47000000000E+01 0.  1.
         13    1    6    6    0    0  0.18653332451E+02 -0.39952263324E+02  0.60859238603E+02  0.75153024421E+02  0.00000000000E+00 0. -1.
        -14    1    6    6    0    0  0.33775660558E+02  0.21602623492E+01 -0.17081559792E+02  0.37910970239E+02  0.00000000000E+00 0.  1.
</event>
<event>
12    1  0.2614920E-002  0.2014948E+03  0.7818608E-02  0.1148484E+00
         -1   -1    0    0    0  501 -0.00000000000E+00  0.00000000000E+00  0.18169159413E+02  0.18169159413E+02  0.00000000000E+00 0.  1.
          1   -1    0    0  502    0  0.00000000000E+00 -0.00000000000E+00 -0.22624144552E+04  0.22624144552E+04  0.00000000000E+00 0. -1.
          6    2    1    2  502    0  0.67535928386E+02 -0.82103820794E+02 -0.12458519341E+04  0.12619610486E+04  0.17057698409E+03 0.  0.
         24    2    3    3    0    0  0.12923785932E+02  0.20862885988E+02 -0.58770563850E+03  0.59355752886E+03  0.79437637703E+02 0.  0.
         -6    2    1    2    0  501 -0.67535928386E+02  0.82103820794E+02 -0.99839336165E+03  0.10186225660E+04  0.17175706184E+03 0.  0.
        -24    2    5    5    0    0 -0.49452196899E+02  0.12144965975E+03 -0.74376071960E+03  0.76029140488E+03  0.87564106175E+02 0.  0.
          5    1    3    3  502    0  0.54612142454E+02 -0.10296670678E+03 -0.65814629559E+03  0.66840351975E+03  0.47000000000E+01 0. -1.
        -11    1    4    4    0    0  0.27204610343E+00  0.85417753983E+01 -0.37462210170E+01  0.93311364766E+01  0.00000000000E+00 0.  1.
         12    1    4    4    0    0  0.12651739828E+02  0.12321110589E+02 -0.58395941749E+03  0.58422639238E+03  0.00000000000E+00 0. -1.
         -5    1    5    5    0  501 -0.18083731487E+02 -0.39345838953E+02 -0.25463264206E+03  0.25833116109E+03  0.47000000000E+01 0.  1.
         13    1    6    6    0    0 -0.18422689558E+02  0.34759061875E+02 -0.46619741214E+03  0.46785426679E+03  0.00000000000E+00 0. -1.
        -14    1    6    6    0    0 -0.31029507341E+02  0.86690597872E+02 -0.27756330746E+03  0.29243713809E+03  0.00000000000E+00 0.  1.
</event>
<event>
12    1  0.2614920E-002  0.1920164E+03  0.7818608E-02  0.1156655E+00
          2   -1    0    0  502    0  0.00000000000E+00  0.00000000000E+00  0.53893847575E+02  0.53893847575E+02  0.00000000000E+00 0. -1.
         -2   -1    0    0    0  501 -0.00000000000E+00 -0.00000000000E+00 -0.68475855023E+03  0.68475855023E+03  0.00000000000E+00 0.  1.
          6    2    1    2  502    0  0.37788712082E+02  0.73069284575E+02 -0.30315582811E+03  0.35847504441E+03  0.17272461968E+03 0.  0.
         24    2    3    3    0    0 -0.60099197744E+01  0.10729388301E+02 -0.25705859812E+03  0.26930314619E+03  0.79333616917E+02 0.  0.
         -6    2    1    2    0  501 -0.37788712082E+02 -0.73069284575E+02 -0.32770887455E+03  0.38017735339E+03  0.17428312158E+03 0.  0.
        -24    2    5    5    0    0 -0.32504382095E+02 -0.43127193492E+02 -0.69499112465E+02  0.12014115553E+03  0.81775796822E+02 0.  0.
          5    1    3    3  502    0  0.43798631856E+02  0.62339896275E+02 -0.46097229993E+02  0.89171898225E+02  0.47000000000E+01 0. -1.
        -13    1    4    4    0    0 -0.29317115164E+02  0.98099053998E+01 -0.37912354505E+02  0.48919056713E+02  0.00000000000E+00 0.  1.
         14    1    4    4    0    0  0.23307195390E+02  0.91948290083E+00 -0.21914624361E+03  0.22038408948E+03  0.00000000000E+00 0. -1.
         -5    1    5    5    0  501 -0.52843299865E+01 -0.29942091083E+02 -0.25820976208E+03  0.26003619786E+03  0.47000000000E+01 0.  1.
         13    1    6    6    0    0 -0.10749134036E+02  0.13223271415E+01  0.17192248288E+02  0.20319100196E+02  0.00000000000E+00 0. -1.
        -14    1    6    6    0    0 -0.21755248059E+02 -0.44449520633E+02 -0.86691360754E+02  0.99822055338E+02  0.00000000000E+00 0.  1.
</event>
<event>
12    1  0.2614920E-002  0.1893836E+03  0.7818608E-02  0.1159018E+00
          2   -1    0    0  502    0  0.00000000000E+00  0.00000000000E+00  0.44599010887E+02  0.44599010887E+02  0.00000000000E+00 0.  1.
         -2   -1    0    0    0  501 -0.00000000000E+00 -0.00000000000E+00 -0.12477740093E+04  0.12477740093E+04  0.00000000000E+00 0. -1.
          6    2    1    2  502    0 -0.28131043044E+01  0.74198914277E+02 -0.21186351807E+03  0.28271554349E+03  0.17183869125E+03 0.  0.
         24    2    3    3    0    0 -0.10952820202E+02  0.11210543237E+03 -0.12382490297E+03  0.18640330732E+03  0.82012158534E+02 0.  0.
         -6    2    1    2    0  501  0.28131043044E+01 -0.74198914277E+02 -0.99131148037E+03  0.10096574767E+04  0.17662496070E+03 0.  0.
        -24    2    5    5    0    0  0.36421740038E+02 -0.10475581339E+03 -0.85471988288E+03  0.86563449596E+03  0.80477815770E+02 0.  0.
          5    1    3    3  502    0  0.81397158971E+01 -0.37906518092E+02 -0.88038615092E+02  0.96312236170E+02  0.47000000000E+01 0. -1.
        -11    1    4    4    0    0  0.15971266269E+02  0.13395760067E+02 -0.65268047876E+02  0.68516025917E+02  0.00000000000E+00 0.  1.
         12    1    4    4    0    0 -0.26924086470E+02  0.98709672301E+02 -0.58556855097E+02  0.11788728140E+03  0.00000000000E+00 0. -1.
         -5    1    5    5    0  501 -0.33608635733E+02  0.30556899113E+02 -0.13659159749E+03  0.14402298075E+03  0.47000000000E+01 0.  1.
         11    1    6    6    0    0  0.33920392241E+02 -0.12791040810E+02 -0.12539723566E+03  0.13053225825E+03  0.00000000000E+00 0. -1.
        -12    1    6    6    0    0  0.25013477970E+01 -0.91964772579E+02 -0.72932264722E+03  0.73510223771E+03  0.00000000000E+00 0.  1.
</event>
<event>
12    1  0.2614920E-002  0.1909569E+03  0.7818608E-02  0.1157601E+00
          2   -1    0    0  502    0  0.00000000000E+00  0.00000000000E+00  0.23980073198E+04  0.23980073198E+04  0.00000000000E+00 0. -1.
         -2   -1    0    0    0  501 -0.00000000000E+00 -0.00000000000E+00 -0.16807119711E+02  0.16807119711E+02  0.00000000000E+00 0.  1.
          6    2    1    2  502    0 -0.54511955063E+02 -0.62697220545E+02  0.81861781771E+03  0.84062149171E+03  0.17206645853E+03 0.  0.
         24    2    3    3    0    0 -0.37020858891E+01 -0.10111715044E+03  0.55655421286E+03  0.57088614585E+03  0.76941641021E+02 0.  0.
         -6    2    1    2    0  501  0.54511955063E+02  0.62697220545E+02  0.15625823824E+04  0.15741929478E+04  0.17180582197E+03 0.  0.
        -24    2    5    5    0    0  0.31972011810E+02  0.74274165157E+02  0.15207194296E+04  0.15250332946E+04  0.81241029474E+02 0.  0.
          5    1    3    3  502    0 -0.50809869174E+02  0.38419929898E+02  0.26206360485E+03  0.26973534586E+03  0.47000000000E+01 0. -1.
        -13    1    4    4    0    0  0.50522472213E+00 -0.39337341056E+02  0.69096407625E+02  0.79510975343E+02  0.00000000000E+00 0.  1.
         14    1    4    4    0    0 -0.42073106113E+01 -0.61779809387E+02  0.48745780523E+03  0.49137517051E+03  0.00000000000E+00 0. -1.
         -5    1    5    5    0  501  0.22539943254E+02 -0.11576944612E+02  0.41862952751E+02  0.49159653187E+02  0.47000000000E+01 0.  1.
         11    1    6    6    0    0  0.35800508772E+02  0.66337306548E+01  0.87766272155E+03  0.87841763166E+03  0.00000000000E+00 0. -1.
        -12    1    6    6    0    0 -0.38284969620E+01  0.67640434503E+02  0.64305670807E+03  0.64661566294E+03  0.00000000000E+00 0.  1.
</event>
<event>
12    1  0.2614920E-002  0.2011509E+03  0.7818608E-02  0.1148772E+00
          2   -1    0    0  502    0  0.00000000000E+00  0.00000000000E+00  0.48037673329E+03  0.48037673329E+03  0.00000000000E+00 0. -1.
         -2   -1    0    0    0  501 -0.00000000000E+00 -0.00000000000E+00 -0.84881921398E+02  0.84881921398E+02  0.00000000000E+00 0.  1.
          6    2    1    2  502    0  0.10226050125E+03  0.53107822084E+00  0.22168696575E+03  0.29878213411E+03  0.17224447951E+03 0.  0.
         24    2    3    3    0    0  0.35340909519E+02 -0.56902170302E+02  0.16036331390E+03  0.19126706508E+03  0.79874031245E+02 0.  0.
         -6    2    1    2    0  501 -0.10226050125E+03 -0.53107822084E+00  0.17380784614E+03  0.26647652057E+03  0.17419264185E+03 0.  0.
        -24    2    5    5    0    0  0.12218918110E+02 -0.31335858540E+02  0.71219309743E+02  0.10962955774E+03  0.76257536418E+02 0.  0.
          5    1    3    3  502    0  0.66919591734E+02  0.57433248523E+02  0.61323651851E+02  0.10751506904E+03  0.47000000000E+01 0. -1.
        -11    1    4    4    0    0  0.27934017523E+01 -0.45581771483E+02  0.25989076626E+02  0.52544581916E+02  0.00000000000E+00 0.  1.
         12    1    4    4    0    0  0.32547507767E+02 -0.11320398819E+02  0.13437423727E+03  0.13872248316E+03  0.00000000000E+00 0. -1.
         -5    1    5    5    0  501 -0.11447941936E+03  0.30804780319E+02  0.10258853639E+03  0.15684696283E+03  0.47000000000E+01 0.  1.
         11    1    6    6    0    0  0.17507300069E+01 -0.21389332861E+02  0.86194711136E+02  0.88826217096E+02  0.00000000000E+00 0. -1.
        -12    1    6    6    0    0  0.10468188103E+02 -0.99465256788E+01 -0.14975401393E+02  0.20803340648E+02  0.00000000000E+00 0.  1.
</event>
<event>
12    1  0.2614920E-002  0.2015419E+03  0.7818608E-02  0.1148445E+00
         -1   -1    0    0    0  501 -0.00000000000E+00  0.00000000000E+00  0.60597001408E+02  0.60597001408E+02  0.00000000000E+00 0. -1.
          1   -1    0    0  502    0  0.00000000000E+00 -0.00000000000E+00 -0.70235080908E+03  0.70235080908E+03  0.00000000000E+00 0.  1.
          6    2    1    2  502    0  0.77354148355E+02 -0.70299351113E+02 -0.23671462452E+03  0.30971944674E+03  0.17019594353E+03 0.  0.
         24    2    3    3    0    0  0.97854604728E+02 -0.20909958443E+02 -0.21618455947E+03  0.25224637139E+03  0.82944066077E+02 0.  0.
         -6    2    1    2    0  501 -0.77354148355E+02  0.70299351113E+02 -0.40503918315E+03  0.45322836374E+03  0.17445213321E+03 0.  0.
        -24    2    5    5    0    0 -0.22815012140E+02  0.72448245236E+02 -0.12109314578E+03  0.16404576180E+03  0.80487197708E+02 0.  0.
          5    1    3    3  502    0 -0.20500456374E+02 -0.49389392669E+02 -0.20530065055E+02  0.57473075357E+02  0.47000000000E+01 0. -1.
        -11    1    4    4    0    0  0.40603437127E+02 -0.36175971342E+00 -0.17068450568E+02  0.44046588760E+02  0.00000000000E+00 0.  1.
         12    1    4    4    0    0  0.57251167601E+02 -0.20548198730E+02 -0.19911610890E+03  0.20819978263E+03  0.00000000000E+00 0. -1.
         -5    1    5    5    0  501 -0.54539136215E+02 -0.21488941236E+01 -0.28394603737E+03  0.28918260194E+03  0.47000000000E+01 0.  1.
         13    1    6    6    0    0  0.11802049686E+02 -0.13505534920E+02 -0.17540738797E+02  0.25087155435E+02  0.00000000000E+00 0. -1.
        -14    1    6    6    0    0 -0.34617061826E+02  0.85953780156E+02 -0.10355240698E+03  0.13895860637E+03  0.00000000000E+00 0.  1.
</event>
<event>
12    1  0.2614920E-002  0.1800926E+03  0.7818608E-02  0.1167713E+00
         -2   -1    0    0    0  501 -0.00000000000E+00  0.00000000000E+00  0.14366201011E+03  0.14366201011E+03  0.00000000000E+00 0. -1.
          2   -1    0    0  502    0  0.00000000000E+00 -0.00000000000E+00 -0.33919428558E+03  0.33919428558E+03  0.00000000000E+00 0.  1.
          6    2    1    2  502    0 -0.47420409111E+02  0.20564564173E+02  0.41728193142E+02  0.18518833416E+03  0.17286376284E+03 0.  0.
         24    2    3    3    0    0 -0.45635647215E+02  0.49840190911E+02 -0.28961781517E+02  0.10851102191E+03  0.79807268844E+02 0.  0.
         -6    2    1    2    0  501  0.47420409111E+02 -0.20564564173E+02 -0.23726046861E+03  0.29766796153E+03  0.17216878014E+03 0.  0.
        -24    2    5    5    0    0 -0.42962460128E+01 -0.67241946555E+02 -0.17559757116E+03  0.20451328711E+03  0.80319614677E+02 0.  0.
          5    1    3    3  502    0 -0.17847618962E+01 -0.29275626738E+02  0.70689974660E+02  0.76677312246E+02  0.47000000000E+01 0. -1.
        -13    1    4    4    0    0  0.13843170931E+02 -0.11734562840E+02 -0.41729734806E-01  0.18147591792E+02  0.00000000000E+00 0.  1.
         14    1    4    4    0    0 -0.59478818146E+02  0.61574753751E+02 -0.28920051782E+02  0.90363430118E+02  0.00000000000E+00 0. -1.
         -5    1    5    5    0  501  0.51716655124E+02  0.46677382382E+02 -0.61662897456E+02  0.93154674418E+02  0.47000000000E+01 0.  1.
         13    1    6    6    0    0  0.15657762096E+02 -0.66944630112E+02 -0.74138286304E+02  0.10111001192E+03  0.00000000000E+00 0. -1.
        -14    1    6    6    0    0 -0.19954008109E+02 -0.29731644248E+00 -0.10145928485E+03  0.10340327519E+03  0.00000000000E+00 0.  1.
</event>
<event>
12    1  0.2614920E-002  0.3683144E+03  0.7818608E-02  0.1055339E+00
         -1   -1    0    0    0  501 -0.00000000000E+00  0.00000000000E+00  0.95621875785E+03  0.95621875785E+03  0.00000000000E+00 0. -1.
          1   -1    0    0  502    0  0.00000000000E+00 -0.00000000000E+00 -0.14219650975E+03  0.14219650975E+03  0.00000000000E+00 0.  1.
          6    2    1    2  502    0  0.20704559343E+03 -0.25155962880E+03  0.38059299325E+03  0.52965067842E+03  0.17183914003E+03 0.  0.
         24    2    3    3    0    0  0.76336351911E+02 -0.47839788914E+02  0.85781693885E+02  0.14817660170E+03  0.80510386032E+02 0.  0.
         -6    2    1    2    0  501 -0.20704559343E+03  0.25155962880E+03  0.43342925486E+03  0.56876458918E+03  0.17170356530E+03 0.  0.
        -24    2    5    5    0    0 -0.14340945973E+03  0.25482890535E+03  0.36917935111E+03  0.47815340989E+03  0.82663449933E+02 0.  0.
          5    1    3    3  502    0  0.13070924152E+03 -0.20371983989E+03  0.29481129936E+03  0.38147407672E+03  0.47000000000E+01 0. -1.
        -11    1    4    4    0    0  0.78234988658E+02 -0.32606303053E+02  0.97259443375E+02  0.12900885154E+03  0.00000000000E+00 0.  1.
         12    1    4    4    0    0 -0.18986367467E+01 -0.15233485861E+02 -0.11477749490E+02  0.19167750163E+02  0.00000000000E+00 0. -1.
         -5    1    5    5    0  501 -0.63636133703E+02 -0.32692765531E+01  0.64249903745E+02  0.90611179294E+02  0.47000000000E+01 0.  1.
         13    1    6    6    0    0 -0.46957942938E+02  0.32992165139E+02  0.10706813819E+03  0.12147887710E+03  0.00000000000E+00 0. -1.
        -14    1    6    6    0    0 -0.96451516790E+02  0.22183674022E+03  0.26211121292E+03  0.35667453279E+03  0.00000000000E+00 0.  1.
</event>
<event>
12    1  0.2614920E-002  0.2035156E+03  0.7818608E-02  0.1146806E+00
         -1   -1    0    0    0  501 -0.00000000000E+00  0.00000000000E+00  0.21165178026E+02  0.21165178026E+02  0.00000000000E+00 0.  1.
          1   -1    0    0  502    0  0.00000000000E+00 -0.00000000000E+00 -0.20022477418E+04  0.20022477418E+04  0.00000000000E+00 0. -1.
          6    2    1    2  502    0  0.79463934332E+02 -0.90119770598E+02 -0.11107913855E+04  0.11282170002E+04  0.15678012512E+03 0.  0.
         24    2    3    3    0    0  0.11042538313E+03 -0.87984544256E+02 -0.83101594252E+03  0.84668625770E+03  0.79718736764E+02 0.  0.
         -6    2    1    2    0  501 -0.79463934332E+02  0.90119770598E+02 -0.87029117832E+03  0.89519591962E+03  0.17185141704E+03 0.  0.
        -24    2    5    5    0    0 -0.62556774403E+02  0.54137291472E+02 -0.83170952355E+03  0.83959713416E+03  0.79614193227E+02 0.  0.
          5    1    3    3  502    0 -0.30961448798E+02 -0.21352263424E+01 -0.27977544293E+03  0.28153074250E+03  0.47000000000E+01 0. -1.
        -13    1    4    4    0    0  0.78902921096E+02 -0.63837807595E+02 -0.74578513217E+03  0.75265955119E+03  0.00000000000E+00 0.  1.
         14    1    4    4    0    0  0.31522462034E+02 -0.24146736661E+02 -0.85230810354E+02  0.94026706513E+02  0.00000000000E+00 0. -1.
         -5    1    5    5    0  501 -0.16907159929E+02  0.35982479127E+02 -0.38581654765E+02  0.55598785466E+02  0.47000000000E+01 0.  1.
         11    1    6    6    0    0  0.16893928229E+02 -0.99911577415E+00 -0.17310473881E+03  0.17393002513E+03  0.00000000000E+00 0. -1.
        -12    1    6    6    0    0 -0.79450702632E+02  0.55136407246E+02 -0.65860478475E+03  0.66566710903E+03  0.00000000000E+00 0.  1.
</event>
<event>
12    1  0.2614920E-002  0.1947902E+03  0.7818608E-02  0.1154210E+00
          2   -1    0    0  502    0  0.00000000000E+00  0.00000000000E+00  0.37768610378E+03  0.37768610378E+03  0.00000000000E+00 0. -1.
         -2   -1    0    0    0  501 -0.00000000000E+00 -0.00000000000E+00 -0.10649128072E+03  0.10649128072E+03  0.00000000000E+00 0.  1.
          6    2    1    2  502    0  0.74281239055E+02 -0.57385432910E+02  0.19292163799E+03  0.27385925128E+03  0.17020382110E+03 0.  0.
         24    2    3    3    0    0  0.52356604529E+02  0.86602030761E+01  0.36261325419E+02  0.10237380243E+03  0.79682485823E+02 0.  0.
         -6    2    1    2    0  501 -0.74281239055E+02  0.57385432910E+02  0.78273185065E+02  0.21031813322E+03  0.17116143045E+03 0.  0.
        -24    2    5    5    0    0 -0.11893817114E+03  0.35996086253E+02  0.68222565715E+02  0.15957514668E+03  0.73265968816E+02 0.  0.
          5    1    3    3  502    0  0.21924634526E+02 -0.66045635986E+02  0.15666031257E+03  0.17148544885E+03  0.47000000000E+01 0. -1.
        -11    1    4    4    0    0  0.23454619008E+02  0.28812885129E+02  0.51898052744E+02  0.63825616964E+02  0.00000000000E+00 0.  1.
         12    1    4    4    0    0  0.28901985521E+02 -0.20152682052E+02 -0.15636727325E+02  0.38548185462E+02  0.00000000000E+00 0. -1.
         -5    1    5    5    0  501  0.44656932081E+02  0.21389346657E+02  0.10050619350E+02  0.50742986536E+02  0.47000000000E+01 0.  1.
         13    1    6    6    0    0 -0.45902805357E+02 -0.19044653398E+02  0.40214549297E+02  0.63929463769E+02  0.00000000000E+00 0. -1.
        -14    1    6    6    0    0 -0.73035365780E+02  0.55040739651E+02  0.28008016419E+02  0.95645682911E+02  0.00000000000E+00 0.  1.
</event>
<event>
12    1  0.2614920E-002  0.1926081E+03  0.7818608E-02  0.1156130E+00
         -1   -1    0    0    0  501 -0.00000000000E+00  0.00000000000E+00  0.19998508840E+02  0.19998508840E+02  0.00000000000E+00 0. -1.
          1   -1    0    0  502    0  0.00000000000E+00 -0.00000000000E+00 -0.20662458044E+04  0.20662458044E+04  0.00000000000E+00 0.  1.
          6    2    1    2  502    0 -0.60025407995E+02 -0.62340417781E+02 -0.69359974800E+03  0.72006887530E+03  0.17300057069E+03 0.  0.
         24    2    3    3    0    0 -0.76966704183E+01  0.87734809559E+01 -0.16215624886E+03  0.18132054246E+03  0.80288712577E+02 0.  0.
         -6    2    1    2    0  501  0.60025407995E+02  0.62340417781E+02 -0.13526475476E+04  0.13661754380E+04  0.17114485681E+03 0.  0.
        -24    2    5    5    0    0  0.15421418027E+02  0.90516263795E+02 -0.62853687387E+03  0.64013015562E+03  0.79227521599E+02 0.  0.
          5    1    3    3  502    0 -0.52328737577E+02 -0.71113898737E+02 -0.53144349913E+03  0.53874833284E+03  0.47000000000E+01 0. -1.
        -13    1    4    4    0    0  0.35247558960E+02 -0.40882892497E+01 -0.84603347522E+02  0.91743288221E+02  0.00000000000E+00 0.  1.
         14    1    4    4    0    0 -0.42944229379E+02  0.12861770206E+02 -0.77552901343E+02  0.89577254236E+02  0.00000000000E+00 0. -1.
         -5    1    5    5    0  501  0.44603989968E+02 -0.28175846014E+02 -0.72411067372E+03  0.72604528235E+03  0.47000000000E+01 0.  1.
         11    1    6    6    0    0 -0.24540629861E+02  0.91671802087E+01 -0.80672102472E+02  0.84819029848E+02  0.00000000000E+00 0. -1.
        -12    1    6    6    0    0  0.39962047889E+02  0.81349083586E+02 -0.54786477140E+03  0.55531112578E+03  0.00000000000E+00 0.  1.
</event>
<event>
12    1  0.2614920E-002  0.1739874E+03  0.7818608E-02  0.1173752E+00
          2   -1    0    0  502    0  0.00000000000E+00  0.00000000000E+00  0.24297394707E+03  0.24297394707E+03  0.00000000000E+00 0.  1.
         -2   -1    0    0    0  501 -0.00000000000E+00 -0.00000000000E+00 -0.12854919546E+03  0.12854919546E+03  0.00000000000E+00 0. -1.
          6    2    1    2  502    0 -0.16342690171E+02  0.16593601594E+01  0.90090620083E+02  0.19671898655E+03  0.17410400009E+03 0.  0.
         24    2    3    3    0    0 -0.48436309147E+01  0.40212860470E+02  0.12406860505E+03  0.14384939026E+03  0.60490440663E+02 0.  0.
         -6    2    1    2    0  501  0.16342690171E+02 -0.16593601594E+01  0.24334131527E+02  0.17480415598E+03  0.17232093892E+03 0.  0.
        -24    2    5    5    0    0 -0.53324212062E+02 -0.13814621839E+02 -0.94105124942E+01  0.96305629537E+02  0.78434056165E+02 0.  0.
          5    1    3    3  502    0 -0.11499059257E+02 -0.38553500311E+02 -0.33977984966E+02  0.52869596294E+02  0.47000000000E+01 0. -1.
        -11    1    4    4    0    0 -0.62601440988E+01  0.81209663599E+01  0.10696754121E+03  0.10745787255E+03  0.00000000000E+00 0.  1.
         12    1    4    4    0    0  0.14165131840E+01  0.32091894110E+02  0.17101063834E+02  0.36391517713E+02  0.00000000000E+00 0. -1.
         -5    1    5    5    0  501  0.69666902233E+02  0.12155261680E+02  0.33744644021E+02  0.78498526440E+02  0.47000000000E+01 0.  1.
         13    1    6    6    0    0  0.15868924958E+02 -0.56441893465E+01 -0.19653142957E+02  0.25882922570E+02  0.00000000000E+00 0. -1.
        -14    1    6    6    0    0 -0.69193137019E+02 -0.81704324925E+01  0.10242630463E+02  0.70422706966E+02  0.00000000000E+00 0.  1.
</event>
<event>
12    1  0.2614920E-002  0.1776031E+03  0.7818608E-02  0.1170143E+00
          1   -1    0    0  502    0  0.00000000000E+00  0.00000000000E+00  0.54799255903E+03  0.54799255903E+03  0.00000000000E+00 0.  1.
         -1   -1    0    0    0  501 -0.00000000000E+00 -0.00000000000E+00 -0.65449037587E+02  0.65449037587E+02  0.00000000000E+00 0. -1.
          6    2    1    2  502    0 -0.27558741773E+02  0.31538034204E+02  0.34820081240E+03  0.39104971970E+03  0.17297961058E+03 0.  0.
         24    2    3    3    0    0 -0.54749749584E+02 -0.13652818066E+02  0.31287600997E+03  0.32739835914E+03  0.78194331203E+02 0.  0.
         -6    2    1    2    0  501  0.27558741773E+02 -0.31538034204E+02  0.13434270904E+03  0.22239187691E+03  0.17220932493E+03 0.  0.
        -24    2    5    5    0    0  0.80021486295E+01 -0.18331909700E+02  0.16472586554E+03  0.18363509352E+03  0.78658397509E+02 0.  0.
          5    1    3    3  502    0  0.27191007811E+02  0.45190852271E+02  0.35324802426E+02  0.63651360560E+02  0.47000000000E+01 0. -1.
        -13    1    4    4    0    0 -0.76534159034E+01  0.21858280502E+02  0.18653070512E+03  0.18796293027E+03  0.00000000000E+00 0.  1.
         14    1    4    4    0    0 -0.47096333681E+02 -0.35511098569E+02  0.12634530485E+03  0.13943542887E+03  0.00000000000E+00 0. -1.
         -5    1    5    5    0  501  0.19556593144E+02 -0.13206124504E+02 -0.30383156499E+02  0.38756783389E+02  0.47000000000E+01 0.  1.
         11    1    6    6    0    0  0.56929638039E+00 -0.19797234380E+02  0.11021233092E+01  0.19836059670E+02  0.00000000000E+00 0. -1.
        -12    1    6    6    0    0  0.74328522491E+01  0.14653246795E+01  0.16362374223E+03  0.16379903385E+03  0.00000000000E+00 0.  1.
</event>
<event>
12    1  0.2614920E-002  0.2067195E+03  0.7818608E-02  0.1144190E+00
          2   -1    0    0  502    0  0.00000000000E+00  0.00000000000E+00  0.52213017364E+03  0.52213017364E+03  0.00000000000E+00 0. -1.
         -2   -1    0    0    0  501 -0.00000000000E+00 -0.00000000000E+00 -0.81860327001E+02  0.81860327001E+02  0.00000000000E+00 0.  1.
          6    2    1    2  502    0  0.11517618945E+03  0.13493073307E+02  0.21530017471E+03  0.29810253057E+03  0.17047972271E+03 0.  0.
         24    2    3    3    0    0  0.14828196343E+03  0.14172860940E+02  0.15792869616E+03  0.23169446680E+03  0.80947156894E+02 0.  0.
         -6    2    1    2    0  501 -0.11517618945E+03 -0.13493073307E+02  0.22496967193E+03  0.30588797007E+03  0.17178032281E+03 0.  0.
        -24    2    5    5    0    0 -0.11573715840E+03  0.35883932930E+02  0.20831463729E+03  0.25356318044E+03  0.78845113290E+02 0.  0.
          5    1    3    3  502    0 -0.33105773981E+02 -0.67978763298E+00  0.57371478549E+02  0.66408063765E+02  0.47000000000E+01 0. -1.
        -13    1    4    4    0    0  0.13657576658E+02  0.30968448474E+02  0.30234645430E+02  0.45384005832E+02  0.00000000000E+00 0.  1.
         14    1    4    4    0    0  0.13462438678E+03 -0.16795587535E+02  0.12769405073E+03  0.18631046097E+03  0.00000000000E+00 0. -1.
         -5    1    5    5    0  501  0.56096894483E+00 -0.49377006237E+02  0.16655034639E+02  0.52324789631E+02  0.47000000000E+01 0.  1.
         11    1    6    6    0    0 -0.10539041202E+03  0.17643421221E+02  0.11123918424E+03  0.15424845337E+03  0.00000000000E+00 0. -1.
        -12    1    6    6    0    0 -0.10346746381E+02  0.18240511709E+02  0.97075453047E+02  0.99314727066E+02  0.00000000000E+00 0.  1.
</event>
<event>
12    1  0.2614920E-002  0.3585924E+03  0.7818608E-02  0.1059143E+00
         -2   -1    0    0    0  501 -0.00000000000E+00  0.00000000000E+00  0.85461798426E+02  0.85461798426E+02  0.00000000000E+00 0.  1.
          2   -1    0    0  502    0  0.00000000000E+00 -0.00000000000E+00 -0.15261635407E+04  0.15261635407E+04  0.00000000000E+00 0. -1.
          6    2    1    2  502    0 -0.27043075311E+03 -0.15962999369E+03 -0.62325227489E+03  0.71869820085E+03  0.17166589245E+03 0.  0.
         24    2    3    3    0    0 -0.20876002213E+03 -0.10064172711E+03 -0.31653150882E+03  0.40029183629E+03  0.79572947951E+02 0.  0.
         -6    2    1    2    0  501  0.27043075311E+03  0.15962999369E+03 -0.81744946736E+03  0.89292713825E+03  0.17458727167E+03 0.  0.
        -24    2    5    5    0    0  0.47731345317E+02  0.25901377372E+02 -0.21605224344E+03  0.23780953050E+03  0.83220419514E+02 0.  0.
          5    1    3    3  502    0 -0.61670730980E+02 -0.58988266574E+02 -0.30672076607E+03  0.31840636456E+03  0.47000000000E+01 0. -1.
        -13    1    4    4    0    0 -0.30666881210E+01  0.97003036156E+01 -0.59893825330E+01  0.11805641422E+02  0.00000000000E+00 0.  1.
         14    1    4    4    0    0 -0.20569333401E+03 -0.11034203073E+03 -0.31054212629E+03  0.38848619487E+03  0.00000000000E+00 0. -1.
         -5    1    5    5    0  501  0.22269940780E+03  0.13372861632E+03 -0.60139722391E+03  0.65511760775E+03  0.47000000000E+01 0.  1.
         13    1    6    6    0    0  0.38248663787E+02  0.45021610977E+02 -0.20584008839E+03  0.21414959194E+03  0.00000000000E+00 0. -1.
        -14    1    6    6    0    0  0.94826815300E+01 -0.19120233605E+02 -0.10212155051E+02  0.23659938565E+02  0.00000000000E+00 0.  1.
</event>
<event>
12    1  0.2614920E-002  0.1817346E+03  0.7818608E-02  0.1166135E+00
         -1   -1    0    0    0  501 -0.00000000000E+00  0.00000000000E+00  0.43611058249E+02  0.43611058249E+02  0.00000000000E+00 0.  1.
          1   -1    0    0  502    0  0.00000000000E+00 -0.00000000000E+00 -0.76605275848E+03  0.76605275848E+03  0.00000000000E+00 0. -1.
          6    2    1    2  502    0  0.24030076458E+02 -0.53980089144E+02 -0.31889412927E+03  0.36726781920E+03  0.17233946367E+03 0.  0.
         24    2    3    3    0    0 -0.13123285514E+02  0.12828755609E+02 -0.73181071239E+02  0.10989495558E+03  0.79903907792E+02 0.  0.
         -6    2    1    2    0  501 -0.24030076458E+02  0.53980089144E+02 -0.40354757097E+03  0.44239599753E+03  0.17138343561E+03 0.  0.
        -24    2    5    5    0    0 -0.46389056705E+01 -0.13696105453E+01 -0.71873263521E+02  0.10554359220E+03  0.77138113576E+02 0.  0.
          5    1    3    3  502    0  0.37153361972E+02 -0.66808844753E+02 -0.24571305803E+03  0.25737286362E+03  0.47000000000E+01 0. -1.
        -13    1    4    4    0    0  0.31895945074E+02  0.92849504517E+01 -0.15551579423E+02  0.36679875131E+02  0.00000000000E+00 0.  1.
         14    1    4    4    0    0 -0.45019230588E+02  0.35438051574E+01 -0.57629491816E+02  0.73215080446E+02  0.00000000000E+00 0. -1.
         -5    1    5    5    0  501 -0.19391170787E+02  0.55349699689E+02 -0.33167430745E+03  0.33685240534E+03  0.47000000000E+01 0.  1.
         11    1    6    6    0    0 -0.40006975256E+02 -0.41869943418E+01 -0.27488669155E+02  0.48720795588E+02  0.00000000000E+00 0. -1.
        -12    1    6    6    0    0  0.35368069586E+02  0.28173837966E+01 -0.44384594366E+02  0.56822796611E+02  0.00000000000E+00 0.  1.
</event>
<event>
12    1  0.2614920E-002  0.4684311E+03  0.7818608E-02  0.1022364E+00
         -2   -1    0    0    0  501 -0.00000000000E+00  0.00000000000E+00  0.50603948534E+03  0.50603948534E+03  0.00000000000E+00 0.  1.
          2   -1    0    0  502    0  0.00000000000E+00 -0.00000000000E+00 -0.47610125726E+03  0.47610125726E+03  0.00000000000E+00 0. -1.
          6    2    1    2  502    0  0.14705296002E+03 -0.41078851839E+03  0.16165571454E+03  0.49539570832E+03  0.17003693093E+03 0.  0.
         24    2    3    3    0    0  0.97882609124E+02 -0.13296033853E+03  0.36899987746E+02  0.18686321035E+03  0.79352337683E+02 0.  0.
         -6    2    1    2    0  501 -0.14705296002E+03  0.41078851839E+03 -0.13171748645E+03  0.48674503428E+03  0.17087847222E+03 0.  0.
        -24    2    5    5    0    0 -0.42217163887E+02  0.31119270600E+03 -0.87931710429E+02  0.33558566746E+03  0.79136371603E+02 0.  0.
          5    1    3    3  502    0  0.49170350897E+02 -0.27782817987E+03  0.12475572679E+03  0.30853249797E+03  0.47000000000E+01 0. -1.
        -11    1    4    4    0    0  0.50793145937E+02 -0.34161640420E+02  0.46679872783E+02  0.76980334329E+02  0.00000000000E+00 0.  1.
         12    1    4    4    0    0  0.47089463187E+02 -0.98798698108E+02 -0.97798850365E+01  0.10988287602E+03  0.00000000000E+00 0. -1.
         -5    1    5    5    0  501 -0.10483579613E+03  0.99595812394E+02 -0.43785776022E+02  0.15115936683E+03  0.47000000000E+01 0.  1.
         13    1    6    6    0    0  0.53449197137E+01  0.14239100484E+03 -0.71553981874E+02  0.15944823219E+03  0.00000000000E+00 0. -1.
        -14    1    6    6    0    0 -0.47562083601E+02  0.16880170115E+03 -0.16377728555E+02  0.17613743526E+03  0.00000000000E+00 0.  1.
</event>
<event>
12    1  0.2614920E-002  0.2371393E+03  0.7818608E-02  0.1121713E+00
          2   -1    0    0  502    0  0.00000000000E+00  0.00000000000E+00  0.35650040785E+03  0.35650040785E+03  0.00000000000E+00 0. -1.
         -2   -1    0    0    0  501 -0.00000000000E+00 -0.00000000000E+00 -0.43799654857E+03  0.43799654857E+03  0.00000000000E+00 0.  1.
          6    2    1    2  502    0 -0.15361288403E+03 -0.26454443939E+02  0.27670164367E+03  0.36724536406E+03  0.18441421331E+03 0.  0.
         24    2    3    3    0    0 -0.18229129240E+03 -0.84447908097E+01  0.26474857115E+03  0.33102707234E+03  0.78649138071E+02 0.  0.
         -6    2    1    2    0  501  0.15361288403E+03  0.26454443939E+02 -0.35819778439E+03  0.42725159236E+03  0.17303616583E+03 0.  0.
        -24    2    5    5    0    0  0.27398590321E+02 -0.45891375744E+00 -0.63129588589E+02  0.10516199778E+03  0.79516083085E+02 0.  0.
          5    1    3    3  502    0  0.28678408368E+02 -0.18009653130E+02  0.11953072518E+02  0.36218291719E+02  0.47000000000E+01 0. -1.
        -11    1    4    4    0    0 -0.47113360734E+02 -0.11682206096E+02  0.22291336174E+02  0.53413915484E+02  0.00000000000E+00 0.  1.
         12    1    4    4    0    0 -0.13517793167E+03  0.32374152866E+01  0.24245723498E+03  0.27761315686E+03  0.00000000000E+00 0. -1.
         -5    1    5    5    0  501  0.12621429371E+03  0.26913357697E+02 -0.29506819580E+03  0.32208959457E+03  0.47000000000E+01 0.  1.
         13    1    6    6    0    0  0.59883861457E+01  0.38590420043E+02 -0.35342209723E+02  0.52670229503E+02  0.00000000000E+00 0. -1.
        -14    1    6    6    0    0  0.21410204175E+02 -0.39049333801E+02 -0.27787378866E+02  0.52491768282E+02  0.00000000000E+00 0.  1.
</event>
<event>
12    1  0.2614920E-002  0.2889301E+03  0.7818608E-02  0.1090909E+00
         -2   -1    0    0    0  501 -0.00000000000E+00  0.00000000000E+00  0.87599605649E+02  0.87599605649E+02  0.00000000000E+00 0.  1.
          2   -1    0    0  502    0  0.00000000000E+00 -0.00000000000E+00 -0.97971945195E+03  0.97971945195E+03  0.00000000000E+00 0. -1.
          6    2    1    2  502    0  0.22270188227E+03 -0.66787523911E+02 -0.35808455382E+03  0.46019346615E+03  0.17174625728E+03 0.  0.
         24    2    3    3    0    0  0.15014617769E+03  0.12237157123E+02 -0.27868042530E+03  0.32664071962E+03  0.79610034423E+02 0.  0.
         -6    2    1    2    0  501 -0.22270188227E+03  0.66787523911E+02 -0.53403529248E+03  0.60712559145E+03  0.17132159367E+03 0.  0.
        -24    2    5    5    0    0 -0.21700898435E+03  0.94636687451E+02 -0.41156438142E+03  0.48131144656E+03  0.78907963084E+02 0.  0.
          5    1    3    3  502    0  0.72555704581E+02 -0.79024681033E+02 -0.79404128515E+02  0.13355274653E+03  0.47000000000E+01 0. -1.
        -13    1    4    4    0    0  0.81237082508E+02  0.27915621398E+02 -0.86619139141E+02  0.12199024862E+03  0.00000000000E+00 0.  1.
         14    1    4    4    0    0  0.68909095177E+02 -0.15678464275E+02 -0.19206128616E+03  0.20465047101E+03  0.00000000000E+00 0. -1.
         -5    1    5    5    0  501 -0.56928979163E+01 -0.27849163541E+02 -0.12247091106E+03  0.12581414488E+03  0.47000000000E+01 0.  1.
         11    1    6    6    0    0 -0.69243313343E+02  0.19229261067E+02 -0.64191926229E+02  0.96358727248E+02  0.00000000000E+00 0. -1.
        -12    1    6    6    0    0 -0.14776567101E+03  0.75407426384E+02 -0.34737245519E+03  0.38495271932E+03  0.00000000000E+00 0.  1.
</event>
<event>
12    1  0.2614920E-002  0.2180917E+03  0.7818608E-02  0.1135314E+00
         -1   -1    0    0    0  501 -0.00000000000E+00  0.00000000000E+00  0.77682815145E+02  0.77682815145E+02  0.00000000000E+00 0. -1.
          1   -1    0    0  502    0  0.00000000000E+00 -0.00000000000E+00 -0.86344479180E+03  0.86344479180E+03  0.00000000000E+00 0.  1.
          6    2    1    2  502    0  0.12043721761E+03 -0.59511806224E+02 -0.64698598408E+03  0.68283399992E+03  0.17211806812E+03 0.  0.
         24    2    3    3    0    0  0.57417220237E+02  0.23500112162E+02 -0.43996517847E+03  0.45101035440E+03  0.77407939250E+02 0.  0.
         -6    2    1    2    0  501 -0.12043721761E+03  0.59511806224E+02 -0.13877599257E+03  0.25829360703E+03  0.17149353589E+03 0.  0.
        -24    2    5    5    0    0 -0.12461194534E+02 -0.11444105239E+01 -0.47977348402E+02  0.10465610519E+03  0.92165521477E+02 0.  0.
          5    1    3    3  502    0  0.63019997370E+02 -0.83011918386E+02 -0.20702080561E+03  0.23182364551E+03  0.47000000000E+01 0. -1.
        -13    1    4    4    0    0  0.39566540245E+02 -0.22851769583E+02 -0.14941746255E+03  0.15624753629E+03  0.00000000000E+00 0.  1.
         14    1    4    4    0    0  0.17850679993E+02  0.46351881745E+02 -0.29054771592E+03  0.29476281812E+03  0.00000000000E+00 0. -1.
         -5    1    5    5    0  501 -0.10797602307E+03  0.60656216748E+02 -0.90798644172E+02  0.15363750184E+03  0.47000000000E+01 0.  1.
         13    1    6    6    0    0 -0.20044511889E+02  0.39577193197E+02 -0.44767415202E+01  0.44588988471E+02  0.00000000000E+00 0. -1.
        -14    1    6    6    0    0  0.75833173550E+01 -0.40721603721E+02 -0.43500606882E+02  0.60067116718E+02  0.00000000000E+00 0.  1.
</event>
<event>
12    1  0.2614920E-002  0.1852310E+03  0.7818608E-02  0.1162834E+00
          2   -1    0    0  502    0  0.00000000000E+00  0.00000000000E+00  0.23214443334E+04  0.23214443334E+04  0.00000000000E+00 0.  1.
         -2   -1    0    0    0  501 -0.00000000000E+00 -0.00000000000E+00 -0.15077727534E+02  0.15077727534E+02  0.00000000000E+00 0. -1.
          6    2    1    2  502    0  0.51773718208E+02 -0.40562231782E+02  0.13174708657E+04  0.13304301854E+04  0.17317385420E+03 0.  0.
         24    2    3    3    0    0  0.20948521307E+02 -0.15630745907E+02  0.12441024638E+04  0.12469030393E+04  0.79328986263E+02 0.  0.
         -6    2    1    2    0  501 -0.51773718208E+02  0.40562231782E+02  0.98889574021E+03  0.10060918756E+04  0.17314809991E+03 0.  0.
        -24    2    5    5    0    0 -0.72142417369E+02  0.84199122298E+02  0.71418656350E+03  0.72715409775E+03  0.79978833473E+02 0.  0.
          5    1    3    3  502    0  0.30825196900E+02 -0.24931485875E+02  0.73368401841E+02  0.83527146130E+02  0.47000000000E+01 0. -1.
        -13    1    4    4    0    0  0.13909906159E+02  0.32204918849E+02  0.49433752806E+03  0.49558070376E+03  0.00000000000E+00 0.  1.
         14    1    4    4    0    0  0.70386151477E+01 -0.47835664756E+02  0.74976493578E+03  0.75132233552E+03  0.00000000000E+00 0. -1.
         -5    1    5    5    0  501  0.20368699162E+02 -0.43636890516E+02  0.27470917671E+03  0.27893777781E+03  0.47000000000E+01 0.  1.
         11    1    6    6    0    0 -0.53075380692E+02  0.95553028145E+02  0.49926724572E+03  0.51109212464E+03  0.00000000000E+00 0. -1.
        -12    1    6    6    0    0 -0.19067036678E+02 -0.11353905847E+02  0.21491931779E+03  0.21606197311E+03  0.00000000000E+00 0.  1.
</event>
<event>
12    1  0.2614920E-002  0.1907024E+03  0.7818608E-02  0.1157829E+00
         -2   -1    0    0    0  501 -0.00000000000E+00  0.00000000000E+00  0.69095809968E+02  0.69095809968E+02  0.00000000000E+00 0. -1.
          2   -1    0    0  502    0  0.00000000000E+00 -0.00000000000E+00 -0.52663549899E+03  0.52663549899E+03  0.00000000000E+00 0.  1.
          6    2    1    2  502    0  0.72259725085E+02 -0.43685470351E+02 -0.22252527629E+03  0.29350482964E+03  0.17174893958E+03 0.  0.
         24    2    3    3    0    0  0.91169672873E+02 -0.68599169646E+02 -0.22047519145E+03  0.26180985550E+03  0.83170517995E+02 0.  0.
         -6    2    1    2    0  501 -0.72259725085E+02  0.43685470351E+02 -0.23501441273E+03  0.30222647931E+03  0.17023273016E+03 0.  0.
        -24    2    5    5    0    0  0.64628047089E+01  0.67656985181E+02 -0.60218540609E+02  0.10897131863E+03  0.60243175238E+02 0.  0.
          5    1    3    3  502    0 -0.18909947789E+02  0.24913699295E+02 -0.20500848402E+01  0.31694974141E+02  0.47000000000E+01 0. -1.
        -13    1    4    4    0    0  0.16514480223E+02 -0.64326447712E+02 -0.10304340706E+03  0.12259104237E+03  0.00000000000E+00 0.  1.
         14    1    4    4    0    0  0.74655192650E+02 -0.42727219340E+01 -0.11743178439E+03  0.13921881313E+03  0.00000000000E+00 0. -1.
         -5    1    5    5    0  501 -0.78722529794E+02 -0.23971514830E+02 -0.17479587212E+03  0.19325516068E+03  0.47000000000E+01 0.  1.
         13    1    6    6    0    0 -0.17507208429E+02  0.12161774010E+02  0.29711120946E+01  0.21522978445E+02  0.00000000000E+00 0. -1.
        -14    1    6    6    0    0  0.23970013138E+02  0.55495211170E+02 -0.63189652703E+02  0.87448340187E+02  0.00000000000E+00 0.  1.
</event>
<event>
12    1  0.2614920E-002  0.1795297E+03  0.7818608E-02  0.1168259E+00
          2   -1    0    0  502    0  0.00000000000E+00  0.00000000000E+00  0.43083892049E+03  0.43083892049E+03  0.00000000000E+00 0. -1.
         -2   -1    0    0    0  501 -0.00000000000E+00 -0.00000000000E+00 -0.75008077442E+02  0.75008077442E+02  0.00000000000E+00 0.  1.
          6    2    1    2  502    0 -0.56501028733E+02  0.16570814714E+01  0.19200958157E+03  0.26369804240E+03  0.17167954446E+03 0.  0.
         24    2    3    3    0    0 -0.64195655490E+02  0.44436403532E+02  0.62400837521E+02  0.12691429260E+03  0.78215708141E+02 0.  0.
         -6    2    1    2    0  501  0.56501028733E+02 -0.16570814714E+01  0.16382126148E+03  0.24214895553E+03  0.16912598495E+03 0.  0.
        -24    2    5    5    0    0  0.53694846006E+02  0.61120066692E+02  0.12286099180E+03  0.16699126341E+03  0.78565003074E+02 0.  0.
          5    1    3    3  502    0  0.76946267572E+01 -0.42779322061E+02  0.12960874405E+03  0.13678374981E+03  0.47000000000E+01 0. -1.
        -13    1    4    4    0    0 -0.44947369678E+02 -0.94976842167E+01  0.56406186503E+01  0.46284863889E+02  0.00000000000E+00 0.  1.
         14    1    4    4    0    0 -0.19248285812E+02  0.53934087749E+02  0.56760218871E+02  0.80629428711E+02  0.00000000000E+00 0. -1.
         -5    1    5    5    0  501  0.28061827266E+01 -0.62777148164E+02  0.40960269682E+02  0.75157692124E+02  0.47000000000E+01 0.  1.
         13    1    6    6    0    0  0.25346734707E+02  0.49141806235E+02  0.18685881041E+02  0.58365539753E+02  0.00000000000E+00 0. -1.
        -14    1    6    6    0    0  0.28348111299E+02  0.11978260457E+02  0.10417511076E+03  0.10862572365E+03  0.00000000000E+00 0.  1.
</event>
<event>
12    1  0.2614920E-002  0.2537219E+03  0.7818608E-02  0.1110975E+00
         -1   -1    0    0    0  501 -0.00000000000E+00  0.00000000000E+00  0.72651282204E+03  0.72651282204E+03  0.00000000000E+00 0.  1.
          1   -1    0    0  502    0  0.00000000000E+00 -0.00000000000E+00 -0.19496757109E+03  0.19496757109E+03  0.00000000000E+00 0. -1.
          6    2    1    2  502    0  0.13160372165E+02 -0.18646024435E+03 -0.74653859861E+02  0.26422374330E+03  0.17117350733E+03 0.  0.
         24    2    3    3    0    0  0.55266270031E+02 -0.16028278820E+03 -0.17632239169E+02  0.18851561248E+03  0.80512778460E+02 0.  0.
         -6    2    1    2    0  501 -0.13160372165E+02  0.18646024435E+03  0.60619911081E+03  0.65725664982E+03  0.17195442322E+03 0.  0.
        -24    2    5    5    0    0 -0.51396431444E+02  0.16709375121E+03  0.56916484496E+03  0.60041754240E+03  0.77399545359E+02 0.  0.
          5    1    3    3  502    0 -0.42105897865E+02 -0.26177456149E+02 -0.57021620692E+02  0.75708130817E+02  0.47000000000E+01 0. -1.
        -11    1    4    4    0    0  0.41360687836E+02 -0.80459896077E+02  0.29033581644E+02  0.95012895115E+02  0.00000000000E+00 0.  1.
         12    1    4    4    0    0  0.13905582194E+02 -0.79822892123E+02 -0.46665820813E+02  0.93502717368E+02  0.00000000000E+00 0. -1.
         -5    1    5    5    0  501  0.38236059279E+02  0.19366493135E+02  0.37034265857E+02  0.56839107427E+02  0.47000000000E+01 0.  1.
         13    1    6    6    0    0  0.12247819670E+02  0.43366801525E+02  0.79659773177E+02  0.91522500096E+02  0.00000000000E+00 0. -1.
        -14    1    6    6    0    0 -0.63644251114E+02  0.12372694969E+03  0.48950507178E+03  0.50889504230E+03  0.00000000000E+00 0.  1.
</event>
<event>
12    1  0.2614920E-002  0.2285001E+03  0.7818608E-02  0.1127700E+00
         -2   -1    0    0    0  501 -0.00000000000E+00  0.00000000000E+00  0.49378674781E+03  0.49378674781E+03  0.00000000000E+00 0. -1.
          2   -1    0    0  502    0  0.00000000000E+00 -0.00000000000E+00 -0.10782780656E+03  0.10782780656E+03  0.00000000000E+00 0.  1.
          6    2    1    2  502    0  0.69570092036E+02 -0.13347522453E+03  0.15113595227E+03  0.27398828091E+03  0.17196473109E+03 0.  0.
         24    2    3    3    0    0  0.10893952867E+03 -0.12049232274E+03  0.98030734059E+02  0.20645486340E+03  0.81408630091E+02 0.  0.
         -6    2    1    2    0  501 -0.69570092036E+02  0.13347522453E+03  0.23482298899E+03  0.32762627346E+03  0.17187642547E+03 0.  0.
        -24    2    5    5    0    0 -0.11012736273E+03  0.70104163273E+02  0.14379316680E+03  0.20943447112E+03  0.78381714364E+02 0.  0.
          5    1    3    3  502    0 -0.39369436636E+02 -0.12982901790E+02  0.53105218207E+02  0.67533417511E+02  0.47000000000E+01 0. -1.
        -11    1    4    4    0    0 -0.39982739371E+01 -0.14168750835E+02 -0.96743084846E+01  0.17616240784E+02  0.00000000000E+00 0.  1.
         12    1    4    4    0    0  0.11293780261E+03 -0.10632357191E+03  0.10770504254E+03  0.18883862261E+03  0.00000000000E+00 0. -1.
         -5    1    5    5    0  501  0.40557270694E+02  0.63371061259E+02  0.91029822192E+02  0.11819180234E+03  0.47000000000E+01 0.  1.
         13    1    6    6    0    0 -0.22014241370E+02  0.52930450494E+02  0.83540425162E+02  0.10131762951E+03  0.00000000000E+00 0. -1.
        -14    1    6    6    0    0 -0.88113121360E+02  0.17173712779E+02  0.60252741639E+02  0.10811684162E+03  0.00000000000E+00 0.  1.
</event>
<event>
12    1  0.2614920E-002  0.2011384E+03  0.7818608E-02  0.1148782E+00
         -3   -1    0    0    0  501 -0.00000000000E+00  0.00000000000E+00  0.19977656054E+02  0.19977656054E+02  0.00000000000E+00 0.  1.
          3   -1    0    0  502    0  0.00000000000E+00 -0.00000000000E+00 -0.20252738308E+04  0.20252738308E+04  0.00000000000E+00 0. -1.
          6    2    1    2  502    0  0.78947565697E+02 -0.66387411849E+02 -0.98928918900E+03  0.10092963790E+04  0.17130696012E+03 0.  0.
         24    2    3    3    0    0  0.38386115791E+02 -0.84307102606E+02 -0.90882324228E+03  0.91730069911E+03  0.83064465553E+02 0.  0.
         -6    2    1    2    0  501 -0.78947565697E+02  0.66387411849E+02 -0.10160069858E+04  0.10359551079E+04  0.17404822277E+03 0.  0.
        -24    2    5    5    0    0 -0.72817926732E+02  0.22497640642E+02 -0.32164340222E+03  0.34016292581E+03  0.80297843137E+02 0.  0.
          5    1    3    3  502    0  0.40561449906E+02  0.17919690757E+02 -0.80465946715E+02  0.91995679877E+02  0.47000000000E+01 0. -1.
        -11    1    4    4    0    0 -0.12608612167E+02 -0.94483088241E+01 -0.30593209650E+02  0.34412092600E+02  0.00000000000E+00 0.  1.
         12    1    4    4    0    0  0.50994727958E+02 -0.74858793782E+02 -0.87823003263E+03  0.88288860651E+03  0.00000000000E+00 0. -1.
         -5    1    5    5    0  501 -0.61296389646E+01  0.43889771207E+02 -0.69436358355E+03  0.69579218209E+03  0.47000000000E+01 0.  1.
         13    1    6    6    0    0  0.95411592749E+01 -0.54951674681E+01 -0.12068213959E+03  0.12118337098E+03  0.00000000000E+00 0. -1.
        -14    1    6    6    0    0 -0.82359086007E+02  0.27992808110E+02 -0.20096126263E+03  0.21897955482E+03  0.00000000000E+00 0.  1.
</event>
<event>
12    1  0.2614920E-002  0.1926002E+03  0.7818608E-02  0.1156137E+00
         -2   -1    0    0    0  501 -0.00000000000E+00  0.00000000000E+00  0.11582062114E+03  0.11582062114E+03  0.00000000000E+00 0.  1.
          2   -1    0    0  502    0  0.00000000000E+00 -0.00000000000E+00 -0.32176000228E+03  0.32176000228E+03  0.00000000000E+00 0. -1.
          6    2    1    2  502    0  0.62342322296E+02  0.57292227108E+02 -0.11780101451E+03  0.22574361751E+03  0.17295703915E+03 0.  0.
         24    2    3    3    0    0  0.10834019023E+03  0.44715603669E+02 -0.70589081484E+02  0.15847525993E+03  0.79965664851E+02 0.  0.
         -6    2    1    2    0  501 -0.62342322296E+02 -0.57292227108E+02 -0.88138366631E+02  0.21183700592E+03  0.17302479871E+03 0.  0.
        -24    2    5    5    0    0 -0.10684876326E+03 -0.46638682503E+02 -0.86993221664E+02  0.16581828519E+03  0.79599360380E+02 0.  0.
          5    1    3    3  502    0 -0.45997867932E+02  0.12576623438E+02 -0.47211933023E+02  0.67268357578E+02  0.47000000000E+01 0. -1.
        -13    1    4    4    0    0  0.31631957732E+02 -0.21756929599E+02 -0.79677083929E+01  0.39210063919E+02  0.00000000000E+00 0.  1.
         14    1    4    4    0    0  0.76708232496E+02  0.66472533268E+02 -0.62621373091E+02  0.11926519601E+03  0.00000000000E+00 0. -1.
         -5    1    5    5    0  501  0.44506440965E+02 -0.10653544605E+02 -0.11451449672E+01  0.46018720724E+02  0.47000000000E+01 0.  1.
         11    1    6    6    0    0 -0.65742799968E+02 -0.62492843665E+02 -0.33917488335E+02  0.96839389052E+02  0.00000000000E+00 0. -1.
        -12    1    6    6    0    0 -0.41105963293E+02  0.15854161162E+02 -0.53075733329E+02  0.68978896141E+02  0.00000000000E+00 0.  1.
</event>
<event>
12    1  0.2614920E-002  0.1746543E+03  0.7818608E-02  0.1173079E+00
         -1   -1    0    0    0  501 -0.00000000000E+00  0.00000000000E+00  0.20441532949E+02  0.20441532949E+02  0.00000000000E+00 0. -1.
          1   -1    0    0  502    0  0.00000000000E+00 -0.00000000000E+00 -0.15398465972E+04  0.15398465972E+04  0.00000000000E+00 0.  1.
          6    2    1    2  502    0  0.70394138327E+01  0.12499968646E+02 -0.62131408240E+03  0.64531513701E+03  0.17376603377E+03 0.  0.
         24    2    3    3    0    0  0.87855153796E+00 -0.56950608436E+01 -0.62066765989E+03  0.62552819221E+03  0.77614236098E+02 0.  0.
         -6    2    1    2    0  501 -0.70394138327E+01 -0.12499968646E+02 -0.89809098188E+03  0.91497299317E+03  0.17436273668E+03 0.  0.
        -24    2    5    5    0    0 -0.52948840637E+02 -0.55780266712E+02 -0.62380721406E+03  0.63348669696E+03  0.79088159837E+02 0.  0.
          5    1    3    3  502    0  0.61608622947E+01  0.18195029490E+02 -0.64642251429E+00  0.19786944798E+02  0.47000000000E+01 0. -1.
        -11    1    4    4    0    0 -0.57251986900E+01 -0.31975867106E+02 -0.12603954687E+03  0.13015837027E+03  0.00000000000E+00 0.  1.
         12    1    4    4    0    0  0.66037502280E+01  0.26280806262E+02 -0.49462811302E+03  0.49536982193E+03  0.00000000000E+00 0. -1.
         -5    1    5    5    0  501  0.45909426804E+02  0.43280298066E+02 -0.27428376782E+03  0.28148629622E+03  0.47000000000E+01 0.  1.
         13    1    6    6    0    0  0.11413278999E+02 -0.35385963677E+02 -0.13454192034E+03  0.13958494794E+03  0.00000000000E+00 0. -1.
        -14    1    6    6    0    0 -0.64362119636E+02 -0.20394303035E+02 -0.48926529372E+03  0.49390174901E+03  0.00000000000E+00 0.  1.
</event>
<event>
12    1  0.2614920E-002  0.1712053E+03  0.7818608E-02  0.1176597E+00
         -2   -1    0    0    0  501 -0.00000000000E+00  0.00000000000E+00  0.12416390988E+02  0.12416390988E+02  0.00000000000E+00 0.  1.
          2   -1    0    0  502    0  0.00000000000E+00 -0.00000000000E+00 -0.24885983444E+04  0.24885983444E+04  0.00000000000E+00 0. -1.
          6    2    1    2  502    0 -0.14088829661E+02 -0.24165369304E+01 -0.96602215707E+03  0.98136316344E+03  0.17225131592E+03 0.  0.
         24    2    3    3    0    0 -0.30149784100E+02  0.47405465973E+02 -0.82578433503E+03  0.83160027431E+03  0.80516834035E+02 0.  0.
         -6    2    1    2    0  501  0.14088829661E+02  0.24165369304E+01 -0.15101597964E+04  0.15196515720E+04  0.16897915511E+03 0.  0.
        -24    2    5    5    0    0  0.14999393582E+02  0.13872801787E+02 -0.15031434695E+04  0.15053899461E+04  0.79631421444E+02 0.  0.
          5    1    3    3  502    0  0.16060954439E+02 -0.49822002904E+02 -0.14023782204E+03  0.14976288913E+03  0.47000000000E+01 0. -1.
        -11    1    4    4    0    0 -0.11800283989E+02 -0.16384609856E+02 -0.68539026498E+02  0.71451384141E+02  0.00000000000E+00 0.  1.
         12    1    4    4    0    0 -0.18349500112E+02  0.63790075830E+02 -0.75724530853E+03  0.76014889016E+03  0.00000000000E+00 0. -1.
         -5    1    5    5    0  501 -0.91056392007E+00 -0.11456264856E+02 -0.70163268254E+01  0.14261625897E+02  0.47000000000E+01 0.  1.
         13    1    6    6    0    0 -0.27574496952E+02 -0.14393234724E+02 -0.56266232234E+03  0.56352143444E+03  0.00000000000E+00 0. -1.
        -14    1    6    6    0    0  0.42573890534E+02  0.28266036511E+02 -0.94048114720E+03  0.94186851164E+03  0.00000000000E+00 0.  1.
</event>
<event>
12    1  0.2614920E-002  0.1906193E+03  0.7818608E-02  0.1157904E+00
         -2   -1    0    0    0  501 -0.00000000000E+00  0.00000000000E+00  0.41509944045E+03  0.41509944045E+03  0.00000000000E+00 0. -1.
          2   -1    0    0  502    0  0.00000000000E+00 -0.00000000000E+00 -0.23436932956E+03  0.23436932956E+03  0.00000000000E+00 0.  1.
          6    2    1    2  502    0 -0.58167801724E+02  0.29475752091E+02  0.34748744450E+03  0.39657850451E+03  0.17965153223E+03 0.  0.
         24    2    3    3    0    0 -0.10072791206E+02  0.67383266002E+02  0.30232297680E+03  0.32034184147E+03  0.81103313357E+02 0.  0.
         -6    2    1    2    0  501  0.58167801724E+02 -0.29475752091E+02 -0.16675733360E+03  0.25289026551E+03  0.17858657553E+03 0.  0.
        -24    2    5    5    0    0  0.20693823528E+02  0.17133162650E+02 -0.10499448766E+02  0.85512529384E+02  0.80500774298E+02 0.  0.
          5    1    3    3  502    0 -0.48095010519E+02 -0.37907513911E+02  0.45164467699E+02  0.76236663032E+02  0.47000000000E+01 0. -1.
        -13    1    4    4    0    0  0.12760397054E+02  0.21390279693E+02  0.16347314031E+02  0.29792725192E+02  0.00000000000E+00 0.  1.
         14    1    4    4    0    0 -0.22833188259E+02  0.45992986308E+02  0.28597566277E+03  0.29054911628E+03  0.00000000000E+00 0. -1.
         -5    1    5    5    0  501  0.37473978196E+02 -0.46608914741E+02 -0.15625788484E+03  0.16737773612E+03  0.47000000000E+01 0.  1.
         11    1    6    6    0    0  0.53796987399E+01  0.42779202248E+02  0.15594609317E+02  0.45849679860E+02  0.00000000000E+00 0. -1.
        -12    1    6    6    0    0  0.15314124788E+02 -0.25646039598E+02 -0.26094058083E+02  0.39662849524E+02  0.00000000000E+00 0.  1.
</event>
<event>
12    1  0.2614920E-002  0.3212671E+03  0.7818608E-02  0.1075068E+00
          3   -1    0    0  502    0  0.00000000000E+00  0.00000000000E+00  0.56862391935E+03  0.56862391935E+03  0.00000000000E+00 0. -1.
         -3   -1    0    0    0  501 -0.00000000000E+00 -0.00000000000E+00 -0.24201752948E+03  0.24201752948E+03  0.00000000000E+00 0.  1.
          6    2    1    2  502    0  0.26985301366E+03  0.65425383891E+01 -0.39594099277E+02  0.32307891588E+03  0.17305732981E+03 0.  0.
         24    2    3    3    0    0  0.10836772812E+03 -0.24342485061E+02 -0.73831288584E+02  0.15507398366E+03  0.79124965456E+02 0.  0.
         -6    2    1    2    0  501 -0.26985301366E+03 -0.65425383891E+01  0.36620048915E+03  0.48756253294E+03  0.17535954917E+03 0.  0.
        -24    2    5    5    0    0 -0.22931010244E+03 -0.25474113548E+02  0.36893839623E+03  0.44248794672E+03  0.80299372577E+02 0.  0.
          5    1    3    3  502    0  0.16148528554E+03  0.30885023450E+02  0.34237189306E+02  0.16800493222E+03  0.47000000000E+01 0. -1.
        -13    1    4    4    0    0  0.69795767807E+02  0.24611562075E+02 -0.41908615784E+02  0.85050045670E+02  0.00000000000E+00 0.  1.
         14    1    4    4    0    0  0.38571960312E+02 -0.48954047136E+02 -0.31922672800E+02  0.70023937992E+02  0.00000000000E+00 0. -1.
         -5    1    5    5    0  501 -0.40542911215E+02  0.18931575159E+02 -0.27379070821E+01  0.45074586221E+02  0.47000000000E+01 0.  1.
         11    1    6    6    0    0 -0.70347634552E+02 -0.38265318888E+02  0.16668551090E+03  0.18492453558E+03  0.00000000000E+00 0. -1.
        -12    1    6    6    0    0 -0.15896246789E+03  0.12791205340E+02  0.20225288533E+03  0.25756341114E+03  0.00000000000E+00 0.  1.
</event>
<event>
12    1  0.2614920E-002  0.1821020E+03  0.7818608E-02  0.1165784E+00
          2   -1    0    0  502    0  0.00000000000E+00  0.00000000000E+00  0.25880627038E+04  0.25880627038E+04  0.00000000000E+00 0. -1.
         -2   -1    0    0    0  501 -0.00000000000E+00 -0.00000000000E+00 -0.20289515204E+02  0.20289515204E+02  0.00000000000E+00 0.  1.
          6    2    1    2  502    0  0.34317057944E+02  0.58953603713E+02  0.20643199296E+04  0.20721208744E+04  0.16617749164E+03 0.  0.
         24    2    3    3    0    0  0.79491762485E+02  0.68707602224E+02  0.14155946210E+04  0.14217344428E+04  0.79881287014E+02 0.  0.
         -6    2    1    2    0  501 -0.34317057944E+02 -0.58953603713E+02  0.50345325898E+03  0.53623134454E+03  0.17153915889E+03 0.  0.
        -24    2    5    5    0    0 -0.21209137757E+02  0.28981246094E+02  0.26628642524E+03  0.28290437715E+03  0.88525059684E+02 0.  0.
          5    1    3    3  502    0 -0.45174704541E+02 -0.97539985115E+01  0.64872530858E+03  0.65038643160E+03  0.47000000000E+01 0. -1.
        -11    1    4    4    0    0  0.71219934625E+02  0.42187213824E+02  0.60185594039E+03  0.60752169762E+03  0.00000000000E+00 0.  1.
         12    1    4    4    0    0  0.82718278609E+01  0.26520388400E+02  0.81373868061E+03  0.81421274520E+03  0.00000000000E+00 0. -1.
         -5    1    5    5    0  501 -0.13107920188E+02 -0.87934849806E+02  0.23716683374E+03  0.25332696739E+03  0.47000000000E+01 0.  1.
         11    1    6    6    0    0 -0.21438473272E+02  0.43091144880E+01  0.25471601016E+03  0.25565293355E+03  0.00000000000E+00 0. -1.
        -12    1    6    6    0    0  0.22933551523E+00  0.24672131606E+02  0.11570415083E+02  0.27251443594E+02  0.00000000000E+00 0.  1.
</event>
<event>
12    1  0.2614920E-002  0.7274860E+03  0.7818608E-02  0.9671349E-01
         -2   -1    0    0    0  501 -0.00000000000E+00  0.00000000000E+00  0.11317528908E+04  0.11317528908E+04  0.00000000000E+00 0. -1.
          2   -1    0    0  502    0  0.00000000000E+00 -0.00000000000E+00 -0.10127875171E+04  0.10127875171E+04  0.00000000000E+00 0.  1.
          6    2    1    2  502    0 -0.48804457388E+03  0.51144850666E+03  0.84618868910E+03  0.11160547357E+04  0.17255664155E+03 0.  0.
         24    2    3    3    0    0 -0.25570922190E+03  0.18182683419E+03  0.35300486657E+03  0.47896562458E+03  0.79670759489E+02 0.  0.
         -6    2    1    2    0  501  0.48804457388E+03 -0.51144850666E+03 -0.72722331534E+03  0.10284856721E+04  0.17076869247E+03 0.  0.
        -24    2    5    5    0    0  0.13299314367E+03 -0.10915324798E+03 -0.17851430942E+03  0.26101798132E+03  0.81617523215E+02 0.  0.
          5    1    3    3  502    0 -0.23233535198E+03  0.32962167247E+03  0.49318382253E+03  0.63708911116E+03  0.47000000000E+01 0. -1.
        -11    1    4    4    0    0 -0.17706056348E+03  0.15573495491E+03  0.22144039857E+03  0.32348055496E+03  0.00000000000E+00 0.  1.
         12    1    4    4    0    0 -0.78648658423E+02  0.26091879276E+02  0.13156446799E+03  0.15548506962E+03  0.00000000000E+00 0. -1.
         -5    1    5    5    0  501  0.35505143021E+03 -0.40229525868E+03 -0.54870900593E+03  0.76746769081E+03  0.47000000000E+01 0.  1.
         13    1    6    6    0    0  0.70798296050E+02 -0.31485421247E+02 -0.31822445456E+02  0.83763945164E+02  0.00000000000E+00 0. -1.
        -14    1    6    6    0    0  0.62194847624E+02 -0.77667826729E+02 -0.14669186396E+03  0.17725403615E+03  0.00000000000E+00 0.  1.
</event>
<event>
12    1  0.2614920E-002  0.2790807E+03  0.7818608E-02  0.1096192E+00
         -1   -1    0    0    0  501 -0.00000000000E+00  0.00000000000E+00  0.97434752728E+02  0.97434752728E+02  0.00000000000E+00 0.  1.
          1   -1    0    0  502    0  0.00000000000E+00 -0.00000000000E+00 -0.85167244681E+03  0.85167244681E+03  0.00000000000E+00 0. -1.
          6    2    1    2  502    0 -0.12019164749E+03  0.18438887103E+03 -0.25863533436E+03  0.37998702738E+03  0.17044828222E+03 0.  0.
         24    2    3    3    0    0 -0.59876480848E+02  0.10058664409E+03 -0.56280218337E+02  0.15276375492E+03  0.80414152445E+02 0.  0.
         -6    2    1    2    0  501  0.12019164749E+03 -0.18438887103E+03 -0.49560235973E+03  0.56912017216E+03  0.17271590404E+03 0.  0.
        -24    2    5    5    0    0  0.14304391822E+03 -0.10867940386E+03 -0.39538712348E+03  0.44137302631E+03  0.78780680234E+02 0.  0.
          5    1    3    3  502    0 -0.60315166642E+02  0.83802226944E+02 -0.20235511602E+03  0.22722327246E+03  0.47000000000E+01 0. -1.
        -11    1    4    4    0    0 -0.77988179081E+02  0.93765565702E+02 -0.43112448849E+02  0.12935540435E+03  0.00000000000E+00 0.  1.
         12    1    4    4    0    0  0.18111698233E+02  0.68210783844E+01 -0.13167769487E+02  0.23408350572E+02  0.00000000000E+00 0. -1.
         -5    1    5    5    0  501 -0.22852270732E+02 -0.75709467172E+02 -0.10021523624E+03  0.12774714585E+03  0.47000000000E+01 0.  1.
         11    1    6    6    0    0  0.35974005495E+02  0.26221333839E+01 -0.12376786578E+03  0.12891659806E+03  0.00000000000E+00 0. -1.
        -12    1    6    6    0    0  0.10706991273E+03 -0.11130153724E+03 -0.27161925770E+03  0.31245642825E+03  0.00000000000E+00 0.  1.
</event>
<event>
12    1  0.2614920E-002  0.2072725E+03  0.7818608E-02  0.1143744E+00
          1   -1    0    0  502    0  0.00000000000E+00  0.00000000000E+00  0.10790457333E+04  0.10790457333E+04  0.00000000000E+00 0.  1.
         -1   -1    0    0    0  501 -0.00000000000E+00 -0.00000000000E+00 -0.47833145337E+02  0.47833145337E+02  0.00000000000E+00 0. -1.
          6    2    1    2  502    0 -0.73665930399E+02 -0.78581453420E+02  0.29454732511E+03  0.36280230679E+03  0.18238879615E+03 0.  0.
         24    2    3    3    0    0  0.33345532395E+02 -0.54394440569E+02  0.14018252119E+03  0.17336353714E+03  0.79580758135E+02 0.  0.
         -6    2    1    2    0  501  0.73665930399E+02  0.78581453420E+02  0.73666526283E+03  0.76407657182E+03  0.17185919825E+03 0.  0.
        -24    2    5    5    0    0 -0.24984256103E+02  0.39936792047E+02  0.27873200363E+03  0.29402313972E+03  0.80863566768E+02 0.  0.
          5    1    3    3  502    0 -0.10701146279E+03 -0.24187012851E+02  0.15436480392E+03  0.18943876965E+03  0.47000000000E+01 0. -1.
        -13    1    4    4    0    0  0.97125149278E+01 -0.11462127887E+02 -0.81871297570E+01  0.17109716993E+02  0.00000000000E+00 0.  1.
         14    1    4    4    0    0  0.23633017467E+02 -0.42932312682E+02  0.14836965095E+03  0.15625382014E+03  0.00000000000E+00 0. -1.
         -5    1    5    5    0  501  0.98650186502E+02  0.38644661373E+02  0.45793325920E+03  0.47005343210E+03  0.47000000000E+01 0.  1.
         13    1    6    6    0    0 -0.12741586303E+02 -0.51539184374E-01  0.59066076830E+00  0.12755373689E+02  0.00000000000E+00 0. -1.
        -14    1    6    6    0    0 -0.12242669800E+02  0.39988331231E+02  0.27814134286E+03  0.28126776603E+03  0.00000000000E+00 0.  1.
</event>
<event>
12    1  0.2614920E-002  0.2668718E+03  0.7818608E-02  0.1103083E+00
          2   -1    0    0  502    0  0.00000000000E+00  0.00000000000E+00  0.16382250449E+04  0.16382250449E+04  0.00000000000E+00 0. -1.
         -2   -1    0    0    0  501 -0.00000000000E+00 -0.00000000000E+00 -0.43476443918E+02  0.43476443918E+02  0.00000000000E+00 0.  1.
          6    2    1    2  502    0  0.11733027051E+03 -0.16539792958E+03  0.80088842803E+03  0.84396356347E+03  0.17242202535E+03 0.  0.
         24    2    3    3    0    0  0.80363818608E+02 -0.99736877483E+02  0.28397175334E+03  0.32156253849E+03  0.79729049875E+02 0.  0.
         -6    2    1    2    0  501 -0.11733027051E+03  0.16539792958E+03  0.79386017292E+03  0.83773792532E+03  0.17455082320E+03 0.  0.
        -24    2    5    5    0    0 -0.47820796981E+02  0.60675974908E+01  0.31158560389E+03  0.32506983428E+03  0.79127518888E+02 0.  0.
          5    1    3    3  502    0  0.36966451899E+02 -0.65661052094E+02  0.51691667468E+03  0.52240102497E+03  0.47000000000E+01 0. -1.
        -13    1    4    4    0    0 -0.10239013328E+02 -0.22667115922E+01  0.61024087028E+02  0.61918612492E+02  0.00000000000E+00 0.  1.
         14    1    4    4    0    0  0.90602831936E+02 -0.97470165890E+02  0.22294766632E+03  0.25964392600E+03  0.00000000000E+00 0. -1.
         -5    1    5    5    0  501 -0.69509473525E+02  0.15933033209E+03  0.48227456903E+03  0.51266809104E+03  0.47000000000E+01 0.  1.
         11    1    6    6    0    0 -0.63734760451E+01  0.16914697158E+01  0.25346284342E+03  0.25354860532E+03  0.00000000000E+00 0. -1.
        -12    1    6    6    0    0 -0.41447320936E+02  0.43761277750E+01  0.58122760466E+02  0.71521228955E+02  0.00000000000E+00 0.  1.
</event>
<event>
12    1  0.2614920E-002  0.1773095E+03  0.7818608E-02  0.1170433E+00
         -2   -1    0    0    0  501 -0.00000000000E+00  0.00000000000E+00  0.95244339877E+02  0.95244339877E+02  0.00000000000E+00 0. -1.
          2   -1    0    0  502    0  0.00000000000E+00 -0.00000000000E+00 -0.33591532956E+03  0.33591532956E+03  0.00000000000E+00 0.  1.
          6    2    1    2  502    0 -0.33155953775E+02  0.22374065590E+02 -0.93256899189E+02  0.20198763312E+03  0.17464890096E+03 0.  0.
         24    2    3    3    0    0  0.36291040447E+02  0.41359232616E+02 -0.27244981052E+02  0.10419711769E+03  0.84185061635E+02 0.  0.
         -6    2    1    2    0  501  0.33155953775E+02 -0.22374065590E+02 -0.14741409049E+03  0.22917203631E+03  0.17084786235E+03 0.  0.
        -24    2    5    5    0    0  0.30487528232E+02 -0.72932742559E+02 -0.59940523386E+02  0.12799390007E+03  0.80875817124E+02 0.  0.
          5    1    3    3  502    0 -0.69446994221E+02 -0.18985167026E+02 -0.66011918137E+02  0.97790515437E+02  0.47000000000E+01 0. -1.
        -11    1    4    4    0    0  0.13246513254E+02  0.59622407209E+02 -0.39070979790E+02  0.72504089654E+02  0.00000000000E+00 0.  1.
         12    1    4    4    0    0  0.23044527192E+02 -0.18263174593E+02  0.11825998738E+02  0.31693028033E+02  0.00000000000E+00 0. -1.
         -5    1    5    5    0  501  0.26684255427E+01  0.50558676969E+02 -0.87473567108E+02  0.10117813625E+03  0.47000000000E+01 0.  1.
         13    1    6    6    0    0  0.30623084486E+02 -0.41456632332E+02  0.88956231852E+01  0.52302559972E+02  0.00000000000E+00 0. -1.
        -14    1    6    6    0    0 -0.13555625437E+00 -0.31476110227E+02 -0.68836146571E+02  0.75691340094E+02  0.00000000000E+00 0.  1.
</event>
<event>
12    1  0.2614920E-002  0.2270511E+03  0.7818608E-02  0.1128733E+00
         -2   -1    0    0    0  501 -0.00000000000E+00  0.00000000000E+00  0.20747606096E+03  0.20747606096E+03  0.00000000000E+00 0. -1.
          2   -1    0    0  502    0  0.00000000000E+00 -0.00000000000E+00 -0.40642970257E+03  0.40642970257E+03  0.00000000000E+00 0.  1.
          6    2    1    2  502    0  0.14477546284E+03 -0.20610323553E+02 -0.29072619967E+03  0.36863275422E+03  0.17315791703E+03 0.  0.
         24    2    3    3    0    0  0.43552716007E+02  0.49816482716E+02 -0.12461921302E+03  0.16170377961E+03  0.78991411340E+02 0.  0.
         -6    2    1    2    0  501 -0.14477546284E+03  0.20610323553E+02  0.91772558062E+02  0.24527300931E+03  0.17421804327E+03 0.  0.
        -24    2    5    5    0    0 -0.27642150500E+02  0.29674614728E+02  0.92818003250E+02  0.12769087975E+03  0.77750291323E+02 0.  0.
          5    1    3    3  502    0  0.10122274684E+03 -0.70426806269E+02 -0.16610698665E+03  0.20692897461E+03  0.47000000000E+01 0. -1.
        -11    1    4    4    0    0  0.56359669452E+02  0.62735781021E+02 -0.95887147367E+02  0.12769704613E+03  0.00000000000E+00 0.  1.
         12    1    4    4    0    0 -0.12806953445E+02 -0.12919298305E+02 -0.28732065654E+02  0.34006733480E+02  0.00000000000E+00 0. -1.
         -5    1    5    5    0  501 -0.11713331234E+03 -0.90642911749E+01 -0.10454451882E+01  0.11758212955E+03  0.47000000000E+01 0.  1.
         11    1    6    6    0    0 -0.38901347920E+02 -0.14654787111E+02  0.38249400191E+02  0.56489771377E+02  0.00000000000E+00 0. -1.
        -12    1    6    6    0    0  0.11259197420E+02  0.44329401839E+02  0.54568603059E+02  0.71201108374E+02  0.00000000000E+00 0.  1.
</event>
<event>
12    1  0.2614920E-002  0.1722695E+03  0.7818608E-02  0.1175502E+00
          1   -1    0    0  502    0  0.00000000000E+00  0.00000000000E+00  0.95291128268E+03  0.95291128268E+03  0.00000000000E+00 0. -1.
         -1   -1    0    0    0  501 -0.00000000000E+00 -0.00000000000E+00 -0.37238365213E+02  0.37238365213E+02  0.00000000000E+00 0.  1.
          6    2    1    2  502    0 -0.89585760583E+01  0.15735912002E+01  0.25917006638E+03  0.31160461395E+03  0.17275873307E+03 0.  0.
         24    2    3    3    0    0  0.16744044890E+02 -0.13324190854E+02  0.42235712845E+02  0.92595088181E+02  0.79574479668E+02 0.  0.
         -6    2    1    2    0  501  0.89585760583E+01 -0.15735912002E+01  0.65650285109E+03  0.67854503394E+03  0.17130276509E+03 0.  0.
        -24    2    5    5    0    0  0.56451679884E+02  0.27208992470E+01  0.58145462265E+03  0.58950367192E+03  0.78936085238E+02 0.  0.
          5    1    3    3  502    0 -0.25702620948E+02  0.14897782055E+02  0.21693435354E+03  0.21900952577E+03  0.47000000000E+01 0. -1.
        -11    1    4    4    0    0  0.20705964987E+02 -0.38899883800E+02  0.12049572204E+01  0.44083895785E+02  0.00000000000E+00 0.  1.
         12    1    4    4    0    0 -0.39619200970E+01  0.25575692946E+02  0.41030755624E+02  0.48511192395E+02  0.00000000000E+00 0. -1.
         -5    1    5    5    0  501 -0.47493103826E+02 -0.42944904472E+01  0.75048228438E+02  0.89041362023E+02  0.47000000000E+01 0.  1.
         13    1    6    6    0    0  0.32862206366E+02  0.44058870040E+01  0.54526310881E+03  0.54627025755E+03  0.00000000000E+00 0. -1.
        -14    1    6    6    0    0  0.23589473518E+02 -0.16849877571E+01  0.36191513834E+02  0.43233414371E+02  0.00000000000E+00 0.  1.
</event>
<event>
12    1  0.2614920E-002  0.1854949E+03  0.7818608E-02  0.1162589E+00
          1   -1    0    0  502    0  0.00000000000E+00  0.00000000000E+00  0.27538943667E+02  0.27538943667E+02  0.00000000000E+00 0.  1.
         -1   -1    0    0    0  501 -0.00000000000E+00 -0.00000000000E+00 -0.14089416432E+04  0.14089416432E+04  0.00000000000E+00 0. -1.
          6    2    1    2  502    0 -0.69393304428E+02  0.23872448756E+01 -0.93052649635E+03  0.94872743082E+03  0.17141484164E+03 0.  0.
         24    2    3    3    0    0 -0.28019342917E+02  0.39410293887E+02 -0.81816474898E+03  0.82330907841E+03  0.78141072864E+02 0.  0.
         -6    2    1    2    0  501  0.69393304428E+02 -0.23872448756E+01 -0.45087620314E+03  0.48775315601E+03  0.17260550687E+03 0.  0.
        -24    2    5    5    0    0  0.48946837246E+01  0.57202522318E+02 -0.24306077637E+03  0.26209776823E+03  0.79502280577E+02 0.  0.
          5    1    3    3  502    0 -0.41373961512E+02 -0.37023049011E+02 -0.11236174737E+03  0.12541835241E+03  0.47000000000E+01 0. -1.
        -13    1    4    4    0    0 -0.40174781906E+02 -0.94161690560E+01 -0.33516192454E+03  0.33769245328E+03  0.00000000000E+00 0.  1.
         14    1    4    4    0    0  0.12155438989E+02  0.48826462942E+02 -0.48300282445E+03  0.48561662513E+03  0.00000000000E+00 0. -1.
         -5    1    5    5    0  501  0.64498620704E+02 -0.59589767194E+02 -0.20781542678E+03  0.22565538778E+03  0.47000000000E+01 0.  1.
         13    1    6    6    0    0 -0.23376848969E+02  0.31970426587E+02 -0.20349324643E+03  0.20731156886E+03  0.00000000000E+00 0. -1.
        -14    1    6    6    0    0  0.28271532693E+02  0.25232095732E+02 -0.39567529941E+02  0.54786199371E+02  0.00000000000E+00 0.  1.
</event>
<event>
12    1  0.2614920E-002  0.2951672E+03  0.7818608E-02  0.1087682E+00
         -2   -1    0    0    0  501 -0.00000000000E+00  0.00000000000E+00  0.34655597423E+03  0.34655597423E+03  0.00000000000E+00 0.  1.
          2   -1    0    0  502    0  0.00000000000E+00 -0.00000000000E+00 -0.25264560601E+03  0.25264560601E+03  0.00000000000E+00 0. -1.
          6    2    1    2  502    0  0.18120073202E+03  0.15035039070E+03  0.26987348875E+02  0.30055385879E+03  0.18483873989E+03 0.  0.
         24    2    3    3    0    0  0.53689120727E+02 -0.84804648847E+01  0.19273793164E+02  0.96671440118E+02  0.77585103355E+02 0.  0.
         -6    2    1    2    0  501 -0.18120073202E+03 -0.15035039070E+03  0.66923019345E+02  0.29864772145E+03  0.17109303240E+03 0.  0.
        -24    2    5    5    0    0 -0.25478814307E+02 -0.83287002334E+02  0.56751868724E+02  0.12872904672E+03  0.75924292088E+02 0.  0.
          5    1    3    3  502    0  0.12751161130E+03  0.15883085559E+03  0.77135557114E+01  0.20388241867E+03  0.47000000000E+01 0. -1.
        -11    1    4    4    0    0  0.70302632943E+02 -0.21323888099E+02  0.17973582185E+02  0.75632123195E+02  0.00000000000E+00 0.  1.
         12    1    4    4    0    0 -0.16613512216E+02  0.12843423214E+02  0.13002109785E+01  0.21039316924E+02  0.00000000000E+00 0. -1.
         -5    1    5    5    0  501 -0.15572191772E+03 -0.67063388369E+02  0.10171150621E+02  0.16991867473E+03  0.47000000000E+01 0.  1.
         11    1    6    6    0    0 -0.56557364786E+01 -0.21589259971E+02 -0.18807830098E+02  0.29185920821E+02  0.00000000000E+00 0. -1.
        -12    1    6    6    0    0 -0.19823077828E+02 -0.61697742363E+02  0.75559698822E+02  0.99543125897E+02  0.00000000000E+00 0.  1.
</event>
<event>
12    1  0.2614920E-002  0.2309644E+03  0.7818608E-02  0.1125963E+00
          1   -1    0    0  502    0  0.00000000000E+00  0.00000000000E+00  0.30017745039E+03  0.30017745039E+03  0.00000000000E+00 0. -1.
         -1   -1    0    0    0  501 -0.00000000000E+00 -0.00000000000E+00 -0.18205037904E+03  0.18205037904E+03  0.00000000000E+00 0.  1.
          6    2    1    2  502    0 -0.14707262033E+02 -0.15732805180E+03  0.96988780504E+02  0.25376789417E+03  0.17327117801E+03 0.  0.
         24    2    3    3    0    0  0.23878105209E+02 -0.17773000447E+03  0.89713587337E+02  0.20926970686E+03  0.59892938327E+02 0.  0.
         -6    2    1    2    0  501  0.14707262033E+02  0.15732805180E+03  0.21138290841E+02  0.22845993526E+03  0.16364197273E+03 0.  0.
        -24    2    5    5    0    0 -0.42859726737E+02  0.32340378303E+02  0.18355043618E+02  0.90743875241E+02  0.70814454900E+02 0.  0.
          5    1    3    3  502    0 -0.38585367241E+02  0.20401952668E+02  0.72751931668E+01  0.44498187305E+02  0.47000000000E+01 0. -1.
        -13    1    4    4    0    0 -0.25738234697E+01 -0.94286755152E+02  0.17809989168E+02  0.95988605982E+02  0.00000000000E+00 0.  1.
         14    1    4    4    0    0  0.26451928679E+02 -0.83443249316E+02  0.71903598169E+02  0.11328110088E+03  0.00000000000E+00 0. -1.
         -5    1    5    5    0  501  0.57566988769E+02  0.12498767350E+03  0.27832472231E+01  0.13771606002E+03  0.47000000000E+01 0.  1.
         11    1    6    6    0    0 -0.60659600495E+02  0.36211218598E+02  0.14153643846E+02  0.72049740587E+02  0.00000000000E+00 0. -1.
        -12    1    6    6    0    0  0.17799873759E+02 -0.38708402943E+01  0.42013997724E+01  0.18694134654E+02  0.00000000000E+00 0.  1.
</event>
<event>
12    1  0.2614920E-002  0.2054902E+03  0.7818608E-02  0.1145188E+00
         -1   -1    0    0    0  501 -0.00000000000E+00  0.00000000000E+00  0.23906974484E+02  0.23906974484E+02  0.00000000000E+00 0. -1.
          1   -1    0    0  502    0  0.00000000000E+00 -0.00000000000E+00 -0.17877370009E+04  0.17877370009E+04  0.00000000000E+00 0.  1.
          6    2    1    2  502    0  0.84426820253E+02  0.75773747827E+02 -0.98029127840E+03  0.10015550192E+04  0.17109037684E+03 0.  0.
         24    2    3    3    0    0  0.11275807319E+03  0.80716513920E+02 -0.92752271225E+03  0.94127482005E+03  0.80438587996E+02 0.  0.
         -6    2    1    2    0  501 -0.84426820253E+02 -0.75773747827E+02 -0.78353874803E+03  0.81008895625E+03  0.17158554289E+03 0.  0.
        -24    2    5    5    0    0 -0.34303288674E+02  0.26972200061E+02 -0.37228689159E+03  0.38321745608E+03  0.79711189973E+02 0.  0.
          5    1    3    3  502    0 -0.28331252941E+02 -0.49427660937E+01 -0.52768566148E+02  0.60280199097E+02  0.47000000000E+01 0. -1.
        -13    1    4    4    0    0  0.14359496468E+02  0.53713770902E+02 -0.24971530450E+03  0.25583021250E+03  0.00000000000E+00 0.  1.
         14    1    4    4    0    0  0.98398576727E+02  0.27002743018E+02 -0.67780740775E+03  0.68544460756E+03  0.00000000000E+00 0. -1.
         -5    1    5    5    0  501 -0.50123531579E+02 -0.10274594789E+03 -0.41125185645E+03  0.42687150017E+03  0.47000000000E+01 0.  1.
         11    1    6    6    0    0  0.42167046137E+00  0.42279752853E+02 -0.10410286551E+03  0.11236174578E+03  0.00000000000E+00 0. -1.
        -12    1    6    6    0    0 -0.34724959135E+02 -0.15307552792E+02 -0.26818402607E+03  0.27085571030E+03  0.00000000000E+00 0.  1.
</event>
<event>
12    1  0.2614920E-002  0.2037094E+03  0.7818608E-02  0.1146647E+00
          2   -1    0    0  502    0  0.00000000000E+00  0.00000000000E+00  0.18925284219E+04  0.18925284219E+04  0.00000000000E+00 0. -1.
         -2   -1    0    0    0  501 -0.00000000000E+00 -0.00000000000E+00 -0.27582657779E+02  0.27582657779E+02  0.00000000000E+00 0.  1.
          6    2    1    2  502    0  0.36432365827E+02  0.10272318362E+03  0.13661083855E+04  0.13811689356E+04  0.17174439768E+03 0.  0.
         24    2    3    3    0    0  0.12482216555E+02  0.12497325954E+03  0.77944635514E+03  0.79357800362E+03  0.80344918742E+02 0.  0.
         -6    2    1    2    0  501 -0.36432365827E+02 -0.10272318362E+03  0.49883737862E+03  0.53894214403E+03  0.17245444201E+03 0.  0.
        -24    2    5    5    0    0  0.23468970697E+02 -0.11106981259E+03  0.30459562402E+03  0.33544819924E+03  0.82823332178E+02 0.  0.
          5    1    3    3  502    0  0.23950149272E+02 -0.22250075927E+02  0.58666203036E+03  0.58759093202E+03  0.47000000000E+01 0. -1.
        -13    1    4    4    0    0 -0.73745912086E+01  0.33053756276E+01  0.52701039075E+01  0.96480100916E+01  0.00000000000E+00 0.  1.
         14    1    4    4    0    0  0.19856807763E+02  0.12166788392E+03  0.77417625123E+03  0.78392999353E+03  0.00000000000E+00 0. -1.
         -5    1    5    5    0  501 -0.59901336524E+02  0.83466289693E+01  0.19424175460E+03  0.20349394478E+03  0.47000000000E+01 0.  1.
         11    1    6    6    0    0 -0.11557988957E+02  0.25625623311E+01  0.84140964194E+02  0.84969733964E+02  0.00000000000E+00 0. -1.
        -12    1    6    6    0    0  0.35026959655E+02 -0.11363237492E+03  0.22045465982E+03  0.25047846528E+03  0.00000000000E+00 0.  1.
</event>
<event>
12    1  0.2614920E-002  0.5504473E+03  0.7818608E-02  0.1001390E+00
         -2   -1    0    0    0  501 -0.00000000000E+00  0.00000000000E+00  0.42840512612E+03  0.42840512612E+03  0.00000000000E+00 0.  1.
          2   -1    0    0  502    0  0.00000000000E+00 -0.00000000000E+00 -0.70729325024E+03  0.70729325024E+03  0.00000000000E+00 0. -1.
          6    2    1    2  502    0 -0.43586407423E+02 -0.52088740892E+03 -0.14347897660E+03  0.56860394325E+03  0.17175785242E+03 0.  0.
         24    2    3    3    0    0 -0.60550878528E+02 -0.29129629675E+03 -0.14013810411E+03  0.33831472618E+03  0.79361352926E+02 0.  0.
         -6    2    1    2    0  501  0.43586407423E+02  0.52088740892E+03 -0.13540914752E+03  0.56709443311E+03  0.17331183212E+03 0.  0.
        -24    2    5    5    0    0 -0.27854095546E+02  0.14541224597E+03 -0.46183945024E+02  0.17457873888E+03  0.80151153298E+02 0.  0.
          5    1    3    3  502    0  0.16964471105E+02 -0.22959111217E+03 -0.33408724852E+01  0.23028921706E+03  0.47000000000E+01 0. -1.
        -13    1    4    4    0    0 -0.70926018958E+02 -0.17902325873E+03 -0.66837260232E+02  0.20383092672E+03  0.00000000000E+00 0.  1.
         14    1    4    4    0    0  0.10375140430E+02 -0.11227303802E+03 -0.73300843880E+02  0.13448379946E+03  0.00000000000E+00 0. -1.
         -5    1    5    5    0  501  0.71440502969E+02  0.37547516295E+03 -0.89225202495E+02  0.39251569423E+03  0.47000000000E+01 0.  1.
         11    1    6    6    0    0 -0.19423972679E+02  0.11518559489E+03 -0.69101946181E+02  0.13572063569E+03  0.00000000000E+00 0. -1.
        -12    1    6    6    0    0 -0.84301228668E+01  0.30226651075E+02  0.22918001157E+02  0.38858103193E+02  0.00000000000E+00 0.  1.
</event>
<event>
12    1  0.2614920E-002  0.1959240E+03  0.7818608E-02  0.1153224E+00
         -2   -1    0    0    0  501 -0.00000000000E+00  0.00000000000E+00  0.10016739548E+03  0.10016739548E+03  0.00000000000E+00 0.  1.
          2   -1    0    0  502    0  0.00000000000E+00 -0.00000000000E+00 -0.47208560284E+03  0.47208560284E+03  0.00000000000E+00 0. -1.
          6    2    1    2  502    0  0.78366124641E+02  0.63513987970E+02 -0.30690073006E+03  0.36200265614E+03  0.16334806024E+03 0.  0.
         24    2    3    3    0    0  0.76173975463E+02  0.33335604020E+02 -0.97012391273E+02  0.14989243684E+03  0.78374750569E+02 0.  0.
         -6    2    1    2    0  501 -0.78366124641E+02 -0.63513987970E+02 -0.65017477298E+02  0.21025034218E+03  0.17263446317E+03 0.  0.
        -24    2    5    5    0    0 -0.37155427196E+02 -0.64891164835E+02 -0.10630061642E+03  0.15171312516E+03  0.78266610062E+02 0.  0.
          5    1    3    3  502    0  0.21921491780E+01  0.30178383950E+02 -0.20988833879E+03  0.21211021931E+03  0.47000000000E+01 0. -1.
        -11    1    4    4    0    0  0.46452161234E+02  0.44016093813E+02 -0.99401509143E+02  0.11821962535E+03  0.00000000000E+00 0.  1.
         12    1    4    4    0    0  0.29721814229E+02 -0.10680489792E+02  0.23891178696E+01  0.31672811486E+02  0.00000000000E+00 0. -1.
         -5    1    5    5    0  501 -0.41210697445E+02  0.13771768648E+01  0.41283139125E+02  0.58537217017E+02  0.47000000000E+01 0.  1.
         11    1    6    6    0    0 -0.11787994124E+02 -0.37130460110E+02 -0.10723935800E+03  0.11409604628E+03  0.00000000000E+00 0. -1.
        -12    1    6    6    0    0 -0.25367433072E+02 -0.27760704726E+02  0.93874157718E+00  0.37617078877E+02  0.00000000000E+00 0.  1.
</event>
<event>
12    1  0.2614920E-002  0.2195446E+03  0.7818608E-02  0.1134223E+00
         -2   -1    0    0    0  501 -0.00000000000E+00  0.00000000000E+00  0.15298451076E+02  0.15298451076E+02  0.00000000000E+00 0. -1.
          2   -1    0    0  502    0  0.00000000000E+00 -0.00000000000E+00 -0.31582706103E+04  0.31582706103E+04  0.00000000000E+00 0.  1.
          6    2    1    2  502    0  0.90817547513E+02 -0.10163578190E+03 -0.16469796810E+04  0.16615021222E+04  0.17166704205E+03 0.  0.
         24    2    3    3    0    0  0.15430150483E+02 -0.39422586583E+02 -0.12243005366E+04  0.12276432852E+04  0.80025008410E+02 0.  0.
         -6    2    1    2    0  501 -0.90817547513E+02  0.10163578190E+03 -0.14959924782E+04  0.15120669392E+04  0.17255513487E+03 0.  0.
        -24    2    5    5    0    0 -0.30360821536E+01  0.10797655879E+03 -0.89455038389E+03  0.90420143272E+03  0.75443267219E+02 0.  0.
          5    1    3    3  502    0  0.75387397029E+02 -0.62213195312E+02 -0.42267914443E+03  0.43385883699E+03  0.47000000000E+01 0. -1.
        -11    1    4    4    0    0  0.99011224722E+01  0.24471088914E+02 -0.36104039064E+03  0.36200418518E+03  0.00000000000E+00 0.  1.
         12    1    4    4    0    0  0.55290280111E+01 -0.63893675497E+02 -0.86326014593E+03  0.86563910001E+03  0.00000000000E+00 0. -1.
         -5    1    5    5    0  501 -0.87781465359E+02 -0.63407768963E+01 -0.60144209434E+03  0.60786550647E+03  0.47000000000E+01 0.  1.
         11    1    6    6    0    0 -0.38964446502E+02  0.59151609639E+02 -0.45118687096E+03  0.45671296625E+03  0.00000000000E+00 0. -1.
        -12    1    6    6    0    0  0.35928364349E+02  0.48824949153E+02 -0.44336351294E+03  0.44748846648E+03  0.00000000000E+00 0.  1.
</event>
<event>
12    1  0.2614920E-002  0.1675087E+03  0.7818608E-02  0.1180471E+00
         -2   -1    0    0    0  501 -0.00000000000E+00  0.00000000000E+00  0.19383653980E+02  0.19383653980E+02  0.00000000000E+00 0. -1.
          2   -1    0    0  502    0  0.00000000000E+00 -0.00000000000E+00 -0.14694781971E+04  0.14694781971E+04  0.00000000000E+00 0.  1.
          6    2    1    2  502    0  0.15584656637E+02 -0.17571288742E+02 -0.83790246625E+03  0.85572572301E+03  0.17214627022E+03 0.  0.
         24    2    3    3    0    0 -0.55856901386E+02 -0.24222044548E+02 -0.55116285128E+03  0.56010802130E+03  0.78954455368E+02 0.  0.
         -6    2    1    2    0  501 -0.15584656637E+02  0.17571288742E+02 -0.61219207684E+03  0.63313612805E+03  0.15978293395E+03 0.  0.
        -24    2    5    5    0    0 -0.56388441138E+01  0.15205607501E+02 -0.61592895238E+03  0.62127991139E+03  0.79732345080E+02 0.  0.
          5    1    3    3  502    0  0.71441558023E+02  0.66507558063E+01 -0.28673961498E+03  0.29561770171E+03  0.47000000000E+01 0. -1.
        -13    1    4    4    0    0 -0.59398441073E+02  0.16124696983E+01 -0.49039286170E+03  0.49397968953E+03  0.00000000000E+00 0.  1.
         14    1    4    4    0    0  0.35415396867E+01 -0.25834514247E+02 -0.60769989577E+02  0.66128331772E+02  0.00000000000E+00 0. -1.
         -5    1    5    5    0  501 -0.99458125232E+01  0.23656812408E+01  0.37368755455E+01  0.11856216653E+02  0.47000000000E+01 0.  1.
         13    1    6    6    0    0 -0.14347204034E+02 -0.11060972403E+01 -0.17907606314E+02  0.22972768196E+02  0.00000000000E+00 0. -1.
        -14    1    6    6    0    0  0.87083599198E+01  0.16311704741E+02 -0.59802134607E+03  0.59830714320E+03  0.00000000000E+00 0.  1.
</event>
<event>
12    1  0.2614920E-002  0.1882096E+03  0.7818608E-02  0.1160086E+00
         -4   -1    0    0    0  501 -0.00000000000E+00  0.00000000000E+00  0.62328914755E+02  0.62328914755E+02  0.00000000000E+00 0. -1.
          4   -1    0    0  502    0  0.00000000000E+00 -0.00000000000E+00 -0.58848472961E+03  0.58848472961E+03  0.00000000000E+00 0.  1.
          6    2    1    2  502    0  0.25044246886E+02 -0.77519054646E+02 -0.32589541182E+03  0.37734111342E+03  0.17187809138E+03 0.  0.
         24    2    3    3    0    0  0.37182705295E+02 -0.17953160521E+02 -0.29597879510E+03  0.30942549024E+03  0.80223545910E+02 0.  0.
         -6    2    1    2    0  501 -0.25044246886E+02  0.77519054646E+02 -0.20026040304E+03  0.27347253094E+03  0.16747112593E+03 0.  0.
        -24    2    5    5    0    0 -0.33291207371E+02  0.20186121886E+02 -0.27564971875E+02  0.91261445990E+02  0.77801284339E+02 0.  0.
          5    1    3    3  502    0 -0.12138458409E+02 -0.59565894125E+02 -0.29916616719E+02  0.67915623176E+02  0.47000000000E+01 0. -1.
        -13    1    4    4    0    0  0.24226914061E+02 -0.54567553731E+01 -0.28908574952E+03  0.29015046118E+03  0.00000000000E+00 0.  1.
         14    1    4    4    0    0  0.12955791234E+02 -0.12496405148E+02 -0.68930455738E+01  0.19275029064E+02  0.00000000000E+00 0. -1.
         -5    1    5    5    0  501  0.82469604850E+01  0.57332932760E+02 -0.17269543116E+03  0.18221108495E+03  0.47000000000E+01 0.  1.
         11    1    6    6    0    0 -0.29877910073E+02 -0.24201099309E+02 -0.26560948412E+02  0.46731859568E+02  0.00000000000E+00 0. -1.
        -12    1    6    6    0    0 -0.34132972982E+01  0.44387221195E+02 -0.10040234627E+01  0.44529586423E+02  0.00000000000E+00 0.  1.
</event>
<event>
12    1  0.2614920E-002  0.2110261E+03  0.7818608E-02  0.1140756E+00
          2   -1    0    0  502    0  0.00000000000E+00  0.00000000000E+00  0.37928455153E+04  0.37928455153E+04  0.00000000000E+00 0.  1.
         -2   -1    0    0    0  501 -0.00000000000E+00 -0.00000000000E+00 -0.15664912727E+02  0.15664912727E+02  0.00000000000E+00 0. -1.
          6    2    1    2  502    0  0.52541979273E+02  0.11111495931E+03  0.94092933100E+03  0.96447862827E+03  0.17252195423E+03 0.  0.
         24    2    3    3    0    0 -0.40141298274E+01  0.58376380883E+02  0.77416518121E+03  0.78059735466E+03  0.81096160319E+02 0.  0.
         -6    2    1    2    0  501 -0.52541979273E+02 -0.11111495931E+03  0.28362512716E+04  0.28440317998E+04  0.17055324313E+03 0.  0.
        -24    2    5    5    0    0 -0.62669889147E+02 -0.96581049989E+02  0.27997321059E+04  0.28031716904E+04  0.77564467288E+02 0.  0.
          5    1    3    3  502    0  0.56556109100E+02  0.52738578427E+02  0.16676414979E+03  0.18388127361E+03  0.47000000000E+01 0. -1.
        -13    1    4    4    0    0 -0.10704310229E+02  0.73746282604E+02  0.72127667048E+03  0.72511594371E+03  0.00000000000E+00 0.  1.
         14    1    4    4    0    0  0.66901804012E+01 -0.15369901721E+02  0.52888510737E+02  0.55481410947E+02  0.00000000000E+00 0. -1.
         -5    1    5    5    0  501  0.10127909875E+02 -0.14533909320E+02  0.36519165680E+02  0.40860109404E+02  0.47000000000E+01 0.  1.
         11    1    6    6    0    0 -0.47214358973E+02 -0.48192975203E+02  0.81437210140E+03  0.81716196564E+03  0.00000000000E+00 0. -1.
        -12    1    6    6    0    0 -0.15455530174E+02 -0.48388074786E+02  0.19853600045E+04  0.19860097248E+04  0.00000000000E+00 0.  1.
</event>
<event>
12    1  0.2614920E-002  0.1732277E+03  0.7818608E-02  0.1174523E+00
         -2   -1    0    0    0  501 -0.00000000000E+00  0.00000000000E+00  0.81153086151E+02  0.81153086151E+02  0.00000000000E+00 0. -1.
          2   -1    0    0  502    0  0.00000000000E+00 -0.00000000000E+00 -0.95703164208E+03  0.95703164208E+03  0.00000000000E+00 0.  1.
          6    2    1    2  502    0 -0.80448872213E+01  0.23157333054E+02 -0.30042207678E+02  0.17452710577E+03  0.17016519656E+03 0.  0.
         24    2    3    3    0    0 -0.40069244614E+02  0.72359137109E+02 -0.23326523655E+02  0.11525175338E+03  0.76794862224E+02 0.  0.
         -6    2    1    2    0  501  0.80448872213E+01 -0.23157333054E+02 -0.84583634825E+03  0.86365762246E+03  0.17281313184E+03 0.  0.
        -24    2    5    5    0    0  0.44137605946E+02  0.23475412932E+02 -0.70248786345E+03  0.70858288101E+03  0.78110675918E+02 0.  0.
          5    1    3    3  502    0  0.32024357393E+02 -0.49201804055E+02 -0.67156840232E+01  0.59275352387E+02  0.47000000000E+01 0. -1.
        -13    1    4    4    0    0 -0.40237582782E+02  0.46533390485E+01 -0.24864065204E+02  0.47528290216E+02  0.00000000000E+00 0.  1.
         14    1    4    4    0    0  0.16833816742E+00  0.67705798061E+02  0.15375415485E+01  0.67723463163E+02  0.00000000000E+00 0. -1.
         -5    1    5    5    0  501 -0.36092718724E+02 -0.46632745986E+02 -0.14334848479E+03  0.15507474145E+03  0.47000000000E+01 0.  1.
         11    1    6    6    0    0 -0.67663654076E+00 -0.95488060342E+01 -0.99354826018E+01  0.13796787605E+02  0.00000000000E+00 0. -1.
        -12    1    6    6    0    0  0.44814242487E+02  0.33024218966E+02 -0.69255238085E+03  0.69478609341E+03  0.00000000000E+00 0.  1.
</event>
<event>
12    1  0.2614920E-002  0.2829602E+03  0.7818608E-02  0.1094083E+00
         -1   -1    0    0    0  501 -0.00000000000E+00  0.00000000000E+00  0.23615291781E+03  0.23615291781E+03  0.00000000000E+00 0.  1.
          1   -1    0    0  502    0  0.00000000000E+00 -0.00000000000E+00 -0.41567823016E+03  0.41567823016E+03  0.00000000000E+00 0. -1.
          6    2    1    2  502    0  0.13962439531E+03 -0.17618836536E+03  0.50287059384E+02  0.28696467918E+03  0.17112167280E+03 0.  0.
         24    2    3    3    0    0  0.56070966168E+02 -0.32636710317E+02 -0.23878054639E+02  0.10500092641E+03  0.79031164393E+02 0.  0.
         -6    2    1    2    0  501 -0.13962439531E+03  0.17618836536E+03 -0.22981237174E+03  0.36486646878E+03  0.17255869142E+03 0.  0.
        -24    2    5    5    0    0 -0.68018278833E+02  0.15108239991E+02 -0.71859958802E+02  0.12812758846E+03  0.79987999564E+02 0.  0.
          5    1    3    3  502    0  0.83553429142E+02 -0.14355165504E+03  0.74165114023E+02  0.18196375278E+03  0.47000000000E+01 0. -1.
        -13    1    4    4    0    0  0.24411244025E+02 -0.33482233519E+02  0.23782992292E+02  0.47776558254E+02  0.00000000000E+00 0.  1.
         14    1    4    4    0    0  0.31659722143E+02  0.84552320132E+00 -0.47661046932E+02  0.57224368151E+02  0.00000000000E+00 0. -1.
         -5    1    5    5    0  501 -0.71606116478E+02  0.16108012537E+03 -0.15795241294E+03  0.23673888033E+03  0.47000000000E+01 0.  1.
         11    1    6    6    0    0 -0.86227964125E+02  0.14476798167E+02 -0.54943743197E+02  0.10326497179E+03  0.00000000000E+00 0. -1.
        -12    1    6    6    0    0  0.18209685292E+02  0.63144182318E+00 -0.16916215605E+02  0.24862616669E+02  0.00000000000E+00 0.  1.
</event>
<event>
12    1  0.2614920E-002  0.2023714E+03  0.7818608E-02  0.1147754E+00
          2   -1    0    0  502    0  0.00000000000E+00  0.00000000000E+00  0.66080125918E+03  0.66080125918E+03  0.00000000000E+00 0.  1.
         -2   -1    0    0    0  501 -0.00000000000E+00 -0.00000000000E+00 -0.12609683784E+03  0.12609683784E+03  0.00000000000E+00 0. -1.
          6    2    1    2  502    0 -0.10466052574E+03 -0.17851980066E+02  0.54796059825E+03  0.58415911253E+03  0.17236163342E+03 0.  0.
         24    2    3    3    0    0 -0.80752154036E+02  0.54538279881E+02  0.36640827379E+03  0.38719389609E+03  0.78541426704E+02 0.  0.
         -6    2    1    2    0  501  0.10466052574E+03  0.17851980066E+02 -0.13256176914E+02  0.20273898449E+03  0.17220583836E+03 0.  0.
        -24    2    5    5    0    0  0.69870254318E+02 -0.14312944847E+02 -0.65286328550E+02  0.13221117395E+03  0.90170821189E+02 0.  0.
          5    1    3    3  502    0 -0.23908371705E+02 -0.72390259946E+02  0.18155232445E+03  0.19696521644E+03  0.47000000000E+01 0. -1.
        -13    1    4    4    0    0 -0.74398123649E+02  0.42770116043E+02  0.36351956725E+03  0.37351149835E+03  0.00000000000E+00 0.  1.
         14    1    4    4    0    0 -0.63540303865E+01  0.11768163837E+02  0.28887065449E+01  0.13682397734E+02  0.00000000000E+00 0. -1.
         -5    1    5    5    0  501  0.34790271423E+02  0.32164924912E+02  0.52030151636E+02  0.70527810540E+02  0.47000000000E+01 0.  1.
         13    1    6    6    0    0  0.35216165699E+02  0.35987198576E+02 -0.45883362659E+02  0.68121507300E+02  0.00000000000E+00 0. -1.
        -14    1    6    6    0    0  0.34654088619E+02 -0.50300143423E+02 -0.19402965891E+02  0.64089666653E+02  0.00000000000E+00 0.  1.
</event>
<event>
12    1  0.2614920E-002  0.1888243E+03  0.7818608E-02  0.1159526E+00
         -1   -1    0    0    0  501 -0.00000000000E+00  0.00000000000E+00  0.36428524152E+02  0.36428524152E+02  0.00000000000E+00 0. -1.
          1   -1    0    0  502    0  0.00000000000E+00 -0.00000000000E+00 -0.11468620545E+04  0.11468620545E+04  0.00000000000E+00 0.  1.
          6    2    1    2  502    0  0.86403977763E+01 -0.77360063974E+02 -0.32993146972E+03  0.38038697090E+03  0.17256951339E+03 0.  0.
         24    2    3    3    0    0 -0.14082193000E+02 -0.10272501658E+01 -0.69117573635E+02  0.10764351455E+03  0.81305127982E+02 0.  0.
         -6    2    1    2    0  501 -0.86403977763E+01  0.77360063974E+02 -0.78050206063E+03  0.80290360775E+03  0.17149781549E+03 0.  0.
        -24    2    5    5    0    0  0.17173013075E+02  0.69417743953E+02 -0.76238470235E+03  0.77004419056E+03  0.81387256251E+02 0.  0.
          5    1    3    3  502    0  0.22722590776E+02 -0.76332813808E+02 -0.26081389608E+03  0.27274345635E+03  0.47000000000E+01 0. -1.
        -13    1    4    4    0    0  0.18006830893E+02  0.18663388412E+02 -0.64739922787E+02  0.69741132973E+02  0.00000000000E+00 0.  1.
         14    1    4    4    0    0 -0.32089023893E+02 -0.19690638578E+02 -0.43776508472E+01  0.37902381573E+02  0.00000000000E+00 0. -1.
         -5    1    5    5    0  501 -0.25813410852E+02  0.79423200210E+01 -0.18117358279E+02  0.32859417191E+02  0.47000000000E+01 0.  1.
         13    1    6    6    0    0  0.15045119918E+02  0.52655213103E+02 -0.19875562963E+03  0.20616189612E+03  0.00000000000E+00 0. -1.
        -14    1    6    6    0    0  0.21278931577E+01  0.16762530849E+02 -0.56362907272E+03  0.56388229444E+03  0.00000000000E+00 0.  1.
</event>
<event>
12    1  0.2614920E-002  0.2240897E+03  0.7818608E-02  0.1130870E+00
         -2   -1    0    0    0  501 -0.00000000000E+00  0.00000000000E+00  0.55493161521E+02  0.55493161521E+02  0.00000000000E+00 0.  1.
          2   -1    0    0  502    0  0.00000000000E+00 -0.00000000000E+00 -0.14345628716E+04  0.14345628716E+04  0.00000000000E+00 0. -1.
          6    2    1    2  502    0  0.12294921181E+03 -0.73226880484E+02 -0.11414075299E+04  0.11631153689E+04  0.17189394203E+03 0.  0.
         24    2    3    3    0    0  0.88139122486E+02 -0.11622898314E+03 -0.78524253704E+03  0.80264828954E+03  0.79754330830E+02 0.  0.
         -6    2    1    2    0  501 -0.12294921181E+03  0.73226880484E+02 -0.23766218020E+03  0.32694066426E+03  0.17299769172E+03 0.  0.
        -24    2    5    5    0    0 -0.21510791431E+02  0.79492611576E+02 -0.78797057210E+02  0.13828958470E+03  0.78315027736E+02 0.  0.
          5    1    3    3  502    0  0.34810089321E+02  0.43002102661E+02 -0.35616499283E+03  0.36046707932E+03  0.47000000000E+01 0. -1.
        -11    1    4    4    0    0  0.34374225046E+01 -0.18017280600E+02 -0.22839295550E+02  0.29292860818E+02  0.00000000000E+00 0.  1.
         12    1    4    4    0    0  0.84701699981E+02 -0.98211702545E+02 -0.76240324149E+03  0.77335542872E+03  0.00000000000E+00 0. -1.
         -5    1    5    5    0  501 -0.10143842038E+03 -0.62657310929E+01 -0.15886512299E+03  0.18865107955E+03  0.47000000000E+01 0.  1.
         13    1    6    6    0    0 -0.49607591497E+02  0.51541675861E+02 -0.63995948549E+02  0.95984055527E+02  0.00000000000E+00 0. -1.
        -14    1    6    6    0    0  0.28096800066E+02  0.27950935715E+02 -0.14801108661E+02  0.42305529176E+02  0.00000000000E+00 0.  1.
</event>
<event>
12    1  0.2614920E-002  0.2067209E+03  0.7818608E-02  0.1144189E+00
         -1   -1    0    0    0  501 -0.00000000000E+00  0.00000000000E+00  0.41669694623E+02  0.41669694623E+02  0.00000000000E+00 0. -1.
          1   -1    0    0  502    0  0.00000000000E+00 -0.00000000000E+00 -0.10373209760E+04  0.10373209760E+04  0.00000000000E+00 0.  1.
          6    2    1    2  502    0 -0.11292606492E+03  0.12157681946E+02 -0.55598747437E+03  0.59326923903E+03  0.17304974126E+03 0.  0.
         24    2    3    3    0    0 -0.80365319170E+02 -0.29118473408E+01 -0.54235679287E+03  0.55460170284E+03  0.83457142542E+02 0.  0.
         -6    2    1    2    0  501  0.11292606492E+03 -0.12157681946E+02 -0.43966380696E+03  0.48572143155E+03  0.17239762338E+03 0.  0.
        -24    2    5    5    0    0  0.61766704532E+02 -0.49431297603E+02 -0.13757732530E+03  0.17703885189E+03  0.78464359247E+02 0.  0.
          5    1    3    3  502    0 -0.32560745753E+02  0.15069529287E+02 -0.13630681507E+02  0.38667536193E+02  0.47000000000E+01 0. -1.
        -11    1    4    4    0    0 -0.46123955065E+02  0.39951902496E+02 -0.29000014231E+03  0.29635056316E+03  0.00000000000E+00 0.  1.
         12    1    4    4    0    0 -0.34241364105E+02 -0.42863749837E+02 -0.25235665056E+03  0.25825113968E+03  0.00000000000E+00 0. -1.
         -5    1    5    5    0  501  0.51159360392E+02  0.37273615657E+02 -0.30208648167E+03  0.30868257966E+03  0.47000000000E+01 0.  1.
         13    1    6    6    0    0  0.76616633352E+02 -0.32271140975E+02 -0.80962146083E+02  0.11604483678E+03  0.00000000000E+00 0. -1.
        -14    1    6    6    0    0 -0.14849928821E+02 -0.17160156629E+02 -0.56615179215E+02  0.60994015108E+02  0.00000000000E+00 0.  1.
</event>
<event>
12    1  0.2614920E-002  0.2090678E+03  0.7818608E-02  0.1142306E+00
         -1   -1    0    0    0  501 -0.00000000000E+00  0.00000000000E+00  0.12081285069E+03  0.12081285069E+03  0.00000000000E+00 0. -1.
          1   -1    0    0  502    0  0.00000000000E+00 -0.00000000000E+00 -0.39421720764E+03  0.39421720764E+03  0.00000000000E+00 0.  1.
          6    2    1    2  502    0  0.17884117385E+02  0.11739455227E+03 -0.21127383839E+03  0.29809534825E+03  0.17355944025E+03 0.  0.
         24    2    3    3    0    0  0.49192717369E+02  0.12874239960E+03 -0.11576254863E+03  0.19683578799E+03  0.79679551143E+02 0.  0.
         -6    2    1    2    0  501 -0.17884117385E+02 -0.11739455227E+03 -0.62130518557E+02  0.21693471007E+03  0.17058471368E+03 0.  0.
        -24    2    5    5    0    0  0.48043529940E+02 -0.46450171710E+02 -0.26921173917E+01  0.10320444432E+03  0.78600958076E+02 0.  0.
          5    1    3    3  502    0 -0.31308599983E+02 -0.11347847328E+02 -0.95511289762E+02  0.10125956026E+03  0.47000000000E+01 0. -1.
        -13    1    4    4    0    0  0.28464153264E+02  0.11511597832E+03 -0.12314143000E+03  0.17095528148E+03  0.00000000000E+00 0.  1.
         14    1    4    4    0    0  0.20728564105E+02  0.13626421286E+02  0.73788813653E+01  0.25880506509E+02  0.00000000000E+00 0. -1.
         -5    1    5    5    0  501 -0.65927647325E+02 -0.70944380563E+02 -0.59438401165E+02  0.11373026575E+03  0.47000000000E+01 0.  1.
         13    1    6    6    0    0  0.42521468856E+02 -0.67074233258E+02  0.70642687382E+01  0.79730370460E+02  0.00000000000E+00 0. -1.
        -14    1    6    6    0    0  0.55220610837E+01  0.20624061547E+02 -0.97563861299E+01  0.23474073861E+02  0.00000000000E+00 0.  1.
</event>
<event>
12    1  0.2614920E-002  0.2110472E+03  0.7818608E-02  0.1140739E+00
          2   -1    0    0  502    0  0.00000000000E+00  0.00000000000E+00  0.24880807622E+04  0.24880807622E+04  0.00000000000E+00 0. -1.
         -2   -1    0    0    0  501 -0.00000000000E+00 -0.00000000000E+00 -0.21691102633E+02  0.21691102633E+02  0.00000000000E+00 0.  1.
          6    2    1    2  502    0  0.72754706741E+02  0.99566239775E+02  0.17557892065E+04  0.17683807300E+04  0.17078637227E+03 0.  0.
         24    2    3    3    0    0  0.48039084950E+02  0.80053250434E+01  0.56711178770E+03  0.57591674349E+03  0.87706765774E+02 0.  0.
         -6    2    1    2    0  501 -0.72754706741E+02 -0.99566239775E+02  0.71060045298E+03  0.74139113480E+03  0.17175892267E+03 0.  0.
        -24    2    5    5    0    0 -0.11500112192E+03 -0.83358164802E+02  0.49801546067E+03  0.52399304316E+03  0.79846531124E+02 0.  0.
          5    1    3    3  502    0  0.24715621791E+02  0.91560914732E+02  0.11886774188E+04  0.11924639865E+04  0.47000000000E+01 0. -1.
        -13    1    4    4    0    0  0.25339365238E+02  0.40557600002E-01  0.34728183825E+02  0.42989903784E+02  0.00000000000E+00 0.  1.
         14    1    4    4    0    0  0.22699719712E+02  0.79647674434E+01  0.53238360388E+03  0.53292683970E+03  0.00000000000E+00 0. -1.
         -5    1    5    5    0  501  0.42246415178E+02 -0.16208074973E+02  0.21258499231E+03  0.21739809163E+03  0.47000000000E+01 0.  1.
         13    1    6    6    0    0 -0.17899827104E+02 -0.40659942386E+02  0.25492641332E+03  0.25876845042E+03  0.00000000000E+00 0. -1.
        -14    1    6    6    0    0 -0.97101294815E+02 -0.42698222416E+02  0.24308904735E+03  0.26522459274E+03  0.00000000000E+00 0.  1.
</event>
<event>
12    1  0.2614920E-002  0.2145274E+03  0.7818608E-02  0.1138030E+00
          2   -1    0    0  502    0  0.00000000000E+00  0.00000000000E+00  0.10438856698E+04  0.10438856698E+04  0.00000000000E+00 0. -1.
         -2   -1    0    0    0  501 -0.00000000000E+00 -0.00000000000E+00 -0.44387347648E+02  0.44387347648E+02  0.00000000000E+00 0.  1.
          6    2    1    2  502    0 -0.35806994448E+02  0.12356512041E+03  0.54467676534E+03  0.58543035877E+03  0.17177149482E+03 0.  0.
         24    2    3    3    0    0  0.30621294099E+02  0.11967057106E+03  0.38292657611E+03  0.41046436564E+03  0.81175880305E+02 0.  0.
         -6    2    1    2    0  501  0.35806994448E+02 -0.12356512041E+03  0.45482155682E+03  0.50284265869E+03  0.17157392288E+03 0.  0.
        -24    2    5    5    0    0  0.41721296114E+02 -0.11203590803E+03  0.19204136370E+03  0.23970121080E+03  0.79272150511E+02 0.  0.
          5    1    3    3  502    0 -0.66428288546E+02  0.38945493522E+01  0.16175018923E+03  0.17496599313E+03  0.47000000000E+01 0. -1.
        -13    1    4    4    0    0 -0.15797628620E+02  0.84199773252E+02  0.18088553383E+03  0.20014680421E+03  0.00000000000E+00 0.  1.
         14    1    4    4    0    0  0.46418922719E+02  0.35470797809E+02  0.20204104228E+03  0.21031756143E+03  0.00000000000E+00 0. -1.
         -5    1    5    5    0  501 -0.59143016660E+01 -0.11529212382E+02  0.26278019312E+03  0.26314144789E+03  0.47000000000E+01 0.  1.
         11    1    6    6    0    0  0.14180174348E+02  0.10100705483E+02  0.15774890301E+02  0.23493589760E+02  0.00000000000E+00 0. -1.
        -12    1    6    6    0    0  0.27541121765E+02 -0.12213661351E+03  0.17626647340E+03  0.21620762104E+03  0.00000000000E+00 0.  1.
</event>
<event>
12    1  0.2614920E-002  0.2239562E+03  0.7818608E-02  0.1130967E+00
         -1   -1    0    0    0  501 -0.00000000000E+00  0.00000000000E+00  0.14794547051E+03  0.14794547051E+03  0.00000000000E+00 0. -1.
          1   -1    0    0  502    0  0.00000000000E+00 -0.00000000000E+00 -0.51240808992E+03  0.51240808992E+03  0.00000000000E+00 0.  1.
          6    2    1    2  502    0  0.97815624615E+02  0.93394164347E+02  0.10857052116E+02  0.22229481522E+03  0.17608731624E+03 0.  0.
         24    2    3    3    0    0  0.27945521660E+02  0.52536762202E+02  0.66250224082E+02  0.12410290060E+03  0.86437111139E+02 0.  0.
         -6    2    1    2    0  501 -0.97815624615E+02 -0.93394164347E+02 -0.37531967153E+03  0.43805874521E+03  0.18094264855E+03 0.  0.
        -24    2    5    5    0    0 -0.36893210435E+02 -0.12370827467E+03 -0.21193603299E+03  0.26100850043E+03  0.80893195132E+02 0.  0.
          5    1    3    3  502    0  0.69870102956E+02  0.40857402145E+02 -0.55393171966E+02  0.98191914624E+02  0.47000000000E+01 0. -1.
        -13    1    4    4    0    0  0.20389795550E+02  0.74418387502E+02  0.65049920964E+02  0.10092240771E+03  0.00000000000E+00 0.  1.
         14    1    4    4    0    0  0.75557261098E+01 -0.21881625300E+02  0.12003031183E+01  0.23180492885E+02  0.00000000000E+00 0. -1.
         -5    1    5    5    0  501 -0.60922414180E+02  0.30314110324E+02 -0.16338363853E+03  0.17705024477E+03  0.47000000000E+01 0.  1.
         11    1    6    6    0    0  0.50279336575E+01 -0.90806317978E+02 -0.90063800920E+02  0.12799435823E+03  0.00000000000E+00 0. -1.
        -12    1    6    6    0    0 -0.41921144092E+02 -0.32901956693E+02 -0.12187223207E+03  0.13301414221E+03  0.00000000000E+00 0.  1.
</event>
<event>
12    1  0.2614920E-002  0.2010561E+03  0.7818608E-02  0.1148851E+00
         -2   -1    0    0    0  501 -0.00000000000E+00  0.00000000000E+00  0.30869106430E+02  0.30869106430E+02  0.00000000000E+00 0. -1.
          2   -1    0    0  502    0  0.00000000000E+00 -0.00000000000E+00 -0.16340607796E+04  0.16340607796E+04  0.00000000000E+00 0.  1.
          6    2    1    2  502    0  0.80126498843E+02  0.68035469768E+02 -0.11746659576E+04  0.11918585118E+04  0.17215550886E+03 0.  0.
         24    2    3    3    0    0  0.44054591087E+02  0.86550373906E+02 -0.11033595242E+04  0.11096959799E+04  0.67758054234E+02 0.  0.
         -6    2    1    2    0  501 -0.80126498843E+02 -0.68035469768E+02 -0.42852571561E+03  0.47307137427E+03  0.17062577547E+03 0.  0.
        -24    2    5    5    0    0  0.38874226059E+01 -0.56155381835E+02 -0.11825967118E+03  0.15137806720E+03  0.75904087107E+02 0.  0.
          5    1    3    3  502    0  0.36071907756E+02 -0.18514904138E+02 -0.71306433348E+02  0.82162531857E+02  0.47000000000E+01 0. -1.
        -13    1    4    4    0    0 -0.90965345477E+01  0.45173736610E+02 -0.30009871937E+03  0.30361596596E+03  0.00000000000E+00 0.  1.
         14    1    4    4    0    0  0.53151125635E+02  0.41376637296E+02 -0.80326080486E+03  0.80608001395E+03  0.00000000000E+00 0. -1.
         -5    1    5    5    0  501 -0.84013921449E+02 -0.11880087934E+02 -0.31026604443E+03  0.32169330707E+03  0.47000000000E+01 0.  1.
         13    1    6    6    0    0 -0.31042644691E+01 -0.74652676220E+02 -0.94242553259E+02  0.12026769046E+03  0.00000000000E+00 0. -1.
        -14    1    6    6    0    0  0.69916870750E+01  0.18497294386E+02 -0.24017117917E+02  0.31110376738E+02  0.00000000000E+00 0.  1.
</event>
<event>
12    1  0.2614920E-002  0.3354665E+03  0.7818608E-02  0.1068743E+00
         -1   -1    0    0    0  501 -0.00000000000E+00  0.00000000000E+00  0.25867493582E+03  0.25867493582E+03  0.00000000000E+00 0.  1.
          1   -1    0    0  502    0  0.00000000000E+00 -0.00000000000E+00 -0.63758456654E+03  0.63758456654E+03  0.00000000000E+00 0. -1.
          6    2    1    2  502    0  0.24054782144E+03 -0.15798398040E+03  0.63148097421E+02  0.34127074586E+03  0.17220873181E+03 0.  0.
         24    2    3    3    0    0  0.15959499095E+03 -0.17633680979E+03  0.33552978429E+02  0.25302026043E+03  0.79550098703E+02 0.  0.
         -6    2    1    2    0  501 -0.24054782144E+03  0.15798398040E+03 -0.44205772814E+03  0.55498875650E+03  0.17255518644E+03 0.  0.
        -24    2    5    5    0    0 -0.36001779347E+02  0.31786636855E+02 -0.13015938740E+03  0.16120262443E+03  0.82087158529E+02 0.  0.
          5    1    3    3  502    0  0.80952830494E+02  0.18352829390E+02  0.29595118992E+02  0.88250485436E+02  0.47000000000E+01 0. -1.
        -13    1    4    4    0    0  0.79597053638E+02 -0.73037502986E+02 -0.23332930859E+02  0.11051965188E+03  0.00000000000E+00 0.  1.
         14    1    4    4    0    0  0.79997937309E+02 -0.10329930680E+03  0.56885909288E+02  0.14250060854E+03  0.00000000000E+00 0. -1.
         -5    1    5    5    0  501 -0.20454604209E+03  0.12619734355E+03 -0.31189834074E+03  0.39378613207E+03  0.47000000000E+01 0.  1.
         11    1    6    6    0    0 -0.32684731603E+02  0.31320645651E+02 -0.17563115503E+02  0.48556539726E+02  0.00000000000E+00 0. -1.
        -12    1    6    6    0    0 -0.33170477432E+01  0.46599120364E+00 -0.11259627190E+03  0.11264608470E+03  0.00000000000E+00 0.  1.
</event>
<event>
12    1  0.2614920E-002  0.3097961E+03  0.7818608E-02  0.1080444E+00
          2   -1    0    0  502    0  0.00000000000E+00  0.00000000000E+00  0.78885584767E+03  0.78885584767E+03  0.00000000000E+00 0. -1.
         -2   -1    0    0    0  501 -0.00000000000E+00 -0.00000000000E+00 -0.13344588390E+03  0.13344588390E+03  0.00000000000E+00 0.  1.
          6    2    1    2  502    0 -0.12722975742E+03  0.22344134088E+03  0.46487424224E+03  0.55871879348E+03  0.17304677145E+03 0.  0.
         24    2    3    3    0    0 -0.27290541312E+01  0.12083068517E+03  0.24350070727E+03  0.28475218280E+03  0.84756763477E+02 0.  0.
         -6    2    1    2    0  501  0.12722975742E+03 -0.22344134088E+03  0.19053572154E+03  0.36358293808E+03  0.17255505700E+03 0.  0.
        -24    2    5    5    0    0  0.14811538411E+03 -0.12780731226E+03  0.13550783298E+03  0.25118972054E+03  0.80380512741E+02 0.  0.
          5    1    3    3  502    0 -0.12450070329E+03  0.10261065570E+03  0.22137353497E+03  0.27396661068E+03  0.47000000000E+01 0. -1.
        -13    1    4    4    0    0 -0.29058401590E+02  0.59097628965E+02  0.58981302661E+02  0.88406529826E+02  0.00000000000E+00 0.  1.
         14    1    4    4    0    0  0.26329347459E+02  0.61733056207E+02  0.18451940461E+03  0.19634565298E+03  0.00000000000E+00 0. -1.
         -5    1    5    5    0  501 -0.20885626685E+02 -0.95634028616E+02  0.55027888560E+02  0.11239321755E+03  0.47000000000E+01 0.  1.
         11    1    6    6    0    0  0.89820912745E+02 -0.44484649945E+02  0.10467946608E+03  0.14492919328E+03  0.00000000000E+00 0. -1.
        -12    1    6    6    0    0  0.58294471361E+02 -0.83322662315E+02  0.30828366901E+02  0.10626052725E+03  0.00000000000E+00 0.  1.
</event>
<event>
12    1  0.2614920E-002  0.1794967E+03  0.7818608E-02  0.1168291E+00
         -2   -1    0    0    0  501 -0.00000000000E+00  0.00000000000E+00  0.19641860149E+03  0.19641860149E+03  0.00000000000E+00 0.  1.
          2   -1    0    0  502    0  0.00000000000E+00 -0.00000000000E+00 -0.80199434109E+03  0.80199434109E+03  0.00000000000E+00 0. -1.
          6    2    1    2  502    0  0.46226579219E+02  0.22136273596E+02 -0.74965829029E+03  0.77203385143E+03  0.17726196522E+03 0.  0.
         24    2    3    3    0    0 -0.14544780201E+02  0.52499732345E+02 -0.26609210003E+03  0.28369641879E+03  0.81919959767E+02 0.  0.
         -6    2    1    2    0  501 -0.46226579219E+02 -0.22136273596E+02  0.14408255069E+03  0.22637909115E+03  0.16691554829E+03 0.  0.
        -24    2    5    5    0    0 -0.54838993034E+02  0.37713818067E+02  0.12067169977E+03  0.16136859134E+03  0.83955440068E+02 0.  0.
          5    1    3    3  502    0  0.60771359419E+02 -0.30363458749E+02 -0.48356619027E+03  0.48833743265E+03  0.47000000000E+01 0. -1.
        -13    1    4    4    0    0 -0.41527118863E+02  0.11272854308E+02 -0.17411467985E+03  0.17935300550E+03  0.00000000000E+00 0.  1.
         14    1    4    4    0    0  0.26982338662E+02  0.41226878038E+02 -0.91977420180E+02  0.10434341328E+03  0.00000000000E+00 0. -1.
         -5    1    5    5    0  501  0.86124138152E+01 -0.59850091664E+02  0.23410850926E+02  0.65010499806E+02  0.47000000000E+01 0.  1.
         11    1    6    6    0    0  0.18054902978E+02  0.25068876564E+02  0.21489048634E+02  0.37632529876E+02  0.00000000000E+00 0. -1.
        -12    1    6    6    0    0 -0.72893896012E+02  0.12644941504E+02  0.99182651132E+02  0.12373606147E+03  0.00000000000E+00 0.  1.
</event>
<event>
12    1  0.2614920E-002  0.2482483E+03  0.7818608E-02  0.1114417E+00
          1   -1    0    0  502    0  0.00000000000E+00  0.00000000000E+00  0.30342361761E+03  0.30342361761E+03  0.00000000000E+00 0.  1.
         -1   -1    0    0    0  501 -0.00000000000E+00 -0.00000000000E+00 -0.21350956735E+03  0.21350956735E+03  0.00000000000E+00 0. -1.
          6    2    1    2  502    0 -0.63983321704E+02 -0.16746467354E+03  0.10195674180E+03  0.26808594683E+03  0.17127934886E+03 0.  0.
         24    2    3    3    0    0  0.66063464912E+01 -0.63756964509E+02 -0.37417079471E+01  0.10397487941E+03  0.81781298796E+02 0.  0.
         -6    2    1    2    0  501  0.63983321704E+02  0.16746467354E+03 -0.12042691539E+02  0.24884723813E+03  0.17216747418E+03 0.  0.
        -24    2    5    5    0    0  0.74790511030E+02  0.19192272659E+03 -0.10877184664E+02  0.22167298366E+03  0.81195104620E+02 0.  0.
          5    1    3    3  502    0 -0.70589668196E+02 -0.10370770904E+03  0.10569844975E+03  0.16411106742E+03  0.47000000000E+01 0. -1.
        -13    1    4    4    0    0  0.44306359450E+02 -0.35521719859E+02 -0.30255058549E+01  0.56868266680E+02  0.00000000000E+00 0.  1.
         14    1    4    4    0    0 -0.37700012959E+02 -0.28235244649E+02 -0.71620209222E+00  0.47106612731E+02  0.00000000000E+00 0. -1.
         -5    1    5    5    0  501 -0.10807189326E+02 -0.24458053047E+02 -0.11655068752E+01  0.27174254475E+02  0.47000000000E+01 0.  1.
         13    1    6    6    0    0  0.74924537044E+00  0.57145548426E+02 -0.33495113350E+02  0.66242718029E+02  0.00000000000E+00 0. -1.
        -14    1    6    6    0    0  0.74041265660E+02  0.13477717817E+03  0.22617928686E+02  0.15543026563E+03  0.00000000000E+00 0.  1.
</event>
<event>
12    1  0.2614920E-002  0.2415625E+03  0.7818608E-02  0.1118756E+00
         -2   -1    0    0    0  501 -0.00000000000E+00  0.00000000000E+00  0.41509811456E+02  0.41509811456E+02  0.00000000000E+00 0.  1.
          2   -1    0    0  502    0  0.00000000000E+00 -0.00000000000E+00 -0.17451165906E+04  0.17451165906E+04  0.00000000000E+00 0. -1.
          6    2    1    2  502    0 -0.15183979362E+03  0.77331145288E+02 -0.45643481275E+03  0.51617951313E+03  0.17050842362E+03 0.  0.
         24    2    3    3    0    0 -0.67673045414E+02  0.40510105718E+02 -0.10603842497E+03  0.15390951847E+03  0.78887784642E+02 0.  0.
         -6    2    1    2    0  501  0.15183979362E+03 -0.77331145288E+02 -0.12471719664E+04  0.12704468889E+04  0.17193590339E+03 0.  0.
        -24    2    5    5    0    0  0.11321287737E+02 -0.56855256545E+02 -0.55317707238E+03  0.56205736654E+03  0.80888306458E+02 0.  0.
          5    1    3    3  502    0 -0.84166748201E+02  0.36821039571E+02 -0.35039638778E+03  0.36226999465E+03  0.47000000000E+01 0. -1.
        -13    1    4    4    0    0 -0.83837219517E+02  0.26733636724E+02 -0.71586305522E+02  0.11343705676E+03  0.00000000000E+00 0.  1.
         14    1    4    4    0    0  0.16164174103E+02  0.13776468994E+02 -0.34452119450E+02  0.40472461711E+02  0.00000000000E+00 0. -1.
         -5    1    5    5    0  501  0.14051850588E+03 -0.20475888743E+02 -0.69399489401E+03  0.70838952239E+03  0.47000000000E+01 0.  1.
         11    1    6    6    0    0  0.44336765592E+02 -0.47631648241E+02 -0.37736754767E+03  0.38293705584E+03  0.00000000000E+00 0. -1.
        -12    1    6    6    0    0 -0.33015477854E+02 -0.92236083047E+01 -0.17580952471E+03  0.17912031071E+03  0.00000000000E+00 0.  1.
</event>
<event>
12    1  0.2614920E-002  0.3298036E+03  0.7818608E-02  0.1071224E+00
         -2   -1    0    0    0  501 -0.00000000000E+00  0.00000000000E+00  0.77758238931E+02  0.77758238931E+02  0.00000000000E+00 0.  1.
          2   -1    0    0  502    0  0.00000000000E+00 -0.00000000000E+00 -0.14158064342E+04  0.14158064342E+04  0.00000000000E+00 0. -1.
          6    2    1    2  502    0  0.16838102690E+03  0.22556182754E+03 -0.58787443748E+03  0.67422037289E+03  0.17247158812E+03 0.  0.
         24    2    3    3    0    0  0.16550984780E+03  0.23553495799E+03 -0.47592762714E+03  0.56169532969E+03  0.78257977058E+02 0.  0.
         -6    2    1    2    0  501 -0.16838102690E+03 -0.22556182754E+03 -0.75017375775E+03  0.81934430020E+03  0.17127202689E+03 0.  0.
        -24    2    5    5    0    0 -0.11973330921E+03 -0.10488902304E+03 -0.57027712417E+03  0.59727806018E+03  0.78659458028E+02 0.  0.
          5    1    3    3  502    0  0.28711791039E+01 -0.99731304413E+01 -0.11194681034E+03  0.11252504319E+03  0.47000000000E+01 0. -1.
        -13    1    4    4    0    0  0.11138579497E+03  0.13793509869E+03 -0.22039543128E+03  0.28285514473E+03  0.00000000000E+00 0.  1.
         14    1    4    4    0    0  0.54124052826E+02  0.97599859299E+02 -0.25553219586E+03  0.27884018496E+03  0.00000000000E+00 0. -1.
         -5    1    5    5    0  501 -0.48647717687E+02 -0.12067280451E+03 -0.17989663358E+03  0.22206624002E+03  0.47000000000E+01 0.  1.
         11    1    6    6    0    0  0.11347211835E+02 -0.43090578784E+01 -0.46610644849E+02  0.48165126487E+02  0.00000000000E+00 0. -1.
        -12    1    6    6    0    0 -0.13108052105E+03 -0.10057996516E+03 -0.52366647932E+03  0.54911293369E+03  0.00000000000E+00 0.  1.
</event>
<event>
12    1  0.2614920E-002  0.2524621E+03  0.7818608E-02  0.1111759E+00
         -1   -1    0    0    0  501 -0.00000000000E+00  0.00000000000E+00  0.17771417075E+03  0.17771417075E+03  0.00000000000E+00 0.  1.
          1   -1    0    0  502    0  0.00000000000E+00 -0.00000000000E+00 -0.83851660724E+03  0.83851660724E+03  0.00000000000E+00 0. -1.
          6    2    1    2  502    0 -0.13987888364E+03  0.12044305189E+03  0.53923129099E+02  0.25826330921E+03  0.17239374175E+03 0.  0.
         24    2    3    3    0    0 -0.49408541340E+02  0.59659218045E+02  0.87021772975E+02  0.14425818862E+03  0.85071791789E+02 0.  0.
         -6    2    1    2    0  501  0.13987888364E+03 -0.12044305189E+03 -0.71472556559E+03  0.75796746879E+03  0.17207387596E+03 0.  0.
        -24    2    5    5    0    0  0.14550389003E+02 -0.21894329012E+02 -0.15917740658E+03  0.17997531543E+03  0.79765856969E+02 0.  0.
          5    1    3    3  502    0 -0.90470342304E+02  0.60783833844E+02 -0.33098643876E+02  0.11400512059E+03  0.47000000000E+01 0. -1.
        -13    1    4    4    0    0 -0.68571693621E+02  0.42705016256E+02  0.38685729969E+02  0.89567746889E+02  0.00000000000E+00 0.  1.
         14    1    4    4    0    0  0.19163152281E+02  0.16954201790E+02  0.48336043007E+02  0.54690441736E+02  0.00000000000E+00 0. -1.
         -5    1    5    5    0  501  0.12532849464E+03 -0.98548722877E+02 -0.55554815902E+03  0.57799215335E+03  0.47000000000E+01 0.  1.
         11    1    6    6    0    0 -0.13526573734E+02 -0.39197943036E+02 -0.12815704141E+03  0.13469845656E+03  0.00000000000E+00 0. -1.
        -12    1    6    6    0    0  0.28076962737E+02  0.17303614024E+02 -0.31020365164E+02  0.45276858876E+02  0.00000000000E+00 0.  1.
</event>
<event>
12    1  0.2614920E-002  0.2187517E+03  0.7818608E-02  0.1134817E+00
         -1   -1    0    0    0  501 -0.00000000000E+00  0.00000000000E+00  0.48986445473E+03  0.48986445473E+03  0.00000000000E+00 0.  1.
          1   -1    0    0  502    0  0.00000000000E+00 -0.00000000000E+00 -0.10299763760E+03  0.10299763760E+03  0.00000000000E+00 0. -1.
          6    2    1    2  502    0 -0.12065515247E+03 -0.59263676939E+02  0.25985189663E+03  0.33898822960E+03  0.17123131256E+03 0.  0.
         24    2    3    3    0    0 -0.76040562230E+02 -0.10562943191E+03  0.18499637352E+03  0.24016675300E+03  0.80725875910E+02 0.  0.
         -6    2    1    2    0  501  0.12065515247E+03  0.59263676939E+02  0.12701492049E+03  0.25387386273E+03  0.17392325585E+03 0.  0.
        -24    2    5    5    0    0  0.47349855897E+02  0.38049076943E+01 -0.67171109106E+01  0.91529513223E+02  0.77948996375E+02 0.  0.
          5    1    3    3  502    0 -0.44614590244E+02  0.46365754972E+02  0.74855523110E+02  0.98821476597E+02  0.47000000000E+01 0. -1.
        -13    1    4    4    0    0 -0.35773255243E+02 -0.13495921629E+02  0.10478815955E+03  0.11154561431E+03  0.00000000000E+00 0.  1.
         14    1    4    4    0    0 -0.40267306987E+02 -0.92133510282E+02  0.80208213978E+02  0.12862113869E+03  0.00000000000E+00 0. -1.
         -5    1    5    5    0  501  0.73305296577E+02  0.55458769244E+02  0.13373203141E+03  0.16234434950E+03  0.47000000000E+01 0.  1.
         13    1    6    6    0    0 -0.19542733858E+02  0.87987993519E+01  0.79621839870E+01  0.22863370061E+02  0.00000000000E+00 0. -1.
        -14    1    6    6    0    0  0.66892589755E+02 -0.49938916576E+01 -0.14679294898E+02  0.68666143162E+02  0.00000000000E+00 0.  1.
</event>
<event>
12    1  0.2614920E-002  0.2140361E+03  0.7818608E-02  0.1138409E+00
          1   -1    0    0  502    0  0.00000000000E+00  0.00000000000E+00  0.53475568164E+03  0.53475568164E+03  0.00000000000E+00 0.  1.
         -1   -1    0    0    0  501 -0.00000000000E+00 -0.00000000000E+00 -0.12074851587E+03  0.12074851587E+03  0.00000000000E+00 0. -1.
          6    2    1    2  502    0  0.11047147167E+03  0.67558459940E+02  0.38411454478E+03  0.44004478941E+03  0.17125227478E+03 0.  0.
         24    2    3    3    0    0  0.23033241490E+01  0.16809163166E+02  0.21417557523E+03  0.23225358981E+03  0.88219610555E+02 0.  0.
         -6    2    1    2    0  501 -0.11047147167E+03 -0.67558459940E+02  0.29892620987E+02  0.21545940809E+03  0.16959096728E+03 0.  0.
        -24    2    5    5    0    0 -0.45665654060E+02 -0.35598753463E+02 -0.48411039034E+02  0.10880684128E+03  0.78375230785E+02 0.  0.
          5    1    3    3  502    0  0.10816814752E+03  0.50749296773E+02  0.16993896955E+03  0.20779119960E+03  0.47000000000E+01 0. -1.
        -13    1    4    4    0    0 -0.11117829725E+02  0.11531373997E+01  0.21110995618E+03  0.21140565144E+03  0.00000000000E+00 0.  1.
         14    1    4    4    0    0  0.13421153874E+02  0.15656025766E+02  0.30656190525E+01  0.20847938370E+02  0.00000000000E+00 0. -1.
         -5    1    5    5    0  501 -0.64805817606E+02 -0.31959706476E+02  0.78303660021E+02  0.10665256681E+03  0.47000000000E+01 0.  1.
         11    1    6    6    0    0 -0.58751841108E+02 -0.10374516280E+02 -0.53264970494E+02  0.79978537767E+02  0.00000000000E+00 0. -1.
        -12    1    6    6    0    0  0.13086187048E+02 -0.25224237183E+02  0.48539314600E+01  0.28828303515E+02  0.00000000000E+00 0.  1.
</event>
<event>
12    1  0.2614920E-002  0.1993089E+03  0.7818608E-02  0.1150323E+00
          2   -1    0    0  502    0  0.00000000000E+00  0.00000000000E+00  0.42459458417E+03  0.42459458417E+03  0.00000000000E+00 0.  1.
         -2   -1    0    0    0  501 -0.00000000000E+00 -0.00000000000E+00 -0.10307336142E+03  0.10307336142E+03  0.00000000000E+00 0. -1.
          6    2    1    2  502    0 -0.57109040987E+02 -0.84276505322E+02  0.80929859184E+02  0.21553294048E+03  0.17187447283E+03 0.  0.
         24    2    3    3    0    0  0.25480342034E+02 -0.61586391232E+02  0.78596926239E+02  0.12972280097E+03  0.78793380834E+02 0.  0.
         -6    2    1    2    0  501  0.57109040987E+02  0.84276505322E+02  0.24059136357E+03  0.31213500511E+03  0.17082179392E+03 0.  0.
        -24    2    5    5    0    0  0.18554308035E+02  0.23206929116E+02  0.35619242152E+02  0.94760624997E+02  0.82631844544E+02 0.  0.
          5    1    3    3  502    0 -0.82589383021E+02 -0.22690114090E+02  0.23329329454E+01  0.85810139502E+02  0.47000000000E+01 0. -1.
        -13    1    4    4    0    0  0.11755353659E+02  0.18379687252E+02  0.13083352171E+02  0.25439641254E+02  0.00000000000E+00 0.  1.
         14    1    4    4    0    0  0.13724988375E+02 -0.79966078484E+02  0.65513574068E+02  0.10428315972E+03  0.00000000000E+00 0. -1.
         -5    1    5    5    0  501  0.38554732952E+02  0.61069576206E+02  0.20497212142E+03  0.21737438011E+03  0.47000000000E+01 0.  1.
         13    1    6    6    0    0 -0.20219506981E+02 -0.20396856718E+02  0.60680195968E+01  0.29354404923E+02  0.00000000000E+00 0. -1.
        -14    1    6    6    0    0  0.38773815016E+02  0.43603785834E+02  0.29551222555E+02  0.65406220075E+02  0.00000000000E+00 0.  1.
</event>
<event>
12    1  0.2614920E-002  0.2316931E+03  0.7818608E-02  0.1125454E+00
          1   -1    0    0  502    0  0.00000000000E+00  0.00000000000E+00  0.30288115508E+04  0.30288115508E+04  0.00000000000E+00 0. -1.
         -1   -1    0    0    0  501 -0.00000000000E+00 -0.00000000000E+00 -0.33962260265E+02  0.33962260265E+02  0.00000000000E+00 0.  1.
          6    2    1    2  502    0  0.12212989319E+03 -0.87955427140E+02  0.44771117197E+03  0.50536093308E+03  0.17970117197E+03 0.  0.
         24    2    3    3    0    0  0.22173033728E+02  0.71920795067E+01  0.25364287072E+03  0.26718239223E+03  0.80674378938E+02 0.  0.
         -6    2    1    2    0  501 -0.12212989319E+03  0.87955427140E+02  0.25471381185E+04  0.25574128780E+04  0.17261565814E+03 0.  0.
        -24    2    5    5    0    0 -0.10554979471E+02  0.17551084549E+02  0.58332748459E+03  0.58916999943E+03  0.80192803894E+02 0.  0.
          5    1    3    3  502    0  0.99956859461E+02 -0.95147506646E+02  0.19406830125E+03  0.23817854086E+03  0.47000000000E+01 0. -1.
        -13    1    4    4    0    0  0.39656909491E+02 -0.16309343541E+02  0.77062107746E+02  0.88188625158E+02  0.00000000000E+00 0.  1.
         14    1    4    4    0    0 -0.17483875763E+02  0.23501423048E+02  0.17658076298E+03  0.17899376707E+03  0.00000000000E+00 0. -1.
         -5    1    5    5    0  501 -0.11157491372E+03  0.70404342591E+02  0.19638106340E+04  0.19682428785E+04  0.47000000000E+01 0.  1.
         11    1    6    6    0    0  0.24096212664E+02  0.15727490460E+02  0.46422274157E+03  0.46511367988E+03  0.00000000000E+00 0. -1.
        -12    1    6    6    0    0 -0.34651192135E+02  0.18235940887E+01  0.11910474302E+03  0.12405631955E+03  0.00000000000E+00 0.  1.
</event>
<event>
12    1  0.2614920E-002  0.2380306E+03  0.7818608E-02  0.1121112E+00
         -1   -1    0    0    0  501 -0.00000000000E+00  0.00000000000E+00  0.55952833681E+02  0.55952833681E+02  0.00000000000E+00 0. -1.
          1   -1    0    0  502    0  0.00000000000E+00 -0.00000000000E+00 -0.12815310462E+04  0.12815310462E+04  0.00000000000E+00 0.  1.
          6    2    1    2  502    0 -0.36625616010E+02  0.16014535328E+03 -0.91872454868E+03  0.94900936485E+03  0.17197676677E+03 0.  0.
         24    2    3    3    0    0 -0.11158055084E+02  0.15986753024E+03 -0.89906252614E+03  0.91649230817E+03  0.77217845076E+02 0.  0.
         -6    2    1    2    0  501  0.36625616010E+02 -0.16014535328E+03 -0.30685366383E+03  0.38847451502E+03  0.17252625275E+03 0.  0.
        -24    2    5    5    0    0  0.21918178119E+02 -0.16992402086E+03 -0.18085760306E+03  0.26115983245E+03  0.78360743373E+02 0.  0.
          5    1    3    3  502    0 -0.25467560926E+02  0.27782304308E+00 -0.19662022532E+02  0.32517056682E+02  0.47000000000E+01 0. -1.
        -11    1    4    4    0    0 -0.17747994434E+02  0.19350498508E+02 -0.29948480866E+03  0.30063363704E+03  0.00000000000E+00 0.  1.
         12    1    4    4    0    0  0.65899393498E+01  0.14051703173E+03 -0.59957771748E+03  0.61585867113E+03  0.00000000000E+00 0. -1.
         -5    1    5    5    0  501  0.14707437892E+02  0.97786675774E+01 -0.12599606077E+03  0.12731468258E+03  0.47000000000E+01 0.  1.
         13    1    6    6    0    0 -0.51104136088E+01 -0.97241658729E+02 -0.51030800557E+02  0.10993725085E+03  0.00000000000E+00 0. -1.
        -14    1    6    6    0    0  0.27028591727E+02 -0.72682362128E+02 -0.12982680250E+03  0.15122258159E+03  0.00000000000E+00 0.  1.
</event>
<event>
12    1  0.2614920E-002  0.1829290E+03  0.7818608E-02  0.1164998E+00
          2   -1    0    0  502    0  0.00000000000E+00  0.00000000000E+00  0.14617022501E+04  0.14617022501E+04  0.00000000000E+00 0.  1.
         -2   -1    0    0    0  501 -0.00000000000E+00 -0.00000000000E+00 -0.25147193083E+02  0.25147193083E+02  0.00000000000E+00 0. -1.
          6    2    1    2  502    0 -0.53282409489E+02  0.42648166843E+02  0.50074695367E+03  0.53359451585E+03  0.17122416430E+03 0.  0.
         24    2    3    3    0    0 -0.92614283763E+02  0.63651125394E+02  0.38825378463E+03  0.41249569801E+03  0.82357927827E+02 0.  0.
         -6    2    1    2    0  501  0.53282409489E+02 -0.42648166843E+02  0.93580810335E+03  0.95325492734E+03  0.16822683763E+03 0.  0.
        -24    2    5    5    0    0 -0.24297662711E+01 -0.40790766869E+02  0.81663439366E+03  0.82160478664E+03  0.80454347958E+02 0.  0.
          5    1    3    3  502    0  0.39331874275E+02 -0.21002958551E+02  0.11249316904E+03  0.12109881784E+03  0.47000000000E+01 0. -1.
        -11    1    4    4    0    0 -0.19999003672E+02  0.62818510161E+02  0.16307326350E+03  0.17589489656E+03  0.00000000000E+00 0.  1.
         12    1    4    4    0    0 -0.72615280091E+02  0.83261523259E+00  0.22518052114E+03  0.23660080146E+03  0.00000000000E+00 0. -1.
         -5    1    5    5    0  501  0.55712175760E+02 -0.18573999739E+01  0.11917370970E+03  0.13165014070E+03  0.47000000000E+01 0.  1.
         11    1    6    6    0    0  0.32334970350E+01  0.23798300018E+02  0.16254246731E+03  0.16430723741E+03  0.00000000000E+00 0. -1.
        -12    1    6    6    0    0 -0.56632633062E+01 -0.64589066886E+02  0.65409192635E+03  0.65729754923E+03  0.00000000000E+00 0.  1.
</event>
<event>
12    1  0.2614920E-002  0.2124480E+03  0.7818608E-02  0.1139642E+00
         -2   -1    0    0    0  501 -0.00000000000E+00  0.00000000000E+00  0.64674304795E+02  0.64674304795E+02  0.00000000000E+00 0.  1.
          2   -1    0    0  502    0  0.00000000000E+00 -0.00000000000E+00 -0.10194783750E+04  0.10194783750E+04  0.00000000000E+00 0. -1.
          6    2    1    2  502    0  0.12695955178E+03  0.26010131844E+02 -0.16728074424E+03  0.26747904607E+03  0.16360604495E+03 0.  0.
         24    2    3    3    0    0  0.11260985779E+03  0.30405457721E+02 -0.49726852403E+02  0.14887786524E+03  0.78015299639E+02 0.  0.
         -6    2    1    2    0  501 -0.12695955178E+03 -0.26010131844E+02 -0.78752332597E+03  0.81667363373E+03  0.17311146798E+03 0.  0.
        -24    2    5    5    0    0 -0.47812543057E+02  0.45418471242E+02 -0.48430042665E+03  0.49521988745E+03  0.79667790668E+02 0.  0.
          5    1    3    3  502    0  0.14349693984E+02 -0.43953258771E+01 -0.11755389184E+03  0.11860118083E+03  0.47000000000E+01 0. -1.
        -11    1    4    4    0    0  0.40697791412E+02 -0.19430239043E+02  0.54707291134E+01  0.45428771634E+02  0.00000000000E+00 0.  1.
         12    1    4    4    0    0  0.71912066380E+02  0.49835696764E+02 -0.55197581516E+02  0.10344909361E+03  0.00000000000E+00 0. -1.
         -5    1    5    5    0  501 -0.79147008719E+02 -0.71428603085E+02 -0.30322289932E+03  0.32145374628E+03  0.47000000000E+01 0.  1.
         11    1    6    6    0    0 -0.64965178989E+02  0.53433308715E+02 -0.37794852105E+03  0.38719591620E+03  0.00000000000E+00 0. -1.
        -12    1    6    6    0    0  0.17152635932E+02 -0.80148374739E+01 -0.10635190560E+03  0.10802397125E+03  0.00000000000E+00 0.  1.
</event>
<event>
12    1  0.2614920E-002  0.2245417E+03  0.7818608E-02  0.1130542E+00
         -2   -1    0    0    0  501 -0.00000000000E+00  0.00000000000E+00  0.38891724039E+02  0.38891724039E+02  0.00000000000E+00 0.  1.
          2   -1    0    0  502    0  0.00000000000E+00 -0.00000000000E+00 -0.13822407391E+04  0.13822407391E+04  0.00000000000E+00 0. -1.
          6    2    1    2  502    0  0.93858496375E+02 -0.11249236462E+03 -0.84581098840E+03  0.87484318303E+03  0.16879104640E+03 0.  0.
         24    2    3    3    0    0  0.87512750983E+01 -0.59738104453E+02 -0.61666561628E+03  0.62473132276E+03  0.79796725485E+02 0.  0.
         -6    2    1    2    0  501 -0.93858496375E+02  0.11249236462E+03 -0.49753802664E+03  0.54628928010E+03  0.17153407869E+03 0.  0.
        -24    2    5    5    0    0  0.14890733552E+02  0.50618571113E+02 -0.16366005475E+03  0.18970639850E+03  0.80124468321E+02 0.  0.
          5    1    3    3  502    0  0.85107221277E+02 -0.52754260170E+02 -0.22914537212E+03  0.25011186026E+03  0.47000000000E+01 0. -1.
        -13    1    4    4    0    0  0.26911654938E+01 -0.20819609028E+01  0.15955598990E+01  0.37580239897E+01  0.00000000000E+00 0.  1.
         14    1    4    4    0    0  0.60601096046E+01 -0.57656143551E+02 -0.61826117618E+03  0.62097329877E+03  0.00000000000E+00 0. -1.
         -5    1    5    5    0  501 -0.10874922993E+03  0.61873793511E+02 -0.33387797189E+03  0.35658288159E+03  0.47000000000E+01 0.  1.
         11    1    6    6    0    0 -0.19403711320E+02 -0.13187639161E+02 -0.37791660048E+02  0.44481764902E+02  0.00000000000E+00 0. -1.
        -12    1    6    6    0    0  0.34294444872E+02  0.63806210274E+02 -0.12586839470E+03  0.14522463360E+03  0.00000000000E+00 0.  1.
</event>
<event>
12    1  0.2614920E-002  0.2029832E+03  0.7818608E-02  0.1147246E+00
          2   -1    0    0  502    0  0.00000000000E+00  0.00000000000E+00  0.70929859511E+02  0.70929859511E+02  0.00000000000E+00 0.  1.
         -2   -1    0    0    0  501 -0.00000000000E+00 -0.00000000000E+00 -0.87994794260E+03  0.87994794260E+03  0.00000000000E+00 0. -1.
          6    2    1    2  502    0  0.10282225857E+03  0.34510174629E+02 -0.12645530462E+03  0.23857948523E+03  0.17078014432E+03 0.  0.
         24    2    3    3    0    0  0.61095391066E+01  0.60908881963E+02 -0.73779924724E+02  0.12523475662E+03  0.80579455218E+02 0.  0.
         -6    2    1    2    0  501 -0.10282225857E+03 -0.34510174629E+02 -0.68256277847E+03  0.71229831689E+03  0.17237626482E+03 0.  0.
        -24    2    5    5    0    0 -0.21261628203E+02  0.41041697153E+02 -0.35085495277E+03  0.36242349158E+03  0.78199179166E+02 0.  0.
          5    1    3    3  502    0  0.96712719468E+02 -0.26398707334E+02 -0.52675379895E+02  0.11334472861E+03  0.47000000000E+01 0. -1.
        -11    1    4    4    0    0  0.40038118586E+02  0.31721448746E+02 -0.19009226455E+02  0.54503687406E+02  0.00000000000E+00 0.  1.
         12    1    4    4    0    0 -0.33928579479E+02  0.29187433217E+02 -0.54770698269E+02  0.70731069214E+02  0.00000000000E+00 0. -1.
         -5    1    5    5    0  501 -0.81560630372E+02 -0.75551871783E+02 -0.33170782570E+03  0.34987482531E+03  0.47000000000E+01 0.  1.
         11    1    6    6    0    0 -0.24822930175E+01  0.14937816274E+02 -0.31028743435E+03  0.31065671094E+03  0.00000000000E+00 0. -1.
        -12    1    6    6    0    0 -0.18779335185E+02  0.26103880879E+02 -0.40567518422E+02  0.51766780640E+02  0.00000000000E+00 0.  1.
</event>
<event>
12    1  0.2614920E-002  0.1819302E+03  0.7818608E-02  0.1165948E+00
         -2   -1    0    0    0  501 -0.00000000000E+00  0.00000000000E+00  0.39986611396E+02  0.39986611396E+02  0.00000000000E+00 0.  1.
          2   -1    0    0  502    0  0.00000000000E+00 -0.00000000000E+00 -0.15998386634E+04  0.15998386634E+04  0.00000000000E+00 0. -1.
          6    2    1    2  502    0  0.64826706852E+02 -0.16523425815E+02 -0.13536670035E+04  0.13660924059E+04  0.17122669010E+03 0.  0.
         24    2    3    3    0    0  0.72463576967E+02 -0.67758411847E+02 -0.10861826562E+04  0.10935977974E+04  0.79506021668E+02 0.  0.
         -6    2    1    2    0  501 -0.64826706852E+02  0.16523425815E+02 -0.20618504845E+03  0.27373286891E+03  0.16715825972E+03 0.  0.
        -24    2    5    5    0    0 -0.67866775094E+02  0.68949345530E+02 -0.16731985784E+03  0.20823239476E+03  0.77491186509E+02 0.  0.
          5    1    3    3  502    0 -0.76368701149E+01  0.51234986032E+02 -0.26748434734E+03  0.27249460848E+03  0.47000000000E+01 0. -1.
        -11    1    4    4    0    0  0.96113231907E+01 -0.52792460858E+02 -0.29971406775E+03  0.30447979221E+03  0.00000000000E+00 0.  1.
         12    1    4    4    0    0  0.62852253776E+02 -0.14965950989E+02 -0.78646858844E+03  0.78911800517E+03  0.00000000000E+00 0. -1.
         -5    1    5    5    0  501  0.30400682425E+01 -0.52425919714E+02 -0.38865190611E+02  0.65500474151E+02  0.47000000000E+01 0.  1.
         11    1    6    6    0    0 -0.26787514900E+02 -0.14421565902E+02 -0.50425854857E+02  0.58892438867E+02  0.00000000000E+00 0. -1.
        -12    1    6    6    0    0 -0.41079260194E+02  0.83370911431E+02 -0.11689400299E+03  0.14933995589E+03  0.00000000000E+00 0.  1.
</event>
<event>
12    1  0.2614920E-002  0.2525548E+03  0.7818608E-02  0.1111701E+00
          2   -1    0    0  502    0  0.00000000000E+00  0.00000000000E+00  0.12748775130E+03  0.12748775130E+03  0.00000000000E+00 0.  1.
         -2   -1    0    0    0  501 -0.00000000000E+00 -0.00000000000E+00 -0.63922180440E+03  0.63922180440E+03  0.00000000000E+00 0. -1.
          6    2    1    2  502    0  0.18013627701E+03 -0.46061999955E+02 -0.43518888767E+03  0.50355670680E+03  0.17207324858E+03 0.  0.
         24    2    3    3    0    0  0.10801126317E+03 -0.46795606703E+02 -0.14151339245E+03  0.20111672549E+03  0.81028607609E+02 0.  0.
         -6    2    1    2    0  501 -0.18013627701E+03  0.46061999955E+02 -0.76545165430E+02  0.26315284890E+03  0.16976299184E+03 0.  0.
        -24    2    5    5    0    0 -0.11485808485E+03 -0.38787286799E+02 -0.39422226144E+02  0.14974717684E+03  0.78570171086E+02 0.  0.
          5    1    3    3  502    0  0.72125013838E+02  0.73360674831E+00 -0.29367549523E+03  0.30243998131E+03  0.47000000000E+01 0. -1.
        -11    1    4    4    0    0 -0.12735375183E+02 -0.44509879233E+01 -0.23237665073E+02  0.26869874443E+02  0.00000000000E+00 0.  1.
         12    1    4    4    0    0  0.12074663836E+03 -0.42344618780E+02 -0.11827572737E+03  0.17424685105E+03  0.00000000000E+00 0. -1.
         -5    1    5    5    0  501 -0.65278192163E+02  0.84849286754E+02 -0.37122939286E+02  0.11340567206E+03  0.47000000000E+01 0.  1.
         11    1    6    6    0    0  0.12055415218E+02 -0.16758275758E+01 -0.20851643246E+01  0.12348657595E+02  0.00000000000E+00 0. -1.
        -12    1    6    6    0    0 -0.12691350007E+03 -0.37111459223E+02 -0.37337061819E+02  0.13739851924E+03  0.00000000000E+00 0.  1.
</event>
<event>
12    1  0.2614920E-002  0.1822202E+03  0.7818608E-02  0.1165671E+00
          1   -1    0    0  502    0  0.00000000000E+00  0.00000000000E+00  0.27946561146E+04  0.27946561146E+04  0.00000000000E+00 0. -1.
         -1   -1    0    0    0  501 -0.00000000000E+00 -0.00000000000E+00 -0.17152913491E+02  0.17152913491E+02  0.00000000000E+00 0.  1.
          6    2    1    2  502    0 -0.48115600351E+02  0.17295118773E+02  0.21886783738E+04  0.21965893087E+04  0.17910146662E+03 0.  0.
         24    2    3    3    0    0 -0.65465444106E+02 -0.47621703765E+02  0.15383500226E+04  0.15427817948E+04  0.84269350017E+02 0.  0.
         -6    2    1    2    0  501  0.48115600351E+02 -0.17295118773E+02  0.58882482734E+03  0.61521971935E+03  0.17078171346E+03 0.  0.
        -24    2    5    5    0    0  0.76888152175E+02  0.36358743746E+02  0.35727217848E+03  0.37575089905E+03  0.79445468270E+02 0.  0.
          5    1    3    3  502    0  0.17349843756E+02  0.64916822538E+02  0.65032835118E+03  0.65380751393E+03  0.47000000000E+01 0. -1.
        -13    1    4    4    0    0  0.14094063044E+02 -0.33058688433E+02  0.45600640686E+03  0.45742033469E+03  0.00000000000E+00 0.  1.
         14    1    4    4    0    0 -0.79559507151E+02 -0.14563015332E+02  0.10823436157E+04  0.10853614601E+04  0.00000000000E+00 0. -1.
         -5    1    5    5    0  501 -0.28772551824E+02 -0.53653862519E+02  0.23155264886E+03  0.23946882030E+03  0.47000000000E+01 0.  1.
         13    1    6    6    0    0 -0.41048953264E+01 -0.17847578366E+02  0.43687458292E+02  0.47370668469E+02  0.00000000000E+00 0. -1.
        -14    1    6    6    0    0  0.80993047501E+02  0.54206322112E+02  0.31358472018E+03  0.32838023058E+03  0.00000000000E+00 0.  1.
</event>
<event>
12    1  0.2614920E-002  0.2202516E+03  0.7818608E-02  0.1133696E+00
         -1   -1    0    0    0  501 -0.00000000000E+00  0.00000000000E+00  0.91976049056E+02  0.91976049056E+02  0.00000000000E+00 0.  1.
          1   -1    0    0  502    0  0.00000000000E+00 -0.00000000000E+00 -0.66184632149E+03  0.66184632149E+03  0.00000000000E+00 0. -1.
          6    2    1    2  502    0  0.71351980096E+02 -0.12263230787E+03 -0.45742448393E+03  0.50883131110E+03  0.17187890113E+03 0.  0.
         24    2    3    3    0    0  0.11696232891E+03 -0.96430970509E+02 -0.35620925160E+03  0.39466727449E+03  0.76799141722E+02 0.  0.
         -6    2    1    2    0  501 -0.71351980096E+02  0.12263230787E+03 -0.11244578850E+03  0.24499105945E+03  0.16506597427E+03 0.  0.
        -24    2    5    5    0    0 -0.45294094344E+02  0.81547214987E+02 -0.14221517691E+03  0.18776078116E+03  0.79545277328E+02 0.  0.
          5    1    3    3  502    0 -0.45610348815E+02 -0.26201337357E+02 -0.10121523233E+03  0.11416403661E+03  0.47000000000E+01 0. -1.
        -13    1    4    4    0    0  0.26597679443E+02 -0.67580091970E+02 -0.18823056359E+03  0.20175542236E+03  0.00000000000E+00 0.  1.
         14    1    4    4    0    0  0.90364649468E+02 -0.28850878540E+02 -0.16797868801E+03  0.19291185213E+03  0.00000000000E+00 0. -1.
         -5    1    5    5    0  501 -0.26057885752E+02  0.41085092879E+02  0.29769388406E+02  0.57230278287E+02  0.47000000000E+01 0.  1.
         13    1    6    6    0    0 -0.54648666081E+02  0.90193746741E+02 -0.10665980491E+03  0.14999234193E+03  0.00000000000E+00 0. -1.
        -14    1    6    6    0    0  0.93545717370E+01 -0.86465317540E+01 -0.35555372000E+02  0.37768439229E+02  0.00000000000E+00 0.  1.
</event>
<event>
12    1  0.2614920E-002  0.1776770E+03  0.7818608E-02  0.1170070E+00
          2   -1    0    0  502    0  0.00000000000E+00  0.00000000000E+00  0.16337283059E+04  0.16337283059E+04  0.00000000000E+00 0. -1.
         -2   -1    0    0    0  501 -0.00000000000E+00 -0.00000000000E+00 -0.32026386334E+02  0.32026386334E+02  0.00000000000E+00 0.  1.
          6    2    1    2  502    0  0.97211757884E+01  0.45744888472E+02  0.27656063589E+03  0.32876719374E+03  0.17150797730E+03 0.  0.
         24    2    3    3    0    0  0.10562266713E+02  0.14746169060E+02  0.42374203982E+02  0.92489808178E+02  0.80185911940E+02 0.  0.
         -6    2    1    2    0  501 -0.97211757884E+01 -0.45744888472E+02  0.13251412836E+04  0.13369874985E+04  0.17131565410E+03 0.  0.
        -24    2    5    5    0    0  0.62928869223E+01 -0.20712856208E+02  0.12800550871E+04  0.12827850265E+04  0.80794649924E+02 0.  0.
          5    1    3    3  502    0 -0.84109092505E+00  0.30998719412E+02  0.23418643191E+03  0.23627738557E+03  0.47000000000E+01 0. -1.
        -11    1    4    4    0    0  0.40237127756E+02 -0.57729031348E+01  0.38868866229E+02  0.56241813828E+02  0.00000000000E+00 0.  1.
         12    1    4    4    0    0 -0.29674861043E+02  0.20519072195E+02  0.35053377524E+01  0.36247994350E+02  0.00000000000E+00 0. -1.
         -5    1    5    5    0  501 -0.16014062711E+02 -0.25032032264E+02  0.45086196544E+02  0.54202471923E+02  0.47000000000E+01 0.  1.
         13    1    6    6    0    0 -0.38255224750E+01 -0.51115796959E+02  0.72996892777E+03  0.73176642095E+03  0.00000000000E+00 0. -1.
        -14    1    6    6    0    0  0.10118409397E+02  0.30402940751E+02  0.55008615932E+03  0.55101860558E+03  0.00000000000E+00 0.  1.
</event>
<event>
12    1  0.2614920E-002  0.1796508E+03  0.7818608E-02  0.1168141E+00
          1   -1    0    0  502    0  0.00000000000E+00  0.00000000000E+00  0.85739110215E+03  0.85739110215E+03  0.00000000000E+00 0.  1.
         -1   -1    0    0    0  501 -0.00000000000E+00 -0.00000000000E+00 -0.90537688992E+02  0.90537688992E+02  0.00000000000E+00 0. -1.
          6    2    1    2  502    0 -0.52892743514E+02 -0.43731564466E+01  0.74565964991E+03  0.76698470974E+03  0.17158223874E+03 0.  0.
         24    2    3    3    0    0 -0.99544142510E+02 -0.21389964544E+02  0.52562421732E+03  0.54136643392E+03  0.80188721482E+02 0.  0.
         -6    2    1    2    0  501  0.52892743514E+02  0.43731564466E+01  0.21193763242E+02  0.18094408140E+03  0.17168231761E+03 0.  0.
        -24    2    5    5    0    0  0.22774881180E+02 -0.10906799930E+02 -0.53389596825E+02  0.98935970233E+02  0.79373948241E+02 0.  0.
          5    1    3    3  502    0  0.46651398995E+02  0.17016808098E+02  0.22003543259E+03  0.22561827582E+03  0.47000000000E+01 0. -1.
        -11    1    4    4    0    0  0.90747839606E+01 -0.83706291726E+01  0.16419915951E+02  0.20543436336E+02  0.00000000000E+00 0.  1.
         12    1    4    4    0    0 -0.10861892647E+03 -0.13019335372E+02  0.50920430137E+03  0.52082299758E+03  0.00000000000E+00 0. -1.
         -5    1    5    5    0  501  0.30117862334E+02  0.15279956376E+02  0.74583360067E+02  0.82008111168E+02  0.47000000000E+01 0.  1.
         13    1    6    6    0    0  0.44737673284E+02  0.28127930443E+01 -0.57295654578E+02  0.72747255955E+02  0.00000000000E+00 0. -1.
        -14    1    6    6    0    0 -0.21962792104E+02 -0.13719592974E+02  0.39060577527E+01  0.26188714278E+02  0.00000000000E+00 0.  1.
</event>
<event>
12    1  0.2614920E-002  0.1806481E+03  0.7818608E-02  0.1167177E+00
          2   -1    0    0  502    0  0.00000000000E+00  0.00000000000E+00  0.14839326022E+03  0.14839326022E+03  0.00000000000E+00 0.  1.
         -2   -1    0    0    0  501 -0.00000000000E+00 -0.00000000000E+00 -0.22189382290E+03  0.22189382290E+03  0.00000000000E+00 0. -1.
          6    2    1    2  502    0 -0.28734688042E+02 -0.47992544277E+02 -0.54265249592E+02  0.18874833389E+03  0.17190767763E+03 0.  0.
         24    2    3    3    0    0 -0.15512063962E+02  0.40880144384E+02 -0.38055776986E+02  0.97326074130E+02  0.78181277876E+02 0.  0.
         -6    2    1    2    0  501  0.28734688042E+02  0.47992544277E+02 -0.19235313091E+02  0.18153874923E+03  0.17163144700E+03 0.  0.
        -24    2    5    5    0    0  0.50697100965E+02  0.47196431931E+02  0.44301050995E+02  0.11414482564E+03  0.79175494105E+02 0.  0.
          5    1    3    3  502    0 -0.13222624080E+02 -0.88872688661E+02 -0.16209472606E+02  0.91422259759E+02  0.47000000000E+01 0. -1.
        -11    1    4    4    0    0 -0.31951182132E+01 -0.15731050392E+02  0.12569638758E+02  0.20388000033E+02  0.00000000000E+00 0.  1.
         12    1    4    4    0    0 -0.12316945748E+02  0.56611194776E+02 -0.50625415744E+02  0.76938074097E+02  0.00000000000E+00 0. -1.
         -5    1    5    5    0  501 -0.21962412923E+02  0.79611234549E+00 -0.63536364086E+02  0.67393923595E+02  0.47000000000E+01 0.  1.
         13    1    6    6    0    0 -0.10816410020E+02  0.75312539153E+01 -0.14982511828E+02  0.19954703002E+02  0.00000000000E+00 0. -1.
        -14    1    6    6    0    0  0.61513510985E+02  0.39665178016E+02  0.59283562822E+02  0.94190122633E+02  0.00000000000E+00 0.  1.
</event>
<event>
12    1  0.2614920E-002  0.3007558E+03  0.7818608E-02  0.1084863E+00
         -1   -1    0    0    0  501 -0.00000000000E+00  0.00000000000E+00  0.55657695842E+03  0.55657695842E+03  0.00000000000E+00 0.  1.
          1   -1    0    0  502    0  0.00000000000E+00 -0.00000000000E+00 -0.52724928901E+03  0.52724928901E+03  0.00000000000E+00 0. -1.
          6    2    1    2  502    0  0.23773299094E+03 -0.84177931489E+02 -0.43608710462E+03  0.52729343398E+03  0.15576746635E+03 0.  0.
         24    2    3    3    0    0  0.25279339243E+03 -0.72249840131E+02 -0.38103461645E+03  0.46879589976E+03  0.73876099287E+02 0.  0.
         -6    2    1    2    0  501 -0.23773299094E+03  0.84177931489E+02  0.46541477403E+03  0.55653281344E+03  0.17179918925E+03 0.  0.
        -24    2    5    5    0    0 -0.39721846961E+02 -0.18627581979E+02  0.14927870752E+03  0.16956835863E+03  0.67412786581E+02 0.  0.
          5    1    3    3  502    0 -0.15060401487E+02 -0.11928091357E+02 -0.55052488167E+02  0.58497534219E+02  0.47000000000E+01 0. -1.
        -13    1    4    4    0    0  0.77011741605E+02 -0.94845869800E+01 -0.62631157546E+02  0.99716736964E+02  0.00000000000E+00 0.  1.
         14    1    4    4    0    0  0.17578165082E+03 -0.62765253151E+02 -0.31840345890E+03  0.36907916280E+03  0.00000000000E+00 0. -1.
         -5    1    5    5    0  501 -0.19801114398E+03  0.10280551347E+03  0.31613606651E+03  0.38696445481E+03  0.47000000000E+01 0.  1.
         11    1    6    6    0    0 -0.36538221928E+02  0.79858804101E+01  0.13311318478E+03  0.13826762423E+03  0.00000000000E+00 0. -1.
        -12    1    6    6    0    0 -0.31836250329E+01 -0.26613462390E+02  0.16165522734E+02  0.31300734400E+02  0.00000000000E+00 0.  1.
</event>
<event>
12    1  0.2614920E-002  0.1934567E+03  0.7818608E-02  0.1155380E+00
         -2   -1    0    0    0  501 -0.00000000000E+00  0.00000000000E+00  0.30466594751E+02  0.30466594751E+02  0.00000000000E+00 0.  1.
          2   -1    0    0  502    0  0.00000000000E+00 -0.00000000000E+00 -0.12863105759E+04  0.12863105759E+04  0.00000000000E+00 0. -1.
          6    2    1    2  502    0 -0.87018815662E+02  0.28785086349E+02 -0.48426510891E+03  0.52099616706E+03  0.16888888331E+03 0.  0.
         24    2    3    3    0    0 -0.21913586843E+02 -0.38531958846E+02 -0.16811661085E+03  0.19123528669E+03  0.79641841339E+02 0.  0.
         -6    2    1    2    0  501  0.87018815662E+02 -0.28785086349E+02 -0.77157887221E+03  0.79578100356E+03  0.17185049933E+03 0.  0.
        -24    2    5    5    0    0  0.68733784748E+02  0.43541035622E+02 -0.37950250568E+03  0.39664270990E+03  0.81750428464E+02 0.  0.
          5    1    3    3  502    0 -0.65105228819E+02  0.67317045196E+02 -0.31614849806E+03  0.32976088037E+03  0.47000000000E+01 0. -1.
        -11    1    4    4    0    0 -0.47744177252E+02 -0.38868752585E+02 -0.90688989754E+02  0.10961194849E+03  0.00000000000E+00 0.  1.
         12    1    4    4    0    0  0.25830590409E+02  0.33679373928E+00 -0.77427621095E+02  0.81623338203E+02  0.00000000000E+00 0. -1.
         -5    1    5    5    0  501  0.18285030913E+02 -0.72326121971E+02 -0.39207636653E+03  0.39913829366E+03  0.47000000000E+01 0.  1.
         11    1    6    6    0    0 -0.33181239173E+01 -0.14735685698E+02 -0.12279975439E+03  0.12372521997E+03  0.00000000000E+00 0. -1.
        -12    1    6    6    0    0  0.72051908666E+02  0.58276721320E+02 -0.25670275129E+03  0.27291748993E+03  0.00000000000E+00 0.  1.
</event>
<event>
12    1  0.2614920E-002  0.2048686E+03  0.7818608E-02  0.1145695E+00
          2   -1    0    0  502    0  0.00000000000E+00  0.00000000000E+00  0.16353165793E+02  0.16353165793E+02  0.00000000000E+00 0. -1.
         -2   -1    0    0    0  501 -0.00000000000E+00 -0.00000000000E+00 -0.26888811195E+04  0.26888811195E+04  0.00000000000E+00 0.  1.
          6    2    1    2  502    0 -0.10210922693E+03  0.45232822076E+02 -0.16250645094E+04  0.16379330555E+04  0.17180725336E+03 0.  0.
         24    2    3    3    0    0 -0.11431331769E+03  0.85315690744E+02 -0.12614544331E+04  0.12718866736E+04  0.77987959622E+02 0.  0.
         -6    2    1    2    0  501  0.10210922693E+03 -0.45232822076E+02 -0.10474634443E+04  0.10673012297E+04  0.17169724939E+03 0.  0.
        -24    2    5    5    0    0  0.73033919781E+02 -0.49022866412E+02 -0.36529562572E+03  0.38448737471E+03  0.81562566597E+02 0.  0.
          5    1    3    3  502    0  0.12204090752E+02 -0.40082868668E+02 -0.36361007625E+03  0.36604638196E+03  0.47000000000E+01 0. -1.
        -11    1    4    4    0    0 -0.62303971562E+02  0.63007684920E+01 -0.66941513180E+03  0.67233778954E+03  0.00000000000E+00 0.  1.
         12    1    4    4    0    0 -0.52009346124E+02  0.79014922252E+02 -0.59203930134E+03  0.59954888404E+03  0.00000000000E+00 0. -1.
         -5    1    5    5    0  501  0.29075307153E+02  0.37900443357E+01 -0.68216781855E+03  0.68281385501E+03  0.47000000000E+01 0.  1.
         13    1    6    6    0    0  0.34300143700E+02  0.20037403816E+02 -0.14708620293E+03  0.15235599267E+03  0.00000000000E+00 0. -1.
        -14    1    6    6    0    0  0.38733776081E+02 -0.69060270228E+02 -0.21820942279E+03  0.23213138204E+03  0.00000000000E+00 0.  1.
</event>
<event>
12    1  0.2614920E-002  0.2175231E+03  0.7818608E-02  0.1135743E+00
          1   -1    0    0  502    0  0.00000000000E+00  0.00000000000E+00  0.72542385487E+03  0.72542385487E+03  0.00000000000E+00 0.  1.
         -1   -1    0    0    0  501 -0.00000000000E+00 -0.00000000000E+00 -0.75396942285E+02  0.75396942285E+02  0.00000000000E+00 0. -1.
          6    2    1    2  502    0  0.12652788124E+03  0.42327397196E+02  0.47342885447E+03  0.52145123703E+03  0.17313462700E+03 0.  0.
         24    2    3    3    0    0  0.15933251911E+03  0.32079338790E+02  0.42239012873E+03  0.45974055325E+03  0.80820912093E+02 0.  0.
         -6    2    1    2    0  501 -0.12652788124E+03 -0.42327397196E+02  0.17659805811E+03  0.27936956013E+03  0.17046865903E+03 0.  0.
        -24    2    5    5    0    0 -0.20788844846E+02  0.29506905135E+02  0.75772183674E+02  0.11649274236E+03  0.80785528925E+02 0.  0.
          5    1    3    3  502    0 -0.32804637869E+02  0.10248058406E+02  0.51038725735E+02  0.61710683771E+02  0.47000000000E+01 0. -1.
        -13    1    4    4    0    0  0.37498867970E+02  0.45286602259E+02  0.12773188150E+03  0.14061463293E+03  0.00000000000E+00 0.  1.
         14    1    4    4    0    0  0.12183365114E+03 -0.13207263468E+02  0.29465824724E+03  0.31912592033E+03  0.00000000000E+00 0. -1.
         -5    1    5    5    0  501 -0.10573903639E+03 -0.71834302331E+02  0.10082587444E+03  0.16287681777E+03  0.47000000000E+01 0.  1.
         13    1    6    6    0    0  0.10977921052E+02  0.16192750581E+01 -0.13644855199E+02  0.17587463596E+02  0.00000000000E+00 0. -1.
        -14    1    6    6    0    0 -0.31766765898E+02  0.27887630077E+02  0.89417038873E+02  0.98905278766E+02  0.00000000000E+00 0.  1.
</event>
<event>
12    1  0.2614920E-002  0.1897210E+03  0.7818608E-02  0.1158713E+00
         -2   -1    0    0    0  501 -0.00000000000E+00  0.00000000000E+00  0.99117840535E+02  0.99117840535E+02  0.00000000000E+00 0.  1.
          2   -1    0    0  502    0  0.00000000000E+00 -0.00000000000E+00 -0.41606153160E+03  0.41606153160E+03  0.00000000000E+00 0. -1.
          6    2    1    2  502    0 -0.25243853714E+02  0.82357748758E+02 -0.24920085760E+03  0.31228300422E+03  0.16733067970E+03 0.  0.
         24    2    3    3    0    0  0.47780218689E+02  0.49403107328E+02 -0.11459172478E+03  0.15556595927E+03  0.79661081985E+02 0.  0.
         -6    2    1    2    0  501  0.25243853714E+02 -0.82357748758E+02 -0.67742833466E+02  0.20289636791E+03  0.17075653339E+03 0.  0.
        -24    2    5    5    0    0 -0.45795871203E+02 -0.72742369393E+02 -0.55892092284E+02  0.13008408802E+03  0.80057665788E+02 0.  0.
          5    1    3    3  502    0 -0.73024072402E+02  0.32954641430E+02 -0.13460913281E+03  0.15671704495E+03  0.47000000000E+01 0. -1.
        -11    1    4    4    0    0  0.68880437923E+01 -0.51531540414E+01  0.10212400417E+02  0.13352650154E+02  0.00000000000E+00 0.  1.
         12    1    4    4    0    0  0.40892174896E+02  0.54556261369E+02 -0.12480412520E+03  0.14221330912E+03  0.00000000000E+00 0. -1.
         -5    1    5    5    0  501  0.71039724917E+02 -0.96153793650E+01 -0.11850741182E+02  0.72812279893E+02  0.47000000000E+01 0.  1.
         11    1    6    6    0    0 -0.27733439848E+02 -0.13820346890E+02 -0.60820559831E+02  0.68258964042E+02  0.00000000000E+00 0. -1.
        -12    1    6    6    0    0 -0.18062431356E+02 -0.58922022503E+02  0.49284675465E+01  0.61825123976E+02  0.00000000000E+00 0.  1.
</event>
<event>
12    1  0.2614920E-002  0.1824440E+03  0.7818608E-02  0.1165458E+00
         -1   -1    0    0    0  501 -0.00000000000E+00  0.00000000000E+00  0.95206089033E+02  0.95206089033E+02  0.00000000000E+00 0. -1.
          1   -1    0    0  502    0  0.00000000000E+00 -0.00000000000E+00 -0.36244738707E+03  0.36244738707E+03  0.00000000000E+00 0.  1.
          6    2    1    2  502    0  0.48307020629E+02  0.36863161269E+02 -0.90483499375E+02  0.20353906035E+03  0.17189655182E+03 0.  0.
         24    2    3    3    0    0  0.89593401147E+02 -0.67943861820E+01 -0.78581406503E+02  0.14210375714E+03  0.77105765885E+02 0.  0.
         -6    2    1    2    0  501 -0.48307020629E+02 -0.36863161269E+02 -0.17675779867E+03  0.25411441576E+03  0.17215793913E+03 0.  0.
        -24    2    5    5    0    0 -0.22143567400E+02  0.32142567916E+02 -0.15187952240E+03  0.17609303680E+03  0.80111709714E+02 0.  0.
          5    1    3    3  502    0 -0.41286380518E+02  0.43657547451E+02 -0.11902092872E+02  0.61435303209E+02  0.47000000000E+01 0. -1.
        -13    1    4    4    0    0  0.66086876575E+02 -0.38687367562E+02 -0.64284584774E+02  0.99983476154E+02  0.00000000000E+00 0.  1.
         14    1    4    4    0    0  0.23506524571E+02  0.31892981380E+02 -0.14296821729E+02  0.42120280985E+02  0.00000000000E+00 0. -1.
         -5    1    5    5    0  501 -0.26163453229E+02 -0.69005729185E+02 -0.24878276265E+02  0.78021378962E+02  0.47000000000E+01 0.  1.
         11    1    6    6    0    0  0.28864754444E+02  0.22343716812E+02 -0.52260499628E+02  0.63746180682E+02  0.00000000000E+00 0. -1.
        -12    1    6    6    0    0 -0.51008321844E+02  0.97988511044E+01 -0.99619022774E+02  0.11234685611E+03  0.00000000000E+00 0.  1.
</event>
<event>
12    1  0.2614920E-002  0.1815038E+03  0.7818608E-02  0.1166356E+00
          1   -1    0    0  502    0  0.00000000000E+00  0.00000000000E+00  0.14746425801E+04  0.14746425801E+04  0.00000000000E+00 0.  1.
         -1   -1    0    0    0  501 -0.00000000000E+00 -0.00000000000E+00 -0.45829811768E+02  0.45829811768E+02  0.00000000000E+00 0. -1.
          6    2    1    2  502    0  0.38197416975E+02  0.44697633713E+02  0.12583680674E+04  0.12713676960E+04  0.17154796502E+03 0.  0.
         24    2    3    3    0    0  0.43958219918E+02  0.91789715534E+02  0.10278796072E+04  0.10360001721E+04  0.80013703547E+02 0.  0.
         -6    2    1    2    0  501 -0.38197416975E+02 -0.44697633713E+02  0.17044470099E+03  0.24910469591E+03  0.17188610271E+03 0.  0.
        -24    2    5    5    0    0 -0.70751630487E+02 -0.24202185814E+02  0.18005123053E+03  0.20917706623E+03  0.75796176715E+02 0.  0.
          5    1    3    3  502    0 -0.57608029431E+01 -0.47092081821E+02  0.23048846017E+03  0.23536752387E+03  0.47000000000E+01 0. -1.
        -11    1    4    4    0    0  0.42904969534E+02  0.10226762940E+02  0.48855607657E+03  0.49054302874E+03  0.00000000000E+00 0.  1.
         12    1    4    4    0    0  0.10532503848E+01  0.81562952594E+02  0.53932353061E+03  0.54545714336E+03  0.00000000000E+00 0. -1.
         -5    1    5    5    0  501  0.32554213511E+02 -0.20495447899E+02 -0.96065295436E+01  0.39927629679E+02  0.47000000000E+01 0.  1.
         13    1    6    6    0    0 -0.30488589962E+02 -0.49592053324E+02  0.11050551031E+03  0.12490153593E+03  0.00000000000E+00 0. -1.
        -14    1    6    6    0    0 -0.40263040525E+02  0.25389867509E+02  0.69545720227E+02  0.84275530294E+02  0.00000000000E+00 0.  1.
</event>
<event>
12    1  0.2614920E-002  0.1763190E+03  0.7818608E-02  0.1171414E+00
         -2   -1    0    0    0  501 -0.00000000000E+00  0.00000000000E+00  0.10449724846E+03  0.10449724846E+03  0.00000000000E+00 0. -1.
          2   -1    0    0  502    0  0.00000000000E+00 -0.00000000000E+00 -0.68961681314E+03  0.68961681314E+03  0.00000000000E+00 0.  1.
          6    2    1    2  502    0  0.15568629152E+02 -0.24799704428E+02  0.76844855256E+01  0.17530314179E+03  0.17266943171E+03 0.  0.
         24    2    3    3    0    0 -0.57372403155E+02 -0.22679512436E+02 -0.52281510070E+01  0.10104874400E+03  0.79859640452E+02 0.  0.
         -6    2    1    2    0  501 -0.15568629152E+02  0.24799704428E+02 -0.59280405020E+03  0.61881091982E+03  0.17507971041E+03 0.  0.
        -24    2    5    5    0    0 -0.67919189623E+02 -0.21516614538E+02 -0.34998738819E+03  0.36609011748E+03  0.80341901916E+02 0.  0.
          5    1    3    3  502    0  0.72941032307E+02 -0.21201919926E+01  0.12912636533E+02  0.74254397785E+02  0.47000000000E+01 0. -1.
        -11    1    4    4    0    0  0.90299231913E+01  0.15575017743E+02 -0.15466238431E+02  0.23734473277E+02  0.00000000000E+00 0.  1.
         12    1    4    4    0    0 -0.66402326347E+02 -0.38254530179E+02  0.10238087424E+02  0.77314270724E+02  0.00000000000E+00 0. -1.
         -5    1    5    5    0  501  0.52350560472E+02  0.46316318966E+02 -0.24281666201E+03  0.25272080234E+03  0.47000000000E+01 0.  1.
         13    1    6    6    0    0  0.12369268244E+02  0.67795531980E+01 -0.15576688875E+02  0.21014147015E+02  0.00000000000E+00 0. -1.
        -14    1    6    6    0    0 -0.80288457868E+02 -0.28296167736E+02 -0.33441069931E+03  0.34507597046E+03  0.00000000000E+00 0.  1.
</event>
<event>
12    1  0.2614920E-002  0.3158454E+03  0.7818608E-02  0.1077577E+00
         -2   -1    0    0    0  501 -0.00000000000E+00  0.00000000000E+00  0.80013557002E+02  0.80013557002E+02  0.00000000000E+00 0. -1.
          2   -1    0    0  502    0  0.00000000000E+00 -0.00000000000E+00 -0.13223808639E+04  0.13223808639E+04  0.00000000000E+00 0.  1.
          6    2    1    2  502    0  0.77835364474E+02  0.25329033105E+03 -0.45345113762E+03  0.55258991708E+03  0.17182359115E+03 0.  0.
         24    2    3    3    0    0 -0.17198042835E+02  0.14820495399E+03 -0.27969040773E+03  0.32833745615E+03  0.85546945438E+02 0.  0.
         -6    2    1    2    0  501 -0.77835364474E+02 -0.25329033105E+03 -0.78891616926E+03  0.84980450381E+03  0.17194370245E+03 0.  0.
        -24    2    5    5    0    0 -0.77445110096E+02 -0.72023623793E+02 -0.36752283904E+03  0.39105380876E+03  0.81638818374E+02 0.  0.
          5    1    3    3  502    0  0.95033407309E+02  0.10508537706E+03 -0.17376072990E+03  0.22425246093E+03  0.47000000000E+01 0. -1.
        -11    1    4    4    0    0  0.29787360775E+02  0.22283933871E+02 -0.70019403391E+02  0.79287939953E+02  0.00000000000E+00 0.  1.
         12    1    4    4    0    0 -0.46985403610E+02  0.12592102012E+03 -0.20967100434E+03  0.24904951620E+03  0.00000000000E+00 0. -1.
         -5    1    5    5    0  501 -0.39025437846E+00 -0.18126670726E+03 -0.42139333021E+03  0.45875069505E+03  0.47000000000E+01 0.  1.
         11    1    6    6    0    0 -0.44911574489E+02 -0.77243017678E+01 -0.60817057506E+02  0.75996242305E+02  0.00000000000E+00 0. -1.
        -12    1    6    6    0    0 -0.32533535607E+02 -0.64299322025E+02 -0.30670578154E+03  0.31505756645E+03  0.00000000000E+00 0.  1.
</event>
<event>
12    1  0.2614920E-002  0.2362449E+03  0.7818608E-02  0.1122320E+00
         -2   -1    0    0    0  501 -0.00000000000E+00  0.00000000000E+00  0.67181962024E+02  0.67181962024E+02  0.00000000000E+00 0. -1.
          2   -1    0    0  502    0  0.00000000000E+00 -0.00000000000E+00 -0.87303739178E+03  0.87303739178E+03  0.00000000000E+00 0.  1.
          6    2    1    2  502    0  0.15877030332E+03  0.35145857081E+02 -0.29899035376E+03  0.38087731807E+03  0.17096508209E+03 0.  0.
         24    2    3    3    0    0  0.18443528983E+03  0.38450971644E+02 -0.28416787514E+03  0.35068773067E+03  0.82071004811E+02 0.  0.
         -6    2    1    2    0  501 -0.15877030332E+03 -0.35145857081E+02 -0.50686507600E+03  0.55934203574E+03  0.17177912325E+03 0.  0.
        -24    2    5    5    0    0 -0.98147947281E+02 -0.89218612515E+02 -0.30468098322E+03  0.34139839554E+03  0.78290373360E+02 0.  0.
          5    1    3    3  502    0 -0.25664986508E+02 -0.33051145631E+01 -0.14822478621E+02  0.30189587397E+02  0.47000000000E+01 0. -1.
        -13    1    4    4    0    0  0.14124342342E+03  0.62576811387E+02 -0.19571128180E+03  0.24933605396E+03  0.00000000000E+00 0.  1.
         14    1    4    4    0    0  0.43191866413E+02 -0.24125839743E+02 -0.88456593335E+02  0.10135167671E+03  0.00000000000E+00 0. -1.
         -5    1    5    5    0  501 -0.60622356039E+02  0.54072755434E+02 -0.20218409278E+03  0.21794364020E+03  0.47000000000E+01 0.  1.
         13    1    6    6    0    0 -0.39993547196E+02  0.15558408449E+01 -0.44969649373E+02  0.60201111475E+02  0.00000000000E+00 0. -1.
        -14    1    6    6    0    0 -0.58154400085E+02 -0.90774453360E+02 -0.25971133385E+03  0.28119728406E+03  0.00000000000E+00 0.  1.
</event>
<event>
12    1  0.2614920E-002  0.2658847E+03  0.7818608E-02  0.1103658E+00
          1   -1    0    0  502    0  0.00000000000E+00  0.00000000000E+00  0.16407498944E+04  0.16407498944E+04  0.00000000000E+00 0. -1.
         -1   -1    0    0    0  501 -0.00000000000E+00 -0.00000000000E+00 -0.44982286312E+02  0.44982286312E+02  0.00000000000E+00 0.  1.
          6    2    1    2  502    0  0.95048247648E+02  0.17963397274E+03  0.62522968593E+03  0.67946628921E+03  0.17163841196E+03 0.  0.
         24    2    3    3    0    0  0.33756939975E+01  0.14594728051E+03  0.43038628316E+03  0.46146470222E+03  0.80033209763E+02 0.  0.
         -6    2    1    2    0  501 -0.95048247648E+02 -0.17963397274E+03  0.97053792219E+03  0.10062658915E+04  0.17124442332E+03 0.  0.
        -24    2    5    5    0    0 -0.20886236817E+02 -0.65390635384E+02  0.64140535893E+03  0.65003299275E+03  0.80186576892E+02 0.  0.
          5    1    3    3  502    0  0.91672553651E+02  0.33686692231E+02  0.19484340278E+03  0.21800158699E+03  0.47000000000E+01 0. -1.
        -13    1    4    4    0    0  0.23415928767E+02  0.57584084520E+01  0.48431018184E+02  0.54102019465E+02  0.00000000000E+00 0.  1.
         14    1    4    4    0    0 -0.20040234769E+02  0.14018887206E+03  0.38195526497E+03  0.40736268275E+03  0.00000000000E+00 0. -1.
         -5    1    5    5    0  501 -0.74162010831E+02 -0.11424333736E+03  0.32913256326E+03  0.35623289879E+03  0.47000000000E+01 0.  1.
         11    1    6    6    0    0  0.23817580865E+02 -0.54106197386E+02  0.38572119335E+03  0.39022505910E+03  0.00000000000E+00 0. -1.
        -12    1    6    6    0    0 -0.44703817681E+02 -0.11284437998E+02  0.25568416558E+03  0.25980793365E+03  0.00000000000E+00 0.  1.
</event>
<event>
12    1  0.2614920E-002  0.2233758E+03  0.7818608E-02  0.1131391E+00
          2   -1    0    0  502    0  0.00000000000E+00  0.00000000000E+00  0.19931989436E+04  0.19931989436E+04  0.00000000000E+00 0. -1.
         -2   -1    0    0    0  501 -0.00000000000E+00 -0.00000000000E+00 -0.42683514787E+02  0.42683514787E+02  0.00000000000E+00 0.  1.
          6    2    1    2  502    0 -0.14044929948E+03 -0.27347284931E+02  0.32097325769E+03  0.39111732598E+03  0.17168299511E+03 0.  0.
         24    2    3    3    0    0 -0.16462036810E+03 -0.25814803672E+01  0.23089313332E+03  0.29450415690E+03  0.79464015622E+02 0.  0.
         -6    2    1    2    0  501  0.14044929948E+03  0.27347284931E+02  0.16295421711E+04  0.16447651324E+04  0.17137903487E+03 0.  0.
        -24    2    5    5    0    0  0.46873284547E+02  0.42403240952E+02  0.12278403027E+04  0.12320065668E+04  0.79077380253E+02 0.  0.
          5    1    3    3  502    0  0.24171068623E+02 -0.24765804564E+02  0.90080124364E+02  0.96613169079E+02  0.47000000000E+01 0. -1.
        -11    1    4    4    0    0 -0.81465187272E+02 -0.36210742902E+02  0.14561371695E+03  0.17073707624E+03  0.00000000000E+00 0.  1.
         12    1    4    4    0    0 -0.83155180832E+02  0.33629262535E+02  0.85279416374E+02  0.12376708066E+03  0.00000000000E+00 0. -1.
         -5    1    5    5    0  501  0.93576014935E+02 -0.15055956021E+02  0.40170186842E+03  0.41275856560E+03  0.47000000000E+01 0.  1.
         13    1    6    6    0    0  0.60856743330E+02  0.48806353586E+02  0.77751147442E+03  0.78141518811E+03  0.00000000000E+00 0. -1.
        -14    1    6    6    0    0 -0.13983458784E+02 -0.64031126337E+01  0.45032882828E+03  0.45059137869E+03  0.00000000000E+00 0.  1.
</event>
<event>
12    1  0.2614920E-002  0.2682868E+03  0.7818608E-02  0.1102264E+00
         -2   -1    0    0    0  501 -0.00000000000E+00  0.00000000000E+00  0.78852003575E+02  0.78852003575E+02  0.00000000000E+00 0.  1.
          2   -1    0    0  502    0  0.00000000000E+00 -0.00000000000E+00 -0.13555667288E+04  0.13555667288E+04  0.00000000000E+00 0. -1.
          6    2    1    2  502    0  0.16891935235E+03  0.11801291216E+03 -0.22835645443E+03  0.35225809324E+03  0.17169245452E+03 0.  0.
         24    2    3    3    0    0  0.15838686611E+03  0.15002137605E+03 -0.21049223503E+03  0.31383029912E+03  0.81176739348E+02 0.  0.
         -6    2    1    2    0  501 -0.16891935235E+03 -0.11801291216E+03 -0.10483582708E+04  0.10821606392E+04  0.17191797438E+03 0.  0.
        -24    2    5    5    0    0 -0.12413944317E+03 -0.63421977573E+01 -0.62850294914E+03  0.64538132432E+03  0.77783493687E+02 0.  0.
          5    1    3    3  502    0  0.10532486236E+02 -0.32008463882E+02 -0.17864219409E+02  0.38427794127E+02  0.47000000000E+01 0. -1.
        -13    1    4    4    0    0  0.74686506684E+02  0.11094510599E+03 -0.86751181989E+02  0.15941348249E+03  0.00000000000E+00 0.  1.
         14    1    4    4    0    0  0.83700359425E+02  0.39076270052E+02 -0.12374105304E+03  0.15441681662E+03  0.00000000000E+00 0. -1.
         -5    1    5    5    0  501 -0.44779909175E+02 -0.11167071441E+03 -0.41985532168E+03  0.43677931483E+03  0.47000000000E+01 0.  1.
         11    1    6    6    0    0 -0.85818370752E+02  0.24951293790E+01 -0.55873609832E+03  0.56529376964E+03  0.00000000000E+00 0. -1.
        -12    1    6    6    0    0 -0.38321072419E+02 -0.88373271363E+01 -0.69766850816E+02  0.80087554682E+02  0.00000000000E+00 0.  1.
</event>
<event>
12    1  0.2614920E-002  0.2879835E+03  0.7818608E-02  0.1091407E+00
         -2   -1    0    0    0  501 -0.00000000000E+00  0.00000000000E+00  0.24568166593E+02  0.24568166593E+02  0.00000000000E+00 0.  1.
          2   -1    0    0  502    0  0.00000000000E+00 -0.00000000000E+00 -0.33769662339E+04  0.33769662339E+04  0.00000000000E+00 0. -1.
          6    2    1    2  502    0  0.37062204741E+02 -0.22646518314E+03 -0.17155277275E+04  0.17397329871E+04  0.17599828493E+03 0.  0.
         24    2    3    3    0    0 -0.35769654303E+02 -0.18791481868E+03 -0.11878770676E+04  0.12056656513E+04  0.77371103448E+02 0.  0.
         -6    2    1    2    0  501 -0.37062204741E+02  0.22646518314E+03 -0.16368703399E+04  0.16618014135E+04  0.17198645910E+03 0.  0.
        -24    2    5    5    0    0  0.31106795557E+01  0.93132568363E+02 -0.42324461538E+03  0.44020371540E+03  0.77200744779E+02 0.  0.
          5    1    3    3  502    0  0.72831859044E+02 -0.38550364460E+02 -0.52765065985E+03  0.53406733576E+03  0.47000000000E+01 0. -1.
        -13    1    4    4    0    0 -0.32594746336E+02 -0.17638431379E+03 -0.90878477582E+03  0.92631723098E+03  0.00000000000E+00 0.  1.
         14    1    4    4    0    0 -0.31749079670E+01 -0.11530504885E+02 -0.27909229181E+03  0.27934842032E+03  0.00000000000E+00 0. -1.
         -5    1    5    5    0  501 -0.40172884297E+02  0.13333261477E+03 -0.12136257245E+04  0.12215976981E+04  0.47000000000E+01 0.  1.
         11    1    6    6    0    0 -0.64659622378E+01  0.11259514966E+02 -0.22671963811E+03  0.22709112631E+03  0.00000000000E+00 0. -1.
        -12    1    6    6    0    0  0.95766417935E+01  0.81873053397E+02 -0.19652497727E+03  0.21311258909E+03  0.00000000000E+00 0.  1.
</event>
<event>
12    1  0.2614920E-002  0.2965701E+03  0.7818608E-02  0.1086968E+00
         -1   -1    0    0    0  501 -0.00000000000E+00  0.00000000000E+00  0.42261681229E+03  0.42261681229E+03  0.00000000000E+00 0.  1.
          1   -1    0    0  502    0  0.00000000000E+00 -0.00000000000E+00 -0.21299734547E+03  0.21299734547E+03  0.00000000000E+00 0. -1.
          6    2    1    2  502    0 -0.37751116631E+02  0.23583097291E+03  0.15383459415E+03  0.33674392249E+03  0.18080373998E+03 0.  0.
         24    2    3    3    0    0  0.33348467829E+02  0.52964519366E+02  0.68380132818E+02  0.12268821549E+03  0.80369117433E+02 0.  0.
         -6    2    1    2    0  501  0.37751116631E+02 -0.23583097291E+03  0.55784872673E+02  0.29887023527E+03  0.17079247911E+03 0.  0.
        -24    2    5    5    0    0 -0.30530104545E+02 -0.14388247645E+03 -0.80341866260E+01  0.16767643398E+03  0.80103583225E+02 0.  0.
          5    1    3    3  502    0 -0.71099584460E+02  0.18286645354E+03  0.85454461333E+02  0.21405570701E+03  0.47000000000E+01 0. -1.
        -11    1    4    4    0    0  0.50960616803E+02  0.48035669501E+02  0.22919353586E+02  0.73686544078E+02  0.00000000000E+00 0.  1.
         12    1    4    4    0    0 -0.17612148974E+02  0.49288498653E+01  0.45460779232E+02  0.49001671409E+02  0.00000000000E+00 0. -1.
         -5    1    5    5    0  501  0.68281221177E+02 -0.91948496455E+02  0.63819059299E+02  0.13119380129E+03  0.47000000000E+01 0.  1.
         13    1    6    6    0    0 -0.15390237204E+02 -0.12462394755E+03  0.23494262746E+02  0.12774963048E+03  0.00000000000E+00 0. -1.
        -14    1    6    6    0    0 -0.15139867341E+02 -0.19258528895E+02 -0.31528449371E+02  0.39926803504E+02  0.00000000000E+00 0.  1.
</event>
<event>
12    1  0.2614920E-002  0.2784052E+03  0.7818608E-02  0.1096563E+00
          2   -1    0    0  502    0  0.00000000000E+00  0.00000000000E+00  0.22600742896E+04  0.22600742896E+04  0.00000000000E+00 0.  1.
         -2   -1    0    0    0  501 -0.00000000000E+00 -0.00000000000E+00 -0.37422624806E+02  0.37422624806E+02  0.00000000000E+00 0. -1.
          6    2    1    2  502    0 -0.19736507035E+03 -0.92342455142E+02  0.77989882718E+03  0.82816228507E+03  0.17358136355E+03 0.  0.
         24    2    3    3    0    0 -0.15327052084E+03  0.12740384511E+00  0.54785237461E+03  0.57446433422E+03  0.79844712640E+02 0.  0.
         -6    2    1    2    0  501  0.19736507035E+03  0.92342455142E+02  0.14427528376E+04  0.14693346293E+04  0.17299827306E+03 0.  0.
        -24    2    5    5    0    0  0.89861612853E+02  0.52695233089E+02  0.10989003362E+04  0.11068632121E+04  0.81928775813E+02 0.  0.
          5    1    3    3  502    0 -0.44094549510E+02 -0.92469858987E+02  0.23204645257E+03  0.25369795085E+03  0.47000000000E+01 0. -1.
        -11    1    4    4    0    0 -0.74294232385E+02  0.71775203581E+01  0.39789062302E+03  0.40483094948E+03  0.00000000000E+00 0.  1.
         12    1    4    4    0    0 -0.78976288458E+02 -0.70501165130E+01  0.14996175159E+03  0.16963338475E+03  0.00000000000E+00 0. -1.
         -5    1    5    5    0  501  0.10750345750E+03  0.39647222053E+02  0.34385250140E+03  0.36247141724E+03  0.47000000000E+01 0.  1.
         11    1    6    6    0    0  0.46609259357E+02 -0.11247874978E+02  0.25726693931E+03  0.26169680130E+03  0.00000000000E+00 0. -1.
        -12    1    6    6    0    0  0.43252353496E+02  0.63943108067E+02  0.84163339691E+03  0.84516641080E+03  0.00000000000E+00 0.  1.
</event>
<event>
12    1  0.2614920E-002  0.2135202E+03  0.7818608E-02  0.1138808E+00
          2   -1    0    0  502    0  0.00000000000E+00  0.00000000000E+00  0.14269766616E+04  0.14269766616E+04  0.00000000000E+00 0. -1.
         -2   -1    0    0    0  501 -0.00000000000E+00 -0.00000000000E+00 -0.49215748455E+02  0.49215748455E+02  0.00000000000E+00 0.  1.
          6    2    1    2  502    0 -0.75458147894E+02  0.89222359681E+02  0.11130173854E+04  0.11322100562E+04  0.17157316108E+03 0.  0.
         24    2    3    3    0    0 -0.23531659513E+02 -0.43288713802E+01  0.72398049783E+03  0.72870047400E+03  0.79272576946E+02 0.  0.
         -6    2    1    2    0  501  0.75458147894E+02 -0.89222359681E+02  0.26474352776E+03  0.34398235388E+03  0.18595742183E+03 0.  0.
        -24    2    5    5    0    0  0.12405550131E+03 -0.85269497557E+02  0.20107921390E+03  0.26365450853E+03  0.80126119248E+02 0.  0.
          5    1    3    3  502    0 -0.51926488381E+02  0.93551231061E+02  0.38903688760E+03  0.40350958221E+03  0.47000000000E+01 0. -1.
        -11    1    4    4    0    0 -0.11449576182E+01  0.14256307906E+02  0.22786821943E+02  0.26903391930E+02  0.00000000000E+00 0.  1.
         12    1    4    4    0    0 -0.22386701895E+02 -0.18585179287E+02  0.70119367588E+03  0.70179708207E+03  0.00000000000E+00 0. -1.
         -5    1    5    5    0  501 -0.48597353418E+02 -0.39528621241E+01  0.63664313862E+02  0.80327845345E+02  0.47000000000E+01 0.  1.
         13    1    6    6    0    0  0.10482526968E+02  0.13555237398E+02  0.38134018759E+02  0.41807071402E+02  0.00000000000E+00 0. -1.
        -14    1    6    6    0    0  0.11357297434E+03 -0.98824734955E+02  0.16294519514E+03  0.22184743713E+03  0.00000000000E+00 0.  1.
</event>
<event>
12    1  0.2614920E-002  0.2142134E+03  0.7818608E-02  0.1138272E+00
          1   -1    0    0  502    0  0.00000000000E+00  0.00000000000E+00  0.60348689721E+03  0.60348689721E+03  0.00000000000E+00 0.  1.
         -1   -1    0    0    0  501 -0.00000000000E+00 -0.00000000000E+00 -0.13173907414E+03  0.13173907414E+03  0.00000000000E+00 0. -1.
          6    2    1    2  502    0 -0.12469686032E+02 -0.12776581822E+03  0.47487344080E+03  0.52092752106E+03  0.17140915975E+03 0.  0.
         24    2    3    3    0    0  0.14346746573E+02 -0.14010640161E+03  0.28217067260E+03  0.32592019318E+03  0.82268164795E+02 0.  0.
         -6    2    1    2    0  501  0.12469686032E+02  0.12776581822E+03 -0.31256177279E+01  0.21429845030E+03  0.17156473687E+03 0.  0.
        -24    2    5    5    0    0 -0.58696311114E+01  0.10594200555E+03 -0.64380456968E+02  0.14657212836E+03  0.77976820031E+02 0.  0.
          5    1    3    3  502    0 -0.26816432605E+02  0.12340583384E+02  0.19270276819E+03  0.19500732788E+03  0.47000000000E+01 0. -1.
        -11    1    4    4    0    0  0.47660312768E+02 -0.67176470603E+02  0.12945809488E+03  0.15343917996E+03  0.00000000000E+00 0.  1.
         12    1    4    4    0    0 -0.33313566194E+02 -0.72929931002E+02  0.15271257772E+03  0.17248101323E+03  0.00000000000E+00 0. -1.
         -5    1    5    5    0  501  0.18339317143E+02  0.21823812668E+02  0.61254839240E+02  0.67726321936E+02  0.47000000000E+01 0.  1.
         11    1    6    6    0    0 -0.33861653333E+02  0.91264977333E+02 -0.35076217613E+02  0.10347100413E+03  0.00000000000E+00 0. -1.
        -12    1    6    6    0    0  0.27992022222E+02  0.14677028221E+02 -0.29304239355E+02  0.43101124227E+02  0.00000000000E+00 0.  1.
</event>
<event>
12    1  0.2614920E-002  0.1728769E+03  0.7818608E-02  0.1174880E+00
         -1   -1    0    0    0  501 -0.00000000000E+00  0.00000000000E+00  0.43886452947E+02  0.43886452947E+02  0.00000000000E+00 0. -1.
          1   -1    0    0  502    0  0.00000000000E+00 -0.00000000000E+00 -0.68115759553E+03  0.68115759553E+03  0.00000000000E+00 0.  1.
          6    2    1    2  502    0  0.77046890293E+00 -0.63025814580E+01 -0.31259096241E+03  0.35709003403E+03  0.17251048219E+03 0.  0.
         24    2    3    3    0    0  0.49475121061E+02  0.34551750291E+02 -0.24513555785E+03  0.26428086870E+03  0.78174962645E+02 0.  0.
         -6    2    1    2    0  501 -0.77046890293E+00  0.63025814580E+01 -0.32468018018E+03  0.36795401445E+03  0.17301046558E+03 0.  0.
        -24    2    5    5    0    0  0.20535870253E+02 -0.95801626195E+01 -0.61854212584E+02  0.10374614007E+03  0.80148714784E+02 0.  0.
          5    1    3    3  502    0 -0.48704652158E+02 -0.40854331749E+02 -0.67455404555E+02  0.92809165324E+02  0.47000000000E+01 0. -1.
        -11    1    4    4    0    0  0.44219419039E+02 -0.15604892367E+02 -0.95819941315E+02  0.10667863347E+03  0.00000000000E+00 0.  1.
         12    1    4    4    0    0  0.52557020220E+01  0.50156642658E+02 -0.14931561654E+03  0.15760223523E+03  0.00000000000E+00 0. -1.
         -5    1    5    5    0  501 -0.21306339156E+02  0.15882744078E+02 -0.26282596759E+03  0.26420787439E+03  0.47000000000E+01 0.  1.
         11    1    6    6    0    0  0.10737544920E+01  0.97020963234E+01  0.17366551671E+02  0.19921865844E+02  0.00000000000E+00 0. -1.
        -12    1    6    6    0    0  0.19462115761E+02 -0.19282258943E+02 -0.79220764255E+02  0.83824274223E+02  0.00000000000E+00 0.  1.
</event>
<event>
12    1  0.2614920E-002  0.1742078E+03  0.7818608E-02  0.1173529E+00
         -2   -1    0    0    0  501 -0.00000000000E+00  0.00000000000E+00  0.19141897833E+02  0.19141897833E+02  0.00000000000E+00 0. -1.
          2   -1    0    0  502    0  0.00000000000E+00 -0.00000000000E+00 -0.15856578532E+04  0.15856578532E+04  0.00000000000E+00 0.  1.
          6    2    1    2  502    0 -0.16537808926E+02 -0.24187680915E+02 -0.79274987994E+03  0.81167178699E+03  0.17175614873E+03 0.  0.
         24    2    3    3    0    0 -0.15113987809E+02  0.41158819450E+02 -0.61951630290E+03  0.62645797922E+03  0.82016273526E+02 0.  0.
         -6    2    1    2    0  501  0.16537808926E+02  0.24187680915E+02 -0.77376607547E+03  0.79312796408E+03  0.17169590801E+03 0.  0.
        -24    2    5    5    0    0  0.30524992131E+02 -0.31182703850E+02 -0.65533033301E+03  0.66155807431E+03  0.79354295121E+02 0.  0.
          5    1    3    3  502    0 -0.14238211174E+01 -0.65346500365E+02 -0.17323357704E+03  0.18521380777E+03  0.47000000000E+01 0. -1.
        -13    1    4    4    0    0 -0.34277608660E+02  0.11549629716E+02 -0.11153169031E+03  0.11725044283E+03  0.00000000000E+00 0.  1.
         14    1    4    4    0    0  0.19163620851E+02  0.29609189734E+02 -0.50798461259E+03  0.50920753638E+03  0.00000000000E+00 0. -1.
         -5    1    5    5    0  501 -0.13987183205E+02  0.55370384764E+02 -0.11843574245E+03  0.13156988977E+03  0.47000000000E+01 0.  1.
         13    1    6    6    0    0  0.77179511343E+01 -0.58616528087E+01 -0.61375987630E+01  0.11471523959E+02  0.00000000000E+00 0. -1.
        -14    1    6    6    0    0  0.22807040997E+02 -0.25321051041E+02 -0.64919273425E+03  0.65008655035E+03  0.00000000000E+00 0.  1.
</event>
<event>
12    1  0.2614920E-002  0.1944611E+03  0.7818608E-02  0.1154498E+00
         -1   -1    0    0    0  501 -0.00000000000E+00  0.00000000000E+00  0.11431965023E+03  0.11431965023E+03  0.00000000000E+00 0.  1.
          1   -1    0    0  502    0  0.00000000000E+00 -0.00000000000E+00 -0.42202196906E+03  0.42202196906E+03  0.00000000000E+00 0. -1.
          6    2    1    2  502    0 -0.88164612302E+02  0.14062101478E+02 -0.27777248927E+03  0.33837893135E+03  0.17138262404E+03 0.  0.
         24    2    3    3    0    0 -0.91031649950E+02  0.53698183035E+02 -0.13095648754E+03  0.18620709679E+03  0.79707120847E+02 0.  0.
         -6    2    1    2    0  501  0.88164612302E+02 -0.14062101478E+02 -0.29929829554E+02  0.19796268794E+03  0.17413411371E+03 0.  0.
        -24    2    5    5    0    0  0.19286124003E+02 -0.32899448580E+02 -0.76199767435E+02  0.11274479693E+03  0.73828560750E+02 0.  0.
          5    1    3    3  502    0  0.28670376477E+01 -0.39636081557E+02 -0.14681600174E+03  0.15217183456E+03  0.47000000000E+01 0. -1.
        -13    1    4    4    0    0 -0.64671201538E+02  0.62914693686E+02 -0.13002947217E+03  0.15826650505E+03  0.00000000000E+00 0.  1.
         14    1    4    4    0    0 -0.26360448412E+02 -0.92165106512E+01 -0.92701536728E+00  0.27940591736E+02  0.00000000000E+00 0. -1.
         -5    1    5    5    0  501  0.68878488300E+02  0.18837347102E+02  0.46269937881E+02  0.85217891007E+02  0.47000000000E+01 0.  1.
         13    1    6    6    0    0 -0.94143507598E+01  0.49257271600E+01 -0.62401123009E+02  0.63299233337E+02  0.00000000000E+00 0. -1.
        -14    1    6    6    0    0  0.28700474763E+02 -0.37825175740E+02 -0.13798644426E+02  0.49445563596E+02  0.00000000000E+00 0.  1.
</event>
<event>
12    1  0.2614920E-002  0.2564780E+03  0.7818608E-02  0.1109278E+00
         -2   -1    0    0    0  501 -0.00000000000E+00  0.00000000000E+00  0.16390684504E+03  0.16390684504E+03  0.00000000000E+00 0.  1.
          2   -1    0    0  502    0  0.00000000000E+00 -0.00000000000E+00 -0.46766527284E+03  0.46766527284E+03  0.00000000000E+00 0. -1.
          6    2    1    2  502    0 -0.19050758505E+03  0.84333159773E+01 -0.27069631363E+03  0.37275115373E+03  0.17118021970E+03 0.  0.
         24    2    3    3    0    0 -0.43324119789E+02 -0.42852424280E+02 -0.11747258789E+03  0.15413550990E+03  0.79023014896E+02 0.  0.
         -6    2    1    2    0  501  0.19050758505E+03 -0.84333159773E+01 -0.33062114170E+02  0.25882096415E+03  0.17184564967E+03 0.  0.
        -24    2    5    5    0    0  0.79280309994E+02 -0.49448399985E+02  0.27461031990E+02  0.12563355839E+03  0.79367316330E+02 0.  0.
          5    1    3    3  502    0 -0.14718346526E+03  0.51285740257E+02 -0.15322372573E+03  0.21861564383E+03  0.47000000000E+01 0. -1.
        -13    1    4    4    0    0 -0.24521990972E+02 -0.27935208653E+02 -0.31318880517E+01  0.37302984418E+02  0.00000000000E+00 0.  1.
         14    1    4    4    0    0 -0.18802128817E+02 -0.14917215627E+02 -0.11434069984E+03  0.11683252548E+03  0.00000000000E+00 0. -1.
         -5    1    5    5    0  501  0.11122727506E+03  0.41015084008E+02 -0.60523146160E+02  0.13318740576E+03  0.47000000000E+01 0.  1.
         13    1    6    6    0    0  0.18547797131E+02  0.20040183921E+02 -0.50832536881E+01  0.27775334706E+02  0.00000000000E+00 0. -1.
        -14    1    6    6    0    0  0.60732512863E+02 -0.69488583906E+02  0.32544285679E+02  0.97858223682E+02  0.00000000000E+00 0.  1.
</event>
<event>
12    1  0.2614920E-002  0.1898865E+03  0.7818608E-02  0.1158564E+00
          3   -1    0    0  502    0  0.00000000000E+00  0.00000000000E+00  0.63160020015E+03  0.63160020015E+03  0.00000000000E+00 0. -1.
         -3   -1    0    0    0  501 -0.00000000000E+00 -0.00000000000E+00 -0.67104656382E+02  0.67104656382E+02  0.00000000000E+00 0.  1.
          6    2    1    2  502    0 -0.28262342080E+02  0.74768775777E+02  0.41722158325E+03  0.45840064244E+03  0.17224450543E+03 0.  0.
         24    2    3    3    0    0  0.51667329732E+02  0.51994666189E+02  0.25005850371E+03  0.27165750960E+03  0.76782738745E+02 0.  0.
         -6    2    1    2    0  501  0.28262342080E+02 -0.74768775777E+02  0.14727396051E+03  0.24030421409E+03  0.17224217268E+03 0.  0.
        -24    2    5    5    0    0  0.31748583917E+02  0.52615285155E+01  0.22395409162E+02  0.91866529938E+02  0.83079773160E+02 0.  0.
          5    1    3    3  502    0 -0.79929671813E+02  0.22774109588E+02  0.16716307954E+03  0.18674313284E+03  0.47000000000E+01 0. -1.
        -13    1    4    4    0    0  0.16425613236E+02  0.65200741976E+02  0.13927490554E+03  0.15465586584E+03  0.00000000000E+00 0.  1.
         14    1    4    4    0    0  0.35241716496E+02 -0.13206075788E+02  0.11078359817E+03  0.11700164376E+03  0.00000000000E+00 0. -1.
         -5    1    5    5    0  501 -0.34862418368E+01 -0.80030304292E+02  0.12487855135E+03  0.14843768415E+03  0.47000000000E+01 0.  1.
         13    1    6    6    0    0 -0.18891746452E+02  0.14701290397E+02 -0.14966094574E+02  0.28231365715E+02  0.00000000000E+00 0. -1.
        -14    1    6    6    0    0  0.50640330369E+02 -0.94397618817E+01  0.37361503736E+02  0.63635164223E+02  0.00000000000E+00 0.  1.
</event>
<event>
12    1  0.2614920E-002  0.1938641E+03  0.7818608E-02  0.1155022E+00
          2   -1    0    0  502    0  0.00000000000E+00  0.00000000000E+00  0.80686441609E+03  0.80686441609E+03  0.00000000000E+00 0. -1.
         -2   -1    0    0    0  501 -0.00000000000E+00 -0.00000000000E+00 -0.53973076969E+02  0.53973076969E+02  0.00000000000E+00 0.  1.
          6    2    1    2  502    0 -0.20376536670E+01  0.84915460757E+02  0.21603212393E+03  0.28982105372E+03  0.17352687718E+03 0.  0.
         24    2    3    3    0    0 -0.66011537208E+02  0.61475172689E+02  0.10596188489E+03  0.16028475610E+03  0.79539688753E+02 0.  0.
         -6    2    1    2    0  501  0.20376536670E+01 -0.84915460757E+02  0.53685921519E+03  0.57101643934E+03  0.17500619860E+03 0.  0.
        -24    2    5    5    0    0 -0.14466440106E+02 -0.55558137909E+02  0.52623743265E+03  0.53539131084E+03  0.80137604291E+02 0.  0.
          5    1    3    3  502    0  0.63973883541E+02  0.23440288068E+02  0.11007023903E+03  0.12953629762E+03  0.47000000000E+01 0. -1.
        -13    1    4    4    0    0  0.81128029551E+01  0.36490683511E+02  0.56466444862E+02  0.67718881786E+02  0.00000000000E+00 0.  1.
         14    1    4    4    0    0 -0.74124340163E+02  0.24984489178E+02  0.49495440031E+02  0.92565874316E+02  0.00000000000E+00 0. -1.
         -5    1    5    5    0  501  0.16504093773E+02 -0.29357322848E+02  0.10621782541E+02  0.35625128497E+02  0.47000000000E+01 0.  1.
         13    1    6    6    0    0 -0.94738916584E+01  0.18996171294E+02  0.17575375088E+03  0.17703104274E+03  0.00000000000E+00 0. -1.
        -14    1    6    6    0    0 -0.49925484474E+01 -0.74554309203E+02  0.35048368177E+03  0.35836026810E+03  0.00000000000E+00 0.  1.
</event>
<event>
12    1  0.2614920E-002  0.3706160E+03  0.7818608E-02  0.1054458E+00
         -1   -1    0    0    0  501 -0.00000000000E+00  0.00000000000E+00  0.23001461671E+04  0.23001461671E+04  0.00000000000E+00 0. -1.
          1   -1    0    0  502    0  0.00000000000E+00 -0.00000000000E+00 -0.61599063687E+02  0.61599063687E+02  0.00000000000E+00 0.  1.
          6    2    1    2  502    0  0.18434652245E+03 -0.27226969129E+03  0.13258418892E+04  0.13766783356E+04  0.17109091004E+03 0.  0.
         24    2    3    3    0    0  0.13243871702E+03 -0.13930084074E+03  0.99200537792E+03  0.10135749871E+04  0.79466008897E+02 0.  0.
         -6    2    1    2    0  501 -0.18434652245E+03  0.27226969129E+03  0.91270521424E+03  0.98506689519E+03  0.17091388112E+03 0.  0.
        -24    2    5    5    0    0 -0.94782439358E+02  0.24527673155E+03  0.72386408698E+03  0.77427456563E+03  0.79859255639E+02 0.  0.
          5    1    3    3  502    0  0.51907805429E+02 -0.13296885054E+03  0.33383651129E+03  0.36310334858E+03  0.47000000000E+01 0. -1.
        -11    1    4    4    0    0  0.66364316046E+02 -0.76137959864E+02  0.32491921294E+03  0.34025535457E+03  0.00000000000E+00 0.  1.
         12    1    4    4    0    0  0.66074400974E+02 -0.63162880880E+02  0.66708616499E+03  0.67331963249E+03  0.00000000000E+00 0. -1.
         -5    1    5    5    0  501 -0.89564083090E+02  0.26992959739E+02  0.18884112727E+03  0.21079232956E+03  0.47000000000E+01 0.  1.
         11    1    6    6    0    0 -0.66332942657E+02  0.20266533072E+03  0.48233872195E+03  0.52737457111E+03  0.00000000000E+00 0. -1.
        -12    1    6    6    0    0 -0.28449496701E+02  0.42611400833E+02  0.24152536502E+03  0.24689999452E+03  0.00000000000E+00 0.  1.
</event>
<event>
12    1  0.2614920E-002  0.1768201E+03  0.7818608E-02  0.1170917E+00
          4   -1    0    0  502    0  0.00000000000E+00  0.00000000000E+00  0.44788871462E+03  0.44788871462E+03  0.00000000000E+00 0. -1.
         -4   -1    0    0    0  501 -0.00000000000E+00 -0.00000000000E+00 -0.10593362418E+03  0.10593362418E+03  0.00000000000E+00 0.  1.
          6    2    1    2  502    0 -0.52143849126E+00 -0.49689686814E+02  0.33407204136E+03  0.37903141876E+03  0.17202136702E+03 0.  0.
         24    2    3    3    0    0  0.37226562218E+02 -0.79276196343E+02  0.29699521400E+03  0.31822801235E+03  0.73432815998E+02 0.  0.
         -6    2    1    2    0  501  0.52143849126E+00  0.49689686814E+02  0.78830490835E+01  0.17479092004E+03  0.16739291022E+03 0.  0.
        -24    2    5    5    0    0  0.45990738048E+02  0.78098279441E+02  0.20902711926E+02  0.11941848143E+03  0.74895668114E+02 0.  0.
          5    1    3    3  502    0 -0.37748000709E+02  0.29586509529E+02  0.37076827367E+02  0.60803406411E+02  0.47000000000E+01 0. -1.
        -13    1    4    4    0    0  0.37820886260E+02 -0.44753989331E+02  0.83790978910E+02  0.10224611066E+03  0.00000000000E+00 0.  1.
         14    1    4    4    0    0 -0.59432404219E+00 -0.34522207011E+02  0.21320423509E+03  0.21598190169E+03  0.00000000000E+00 0. -1.
         -5    1    5    5    0  501 -0.45469299557E+02 -0.28408592628E+02 -0.13019662843E+02  0.55372438612E+02  0.47000000000E+01 0.  1.
         13    1    6    6    0    0  0.26908040059E+02 -0.65081868382E+01  0.17232287379E+02  0.32609060766E+02  0.00000000000E+00 0. -1.
        -14    1    6    6    0    0  0.19082697989E+02  0.84606466280E+02  0.36704245474E+01  0.86809420659E+02  0.00000000000E+00 0.  1.
</event>
<event>
12    1  0.2614920E-002  0.1712192E+03  0.7818608E-02  0.1176582E+00
          2   -1    0    0  502    0  0.00000000000E+00  0.00000000000E+00  0.25186919102E+04  0.25186919102E+04  0.00000000000E+00 0.  1.
         -2   -1    0    0    0  501 -0.00000000000E+00 -0.00000000000E+00 -0.12639270160E+02  0.12639270160E+02  0.00000000000E+00 0. -1.
          6    2    1    2  502    0 -0.89789256618E+01 -0.91709855044E+01  0.88111529744E+03  0.89713989071E+03  0.16831841262E+03 0.  0.
         24    2    3    3    0    0 -0.69145654603E+02  0.12143466202E+02  0.53231360059E+03  0.54251465916E+03  0.77690415793E+02 0.  0.
         -6    2    1    2    0  501  0.89789256618E+01  0.91709855044E+01  0.16249373426E+04  0.16341912897E+04  0.17319086504E+03 0.  0.
        -24    2    5    5    0    0 -0.40644906059E+00 -0.51103717461E+02  0.60989753227E+03  0.61730927505E+03  0.80523201962E+02 0.  0.
          5    1    3    3  502    0  0.60166728941E+02 -0.21314451706E+02  0.34880169685E+03  0.35462523155E+03  0.47000000000E+01 0. -1.
        -11    1    4    4    0    0 -0.37339536516E+02  0.38539602660E+02  0.18126322130E+03  0.18903940689E+03  0.00000000000E+00 0.  1.
         12    1    4    4    0    0 -0.31806118087E+02 -0.26396136458E+02  0.35105037929E+03  0.35347525227E+03  0.00000000000E+00 0. -1.
         -5    1    5    5    0  501  0.93853747224E+01  0.60274702965E+02  0.10150398103E+04  0.10168820146E+04  0.47000000000E+01 0.  1.
         13    1    6    6    0    0  0.44130463036E+01 -0.21103663331E+02  0.31835106517E+02  0.38448843814E+02  0.00000000000E+00 0. -1.
        -14    1    6    6    0    0 -0.48194953642E+01 -0.30000054130E+02  0.57806242575E+03  0.57886043123E+03  0.00000000000E+00 0.  1.
</event>
<event>
12    1  0.2614920E-002  0.1938479E+03  0.7818608E-02  0.1155036E+00
          1   -1    0    0  502    0  0.00000000000E+00  0.00000000000E+00  0.13761525968E+04  0.13761525968E+04  0.00000000000E+00 0.  1.
         -1   -1    0    0    0  501 -0.00000000000E+00 -0.00000000000E+00 -0.68322087695E+02  0.68322087695E+02  0.00000000000E+00 0. -1.
          6    2    1    2  502    0  0.54572765283E+01  0.84568272477E+02  0.12207689660E+04  0.12369609057E+04  0.18059302071E+03 0.  0.
         24    2    3    3    0    0  0.14648334063E+02  0.10818197559E+03  0.58113386883E+03  0.59680683820E+03  0.80894468838E+02 0.  0.
         -6    2    1    2    0  501 -0.54572765283E+01 -0.84568272477E+02  0.87061543036E+02  0.20751377880E+03  0.16822806406E+03 0.  0.
        -24    2    5    5    0    0 -0.21595732978E+02  0.16316506896E+02  0.56785834900E+02  0.10085124091E+03  0.78827264749E+02 0.  0.
          5    1    3    3  502    0 -0.91910575345E+01 -0.23613703109E+02  0.63963509722E+03  0.64015406748E+03  0.47000000000E+01 0. -1.
        -11    1    4    4    0    0  0.28730296201E+02  0.54693408072E+02  0.45370033533E+03  0.45788731483E+03  0.00000000000E+00 0.  1.
         12    1    4    4    0    0 -0.14081962139E+02  0.53488567514E+02  0.12743353350E+03  0.13891952337E+03  0.00000000000E+00 0. -1.
         -5    1    5    5    0  501  0.16138456449E+02 -0.10088477937E+03  0.30275708136E+02  0.10666253789E+03  0.47000000000E+01 0.  1.
         11    1    6    6    0    0  0.11977428664E+02  0.33865178934E+02  0.51221951636E+02  0.62561949067E+02  0.00000000000E+00 0. -1.
        -12    1    6    6    0    0 -0.33573161642E+02 -0.17548672038E+02  0.55638832638E+01  0.38289291844E+02  0.00000000000E+00 0.  1.
</event>
<event>
12    1  0.2614920E-002  0.2425457E+03  0.7818608E-02  0.1118108E+00
          2   -1    0    0  502    0  0.00000000000E+00  0.00000000000E+00  0.43415184216E+04  0.43415184216E+04  0.00000000000E+00 0.  1.
         -2   -1    0    0    0  501 -0.00000000000E+00 -0.00000000000E+00 -0.13838352331E+02  0.13838352331E+02  0.00000000000E+00 0. -1.
          6    2    1    2  502    0 -0.16747270972E+03 -0.27238253747E+02  0.24814505333E+04  0.24933137412E+04  0.17386095536E+03 0.  0.
         24    2    3    3    0    0 -0.83029586250E+02 -0.81694624783E+02  0.12983957202E+04  0.13059903151E+04  0.78812009626E+02 0.  0.
         -6    2    1    2    0  501  0.16747270972E+03  0.27238253747E+02  0.18462295359E+04  0.18620430327E+04  0.17277651849E+03 0.  0.
        -24    2    5    5    0    0  0.10449326173E+03 -0.48229786676E+02  0.92082394423E+03  0.93141988924E+03  0.79883163095E+02 0.  0.
          5    1    3    3  502    0 -0.84443123471E+02  0.54456371036E+02  0.11830548131E+04  0.11873234261E+04  0.47000000000E+01 0. -1.
        -11    1    4    4    0    0 -0.49710616890E+02 -0.23361942615E+02  0.92287767039E+03  0.92451074644E+03  0.00000000000E+00 0.  1.
         12    1    4    4    0    0 -0.33318969359E+02 -0.58332682168E+02  0.37551804985E+03  0.38147956864E+03  0.00000000000E+00 0. -1.
         -5    1    5    5    0  501  0.62979447989E+02  0.75468040423E+02  0.92540559167E+03  0.93062314344E+03  0.47000000000E+01 0.  1.
         13    1    6    6    0    0  0.93150708417E+01  0.20546530926E+02  0.13545510149E+03  0.13732084692E+03  0.00000000000E+00 0. -1.
        -14    1    6    6    0    0  0.95178190890E+02 -0.68776317602E+02  0.78536884274E+03  0.79409904233E+03  0.00000000000E+00 0.  1.
</event>
<event>
12    1  0.2614920E-002  0.1819875E+03  0.7818608E-02  0.1165893E+00
          2   -1    0    0  502    0  0.00000000000E+00  0.00000000000E+00  0.10688286918E+04  0.10688286918E+04  0.00000000000E+00 0. -1.
         -2   -1    0    0    0  501 -0.00000000000E+00 -0.00000000000E+00 -0.43354130753E+02  0.43354130753E+02  0.00000000000E+00 0.  1.
          6    2    1    2  502    0 -0.16570641462E+02  0.59499553146E+02  0.80791522906E+03  0.82796078115E+03  0.17022706833E+03 0.  0.
         24    2    3    3    0    0  0.28519400466E+02  0.14184464272E+02  0.21141398698E+03  0.22802545884E+03  0.79279131907E+02 0.  0.
         -6    2    1    2    0  501  0.16570641462E+02 -0.59499553146E+02  0.21755933200E+03  0.28422204142E+03  0.17214912984E+03 0.  0.
        -24    2    5    5    0    0  0.16197959445E+02 -0.31140344341E+02  0.23448381881E+03  0.25086170764E+03  0.81956330692E+02 0.  0.
          5    1    3    3  502    0 -0.45090041928E+02  0.45315088874E+02  0.59650124208E+03  0.59993532231E+03  0.47000000000E+01 0. -1.
        -13    1    4    4    0    0  0.29397637387E+02 -0.28771866215E+02  0.12357673164E+03  0.13024304194E+03  0.00000000000E+00 0.  1.
         14    1    4    4    0    0 -0.87823692112E+00  0.42956330487E+02  0.87837255339E+02  0.97782416899E+02  0.00000000000E+00 0. -1.
         -5    1    5    5    0  501  0.37268201743E+00 -0.28359208805E+02 -0.16924486809E+02  0.33360333776E+02  0.47000000000E+01 0.  1.
         13    1    6    6    0    0 -0.18421384427E+02 -0.20297068388E+02  0.21570498864E+02  0.34879862537E+02  0.00000000000E+00 0. -1.
        -14    1    6    6    0    0  0.34619343872E+02 -0.10843275953E+02  0.21291331995E+03  0.21598184511E+03  0.00000000000E+00 0.  1.
</event>
<event>
12    1  0.2614920E-002  0.2426243E+03  0.7818608E-02  0.1118057E+00
         -2   -1    0    0    0  501 -0.00000000000E+00  0.00000000000E+00  0.59071698421E+02  0.59071698421E+02  0.00000000000E+00 0. -1.
          2   -1    0    0  502    0  0.00000000000E+00 -0.00000000000E+00 -0.13008622462E+04  0.13008622462E+04  0.00000000000E+00 0.  1.
          6    2    1    2  502    0 -0.17232994094E+03  0.22519778081E+02 -0.95315777403E+03  0.98398475567E+03  0.17178913892E+03 0.  0.
         24    2    3    3    0    0 -0.11521140851E+03  0.48690629211E+02 -0.39810569701E+03  0.42536830551E+03  0.82496080579E+02 0.  0.
         -6    2    1    2    0  501  0.17232994094E+03 -0.22519778081E+02 -0.28863277378E+03  0.37594918898E+03  0.16680577222E+03 0.  0.
        -24    2    5    5    0    0  0.26257151345E+02  0.43428665835E+01 -0.62986873896E+02  0.10576957525E+03  0.80694227049E+02 0.  0.
          5    1    3    3  502    0 -0.57118532434E+02 -0.26170851130E+02 -0.55505207702E+03  0.55861645017E+03  0.47000000000E+01 0. -1.
        -11    1    4    4    0    0 -0.87278186715E+02 -0.75392103872E+00 -0.29519807195E+03  0.30783104450E+03  0.00000000000E+00 0.  1.
         12    1    4    4    0    0 -0.27933221794E+02  0.49444550250E+02 -0.10290762506E+03  0.11753726101E+03  0.00000000000E+00 0. -1.
         -5    1    5    5    0  501  0.14607278960E+03 -0.26862644664E+02 -0.22564589989E+03  0.27017961373E+03  0.47000000000E+01 0.  1.
         11    1    6    6    0    0  0.22461840737E+02  0.15659196561E+02  0.11959056806E+02  0.29879152698E+02  0.00000000000E+00 0. -1.
        -12    1    6    6    0    0  0.37953106078E+01 -0.11316329978E+02 -0.74945930702E+02  0.75890422555E+02  0.00000000000E+00 0.  1.
</event>
<event>
12    1  0.2614920E-002  0.1944213E+03  0.7818608E-02  0.1154533E+00
          2   -1    0    0  502    0  0.00000000000E+00  0.00000000000E+00  0.26928795374E+04  0.26928795374E+04  0.00000000000E+00 0.  1.
         -2   -1    0    0    0  501 -0.00000000000E+00 -0.00000000000E+00 -0.17252453687E+02  0.17252453687E+02  0.00000000000E+00 0. -1.
          6    2    1    2  502    0  0.75425698516E+02 -0.56749333488E+02  0.75574907095E+03  0.78048747994E+03  0.17057117361E+03 0.  0.
         24    2    3    3    0    0  0.90552242723E+02 -0.94789470353E+02  0.60106123720E+03  0.62040537519E+03  0.80271205004E+02 0.  0.
         -6    2    1    2    0  501 -0.75425698516E+02  0.56749333488E+02  0.19198780128E+04  0.19296445112E+04  0.16937187674E+03 0.  0.
        -24    2    5    5    0    0 -0.20140513798E+02  0.51597980986E+02  0.53014392978E+03  0.53879372853E+03  0.78600914002E+02 0.  0.
          5    1    3    3  502    0 -0.15126544207E+02  0.38040136865E+02  0.15468783375E+03  0.16008210476E+03  0.47000000000E+01 0. -1.
        -13    1    4    4    0    0  0.54587677873E+02 -0.10098646544E+02  0.31669923360E+03  0.32152791760E+03  0.00000000000E+00 0.  1.
         14    1    4    4    0    0  0.35964564850E+02 -0.84690823809E+02  0.28436200360E+03  0.29887745759E+03  0.00000000000E+00 0. -1.
         -5    1    5    5    0  501 -0.55285184718E+02  0.51513525015E+01  0.13897340830E+04  0.13908507826E+04  0.47000000000E+01 0.  1.
         13    1    6    6    0    0  0.10633908626E+02  0.53688922458E+02  0.44266979495E+03  0.44604050014E+03  0.00000000000E+00 0. -1.
        -14    1    6    6    0    0 -0.30774422423E+02 -0.20909414716E+01  0.87474134835E+02  0.92753228390E+02  0.00000000000E+00 0.  1.
</event>
<event>
12    1  0.2614920E-002  0.1853934E+03  0.7818608E-02  0.1162683E+00
          2   -1    0    0  502    0  0.00000000000E+00  0.00000000000E+00  0.48578070396E+03  0.48578070396E+03  0.00000000000E+00 0. -1.
         -2   -1    0    0    0  501 -0.00000000000E+00 -0.00000000000E+00 -0.78856477903E+02  0.78856477903E+02  0.00000000000E+00 0.  1.
          6    2    1    2  502    0 -0.57539445923E+02  0.42318060877E+02  0.29324741555E+03  0.34655388807E+03  0.17030544470E+03 0.  0.
         24    2    3    3    0    0  0.75834787297E+01  0.84165625793E+01  0.21823776089E+03  0.24148797926E+03  0.10276369092E+03 0.  0.
         -6    2    1    2    0  501  0.57539445923E+02 -0.42318060877E+02  0.11367681050E+03  0.21808329379E+03  0.17186128032E+03 0.  0.
        -24    2    5    5    0    0 -0.21136318659E+02  0.16306231141E+02  0.24816809091E+02  0.85626231325E+02  0.77481225706E+02 0.  0.
          5    1    3    3  502    0 -0.65122924652E+02  0.33901498297E+02  0.75009654655E+02  0.10506590881E+03  0.47000000000E+01 0. -1.
        -13    1    4    4    0    0  0.42917013636E+02  0.36408588086E+02  0.14437005209E+03  0.15495214515E+03  0.00000000000E+00 0.  1.
         14    1    4    4    0    0 -0.35333534906E+02 -0.27992025507E+02  0.73867708802E+02  0.86535834107E+02  0.00000000000E+00 0. -1.
         -5    1    5    5    0  501  0.78675764581E+02 -0.58624292017E+02  0.88860001414E+02  0.13245706247E+03  0.47000000000E+01 0.  1.
         11    1    6    6    0    0  0.27559653995E+02  0.43949806896E+01  0.21783464057E+02  0.35402961598E+02  0.00000000000E+00 0. -1.
        -12    1    6    6    0    0 -0.48695972654E+02  0.11911250451E+02  0.30333450344E+01  0.50223269727E+02  0.00000000000E+00 0.  1.
</event>
<event>
12    1  0.2614920E-002  0.2424559E+03  0.7818608E-02  0.1118167E+00
         -1   -1    0    0    0  501 -0.00000000000E+00  0.00000000000E+00  0.28079157645E+03  0.28079157645E+03  0.00000000000E+00 0. -1.
          1   -1    0    0  502    0  0.00000000000E+00 -0.00000000000E+00 -0.25300026143E+03  0.25300026143E+03  0.00000000000E+00 0.  1.
          6    2    1    2  502    0  0.13798457919E+03  0.11462553858E+03  0.12484464924E+03  0.27808978428E+03  0.17195634180E+03 0.  0.
         24    2    3    3    0    0  0.49201630269E+01  0.12643517838E+02  0.40152631191E+02  0.90203384225E+02  0.79626315917E+02 0.  0.
         -6    2    1    2    0  501 -0.13798457919E+03 -0.11462553858E+03 -0.97053334225E+02  0.25570205360E+03  0.15422526493E+03 0.  0.
        -24    2    5    5    0    0 -0.86570718366E+02 -0.43159152616E+02 -0.13449329581E+01  0.12557512526E+03  0.80063109521E+02 0.  0.
          5    1    3    3  502    0  0.13306441616E+03  0.10198202074E+03  0.84692018049E+02  0.18788640005E+03  0.47000000000E+01 0. -1.
        -11    1    4    4    0    0 -0.30225162107E+02  0.24030231581E+02  0.36406247902E+02  0.53070022993E+02  0.00000000000E+00 0.  1.
         12    1    4    4    0    0  0.35145325134E+02 -0.11386713743E+02  0.37463832891E+01  0.37133361232E+02  0.00000000000E+00 0. -1.
         -5    1    5    5    0  501 -0.51413860826E+02 -0.71466385960E+02 -0.95708401267E+02  0.13012692834E+03  0.47000000000E+01 0.  1.
         11    1    6    6    0    0 -0.24766842351E+02 -0.56691219587E+02 -0.58855303802E+01  0.62144431176E+02  0.00000000000E+00 0. -1.
        -12    1    6    6    0    0 -0.61803876014E+02  0.13532066971E+02  0.45405974221E+01  0.63430694083E+02  0.00000000000E+00 0.  1.
</event>
<event>
12    1  0.2614920E-002  0.1977090E+03  0.7818608E-02  0.1151686E+00
          2   -1    0    0  502    0  0.00000000000E+00  0.00000000000E+00  0.21760489883E+04  0.21760489883E+04  0.00000000000E+00 0.  1.
         -2   -1    0    0    0  501 -0.00000000000E+00 -0.00000000000E+00 -0.32094676644E+02  0.32094676644E+02  0.00000000000E+00 0. -1.
          6    2    1    2  502    0  0.15144532877E+01 -0.98246783809E+02  0.33965302552E+03  0.39305290286E+03  0.17167318547E+03 0.  0.
         24    2    3    3    0    0 -0.39897923634E+02 -0.24963038213E+02  0.86994823649E+02  0.12670022444E+03  0.79182384057E+02 0.  0.
         -6    2    1    2    0  501 -0.15144532877E+01  0.98246783809E+02  0.18043012862E+04  0.18150907621E+04  0.17145442349E+03 0.  0.
        -24    2    5    5    0    0 -0.57869901930E+02  0.20488946615E+02  0.97029842334E+03  0.97556406031E+03  0.80482811473E+02 0.  0.
          5    1    3    3  502    0  0.41412376922E+02 -0.73283745596E+02  0.25265820187E+03  0.26635267842E+03  0.47000000000E+01 0. -1.
        -11    1    4    4    0    0 -0.30980336463E+01 -0.38403859483E+02  0.77255767773E+02  0.86330225818E+02  0.00000000000E+00 0.  1.
         12    1    4    4    0    0 -0.36799889988E+02  0.13440821270E+02  0.97390558762E+01  0.40369998624E+02  0.00000000000E+00 0. -1.
         -5    1    5    5    0  501  0.56355448642E+02  0.77757837194E+02  0.83400286284E+03  0.83952670182E+03  0.47000000000E+01 0.  1.
         11    1    6    6    0    0 -0.62930851787E+02  0.31715707035E+02  0.48337866701E+03  0.48848860161E+03  0.00000000000E+00 0. -1.
        -12    1    6    6    0    0  0.50609498569E+01 -0.11226760420E+02  0.48691975633E+03  0.48707545870E+03  0.00000000000E+00 0.  1.
</event>
<event>
12    1  0.2614920E-002  0.1883409E+03  0.7818608E-02  0.1159966E+00
          2   -1    0    0  502    0  0.00000000000E+00  0.00000000000E+00  0.10448390497E+04  0.10448390497E+04  0.00000000000E+00 0. -1.
         -2   -1    0    0    0  501 -0.00000000000E+00 -0.00000000000E+00 -0.67348877349E+02  0.67348877349E+02  0.00000000000E+00 0.  1.
          6    2    1    2  502    0  0.98025793416E+01 -0.73530954774E+02  0.98542485684E+02  0.21350983028E+03  0.17427832415E+03 0.  0.
         24    2    3    3    0    0  0.26282781010E+02 -0.84147597844E+02  0.58460336754E+01  0.11864660046E+03  0.79191141488E+02 0.  0.
         -6    2    1    2    0  501 -0.98025793416E+01  0.73530954774E+02  0.87894768666E+03  0.89867809676E+03  0.17196044267E+03 0.  0.
        -24    2    5    5    0    0 -0.20022849303E+02  0.20223496379E+02  0.78907733892E+03  0.79358333742E+03  0.79508253208E+02 0.  0.
          5    1    3    3  502    0 -0.16480201668E+02  0.10616643069E+02  0.92696452008E+02  0.94863229821E+02  0.47000000000E+01 0. -1.
        -13    1    4    4    0    0 -0.82343203855E+01 -0.83526581936E+02  0.56808756666E+01  0.84123517939E+02  0.00000000000E+00 0.  1.
         14    1    4    4    0    0  0.34517101395E+02 -0.62101590793E+00  0.16515800879E+00  0.34523082519E+02  0.00000000000E+00 0. -1.
         -5    1    5    5    0  501  0.10220269962E+02  0.53307458395E+02  0.89870347732E+02  0.10509475934E+03  0.47000000000E+01 0.  1.
         13    1    6    6    0    0 -0.14382500094E+02 -0.15340936289E+02  0.59299468571E+02  0.62917625575E+02  0.00000000000E+00 0. -1.
        -14    1    6    6    0    0 -0.56403492093E+01  0.35564432668E+02  0.72977787035E+03  0.73066571185E+03  0.00000000000E+00 0.  1.
</event>
<event>
12    1  0.2614920E-002  0.1764796E+03  0.7818608E-02  0.1171254E+00
         -1   -1    0    0    0  501 -0.00000000000E+00  0.00000000000E+00  0.28897093823E+02  0.28897093823E+02  0.00000000000E+00 0.  1.
          1   -1    0    0  502    0  0.00000000000E+00 -0.00000000000E+00 -0.12034620510E+04  0.12034620510E+04  0.00000000000E+00 0. -1.
          6    2    1    2  502    0  0.23929870078E+02  0.47828911804E+02 -0.39761734174E+03  0.43629000479E+03  0.17143271083E+03 0.  0.
         24    2    3    3    0    0 -0.12864331219E+02  0.41492190991E+01 -0.74750435004E+02  0.10837712266E+03  0.77299845702E+02 0.  0.
         -6    2    1    2    0  501 -0.23929870078E+02 -0.47828911804E+02 -0.77694761543E+03  0.79606914003E+03  0.16497949900E+03 0.  0.
        -24    2    5    5    0    0 -0.17357778128E+02 -0.92428275560E+02 -0.47860366783E+03  0.49430185103E+03  0.80178366675E+02 0.  0.
          5    1    3    3  502    0  0.36794201297E+02  0.43679692705E+02 -0.32286690674E+03  0.32791288214E+03  0.47000000000E+01 0. -1.
        -11    1    4    4    0    0  0.26010784276E+02  0.19599044056E+02 -0.16083284634E+02  0.36322933131E+02  0.00000000000E+00 0.  1.
         12    1    4    4    0    0 -0.38875115495E+02 -0.15449824957E+02 -0.58667150370E+02  0.72054189528E+02  0.00000000000E+00 0. -1.
         -5    1    5    5    0  501 -0.65720919502E+01  0.44599363756E+02 -0.29834394761E+03  0.30176728900E+03  0.47000000000E+01 0.  1.
         13    1    6    6    0    0  0.25513615564E+02 -0.39672976241E+02 -0.29022436789E+03  0.29403243586E+03  0.00000000000E+00 0. -1.
        -14    1    6    6    0    0 -0.42871393692E+02 -0.52755299319E+02 -0.18837929994E+03  0.20026941516E+03  0.00000000000E+00 0.  1.
</event>
<event>
12    1  0.2614920E-002  0.3161931E+03  0.7818608E-02  0.1077415E+00
          2   -1    0    0  502    0  0.00000000000E+00  0.00000000000E+00  0.10074118226E+04  0.10074118226E+04  0.00000000000E+00 0. -1.
         -2   -1    0    0    0  501 -0.00000000000E+00 -0.00000000000E+00 -0.23750828272E+03  0.23750828272E+03  0.00000000000E+00 0.  1.
          6    2    1    2  502    0 -0.16097554847E+03 -0.20983979042E+03  0.86025911270E+03  0.91678568462E+03  0.17465504772E+03 0.  0.
         24    2    3    3    0    0 -0.15026113013E+03 -0.88492547860E+02  0.58706563620E+03  0.61762566450E+03  0.80037878432E+02 0.  0.
         -6    2    1    2    0  501  0.16097554847E+03  0.20983979042E+03 -0.90355572831E+02  0.32813442069E+03  0.17193662685E+03 0.  0.
        -24    2    5    5    0    0  0.13860065142E+03  0.17101924182E+03 -0.13033764652E+03  0.26789882301E+03  0.79524559872E+02 0.  0.
          5    1    3    3  502    0 -0.10714418336E+02 -0.12134724256E+03  0.27319347650E+03  0.29916002013E+03  0.47000000000E+01 0. -1.
        -13    1    4    4    0    0 -0.15105562305E+03 -0.99366016241E+02  0.55915518984E+03  0.58766140997E+03  0.00000000000E+00 0.  1.
         14    1    4    4    0    0  0.79449291592E+00  0.10873468381E+02  0.27910446358E+02  0.29964254530E+02  0.00000000000E+00 0. -1.
         -5    1    5    5    0  501  0.22374897045E+02  0.38820548605E+02  0.39982073687E+02  0.60235597682E+02  0.47000000000E+01 0.  1.
         13    1    6    6    0    0  0.47692467948E+02  0.36743131556E+02 -0.75837936698E+02  0.96829860364E+02  0.00000000000E+00 0. -1.
        -14    1    6    6    0    0  0.90908183476E+02  0.13427611026E+03 -0.54499709820E+02  0.17106896265E+03  0.00000000000E+00 0.  1.
</event>
<event>
12    1  0.2614920E-002  0.1729559E+03  0.7818608E-02  0.1174800E+00
         -2   -1    0    0    0  501 -0.00000000000E+00  0.00000000000E+00  0.47034150999E+02  0.47034150999E+02  0.00000000000E+00 0. -1.
          2   -1    0    0  502    0  0.00000000000E+00 -0.00000000000E+00 -0.12212471179E+04  0.12212471179E+04  0.00000000000E+00 0.  1.
          6    2    1    2  502    0  0.18545232566E+02 -0.18582626914E+02 -0.14685426813E+03  0.22634601100E+03  0.17022661646E+03 0.  0.
         24    2    3    3    0    0 -0.52260849145E+02  0.51894194210E+01 -0.94651249345E+02  0.13509987922E+03  0.80839296977E+02 0.  0.
         -6    2    1    2    0  501 -0.18545232566E+02  0.18582626914E+02 -0.10273586987E+04  0.10419352578E+04  0.17167977762E+03 0.  0.
        -24    2    5    5    0    0 -0.48057631410E+02  0.62271830009E+02 -0.51055248057E+03  0.52242540686E+03  0.77956100291E+02 0.  0.
          5    1    3    3  502    0  0.70806081711E+02 -0.23772046335E+02 -0.52203018787E+02  0.91246131779E+02  0.47000000000E+01 0. -1.
        -11    1    4    4    0    0  0.16791925935E+02 -0.16778699755E+02 -0.27205758965E+02  0.36106050226E+02  0.00000000000E+00 0.  1.
         12    1    4    4    0    0 -0.69052775080E+02  0.21968119176E+02 -0.67445490381E+02  0.98993828995E+02  0.00000000000E+00 0. -1.
         -5    1    5    5    0  501  0.29512398844E+02 -0.43689203095E+02 -0.51680621815E+03  0.51950985099E+03  0.47000000000E+01 0.  1.
         13    1    6    6    0    0 -0.53134561370E+02  0.77732390742E+02 -0.42030143937E+03  0.43071905706E+03  0.00000000000E+00 0. -1.
        -14    1    6    6    0    0  0.50769299596E+01 -0.15460560733E+02 -0.90251041199E+02  0.91706349799E+02  0.00000000000E+00 0.  1.
</event>
<event>
12    1  0.2614920E-002  0.3456799E+03  0.7818608E-02  0.1064402E+00
          2   -1    0    0  502    0  0.00000000000E+00  0.00000000000E+00  0.14846976383E+04  0.14846976383E+04  0.00000000000E+00 0.  1.
         -2   -1    0    0    0  501 -0.00000000000E+00 -0.00000000000E+00 -0.82691639089E+02  0.82691639089E+02  0.00000000000E+00 0. -1.
          6    2    1    2  502    0 -0.21727599908E+03  0.20615732143E+03  0.82947880834E+03  0.89871048390E+03  0.17301947703E+03 0.  0.
         24    2    3    3    0    0 -0.90741825104E+02  0.16783372413E+03  0.58875388375E+03  0.62402853216E+03  0.79863856268E+02 0.  0.
         -6    2    1    2    0  501  0.21727599908E+03 -0.20615732143E+03  0.57252719085E+03  0.66867879346E+03  0.17214599505E+03 0.  0.
        -24    2    5    5    0    0  0.91268840999E+02 -0.66487108691E+02  0.13806166422E+03  0.19521500811E+03  0.79355776756E+02 0.  0.
          5    1    3    3  502    0 -0.12653417398E+03  0.38323597297E+02  0.24072492458E+03  0.27468195173E+03  0.47000000000E+01 0. -1.
        -11    1    4    4    0    0 -0.33981426169E+02  0.36147254224E+02  0.26977871670E+03  0.27430260169E+03  0.00000000000E+00 0.  1.
         12    1    4    4    0    0 -0.56760398934E+02  0.13168646991E+03  0.31897516706E+03  0.34972593047E+03  0.00000000000E+00 0. -1.
         -5    1    5    5    0  501  0.12600715808E+03 -0.13967021274E+03  0.43446552663E+03  0.47346378535E+03  0.47000000000E+01 0.  1.
         11    1    6    6    0    0  0.17694728814E+02 -0.54012704408E+02  0.31086004413E+02  0.64782832106E+02  0.00000000000E+00 0. -1.
        -12    1    6    6    0    0  0.73574112185E+02 -0.12474404284E+02  0.10697565981E+03  0.13043217600E+03  0.00000000000E+00 0.  1.
</event>
<event>
12    1  0.2614920E-002  0.1778706E+03  0.7818608E-02  0.1169880E+00
          1   -1    0    0  502    0  0.00000000000E+00  0.00000000000E+00  0.13305900712E+04  0.13305900712E+04  0.00000000000E+00 0. -1.
         -1   -1    0    0    0  501 -0.00000000000E+00 -0.00000000000E+00 -0.29600762629E+02  0.29600762629E+02  0.00000000000E+00 0.  1.
          6    2    1    2  502    0  0.32994144041E+02  0.13522023851E+02  0.34027067031E+03  0.38259207639E+03  0.17123407713E+03 0.  0.
         24    2    3    3    0    0 -0.16662288829E+01 -0.54767298709E+02  0.17029980949E+03  0.19610626847E+03  0.80333119527E+02 0.  0.
         -6    2    1    2    0  501 -0.32994144041E+02 -0.13522023851E+02  0.96071863826E+03  0.97759875745E+03  0.17733462715E+03 0.  0.
        -24    2    5    5    0    0 -0.38705110337E+02 -0.50536780206E+02  0.30574861184E+03  0.32154195134E+03  0.76517717625E+02 0.  0.
          5    1    3    3  502    0  0.34660372924E+02  0.68289322560E+02  0.16997086082E+03  0.18648580792E+03  0.47000000000E+01 0. -1.
        -13    1    4    4    0    0  0.23088598462E+02  0.72847020534E+01  0.81259429324E+02  0.84789416303E+02  0.00000000000E+00 0.  1.
         14    1    4    4    0    0 -0.24754827345E+02 -0.62052000763E+02  0.89040380167E+02  0.11131685216E+03  0.00000000000E+00 0. -1.
         -5    1    5    5    0  501  0.57109662960E+01  0.37014756355E+02  0.65497002643E+03  0.65605680611E+03  0.47000000000E+01 0.  1.
         11    1    6    6    0    0 -0.11946629999E+01  0.23194590584E+01  0.18048360277E+03  0.18050245976E+03  0.00000000000E+00 0. -1.
        -12    1    6    6    0    0 -0.37510447338E+02 -0.52856239264E+02  0.12526500907E+03  0.14103949158E+03  0.00000000000E+00 0.  1.
</event>
<event>
12    1  0.2614920E-002  0.2120816E+03  0.7818608E-02  0.1139928E+00
         -3   -1    0    0    0  501 -0.00000000000E+00  0.00000000000E+00  0.28301942881E+03  0.28301942881E+03  0.00000000000E+00 0.  1.
          3   -1    0    0  502    0  0.00000000000E+00 -0.00000000000E+00 -0.21852251077E+03  0.21852251077E+03  0.00000000000E+00 0. -1.
          6    2    1    2  502    0 -0.93193551935E+02 -0.84358122498E+02  0.16326658108E+03  0.26805615224E+03  0.17145493082E+03 0.  0.
         24    2    3    3    0    0 -0.46955356899E+02  0.19577263825E+02  0.44391451178E+02  0.10345383841E+03  0.78383805364E+02 0.  0.
         -6    2    1    2    0  501  0.93193551935E+02  0.84358122498E+02 -0.98769663041E+02  0.23348578734E+03  0.17017295789E+03 0.  0.
        -24    2    5    5    0    0  0.33002773810E+02  0.15093291205E+01 -0.96999473803E+02  0.13095737223E+03  0.81544308623E+02 0.  0.
          5    1    3    3  502    0 -0.46238195036E+02 -0.10393538632E+03  0.11887512990E+03  0.16460231384E+03  0.47000000000E+01 0. -1.
        -11    1    4    4    0    0  0.61971165666E+01 -0.22877016299E+02  0.31691211378E+01  0.23912454020E+02  0.00000000000E+00 0.  1.
         12    1    4    4    0    0 -0.53152473465E+02  0.42454280124E+02  0.41222330040E+02  0.79541384388E+02  0.00000000000E+00 0. -1.
         -5    1    5    5    0  501  0.60190778125E+02  0.82848793378E+02 -0.17701892379E+01  0.10252841511E+03  0.47000000000E+01 0.  1.
         11    1    6    6    0    0  0.29492244018E+02  0.30467728729E+02 -0.92080657099E+02  0.10137515654E+03  0.00000000000E+00 0. -1.
        -12    1    6    6    0    0  0.35105297920E+01 -0.28958399609E+02 -0.49188167043E+01  0.29582215690E+02  0.00000000000E+00 0.  1.
</event>
<event>
12    1  0.2614920E-002  0.1925640E+03  0.7818608E-02  0.1156169E+00
          3   -1    0    0  502    0  0.00000000000E+00  0.00000000000E+00  0.15219850303E+03  0.15219850303E+03  0.00000000000E+00 0. -1.
         -3   -1    0    0    0  501 -0.00000000000E+00 -0.00000000000E+00 -0.50183934975E+03  0.50183934975E+03  0.00000000000E+00 0.  1.
          6    2    1    2  502    0 -0.55357453535E+02 -0.39875031258E+02 -0.40627014107E+03  0.44684567092E+03  0.17309292394E+03 0.  0.
         24    2    3    3    0    0 -0.52531515400E+02 -0.82841233452E+02 -0.36209252072E+03  0.38497619058E+03  0.86449081473E+02 0.  0.
         -6    2    1    2    0  501  0.55357453535E+02  0.39875031258E+02  0.56629294349E+02  0.20719218187E+03  0.18726253621E+03 0.  0.
        -24    2    5    5    0    0  0.85656786708E+01  0.45573522579E+02  0.10499653464E+03  0.13949120011E+03  0.79266675279E+02 0.  0.
          5    1    3    3  502    0 -0.28259381355E+01  0.42966202194E+02 -0.44177620352E+02  0.61869480338E+02  0.47000000000E+01 0. -1.
        -13    1    4    4    0    0 -0.68351210115E+02 -0.68490640083E+02 -0.20794054586E+03  0.22935153437E+03  0.00000000000E+00 0.  1.
         14    1    4    4    0    0  0.15819694716E+02 -0.14350593369E+02 -0.15415197486E+03  0.15562465622E+03  0.00000000000E+00 0. -1.
         -5    1    5    5    0  501  0.46791774865E+02 -0.56984913205E+01 -0.48367240289E+02  0.67700981761E+02  0.47000000000E+01 0.  1.
         13    1    6    6    0    0 -0.20055118314E+02  0.42415112231E+02  0.22343684350E+02  0.51966236601E+02  0.00000000000E+00 0. -1.
        -14    1    6    6    0    0  0.28620796985E+02  0.31584103485E+01  0.82652850288E+02  0.87524963506E+02  0.00000000000E+00 0.  1.
</event>
<event>
12    1  0.2614920E-002  0.2000363E+03  0.7818608E-02  0.1149708E+00
         -2   -1    0    0    0  501 -0.00000000000E+00  0.00000000000E+00  0.54119430932E+03  0.54119430932E+03  0.00000000000E+00 0. -1.
          2   -1    0    0  502    0  0.00000000000E+00 -0.00000000000E+00 -0.76281070931E+02  0.76281070931E+02  0.00000000000E+00 0.  1.
          6    2    1    2  502    0  0.16158396683E+02 -0.99126601939E+02  0.17816171067E+03  0.26775453520E+03  0.17281122352E+03 0.  0.
         24    2    3    3    0    0 -0.71382180121E+01 -0.10790704624E+03  0.65907079028E+02  0.15267621064E+03  0.85272489373E+02 0.  0.
         -6    2    1    2    0  501 -0.16158396683E+02  0.99126601939E+02  0.28675152772E+03  0.34972084506E+03  0.17317925344E+03 0.  0.
        -24    2    5    5    0    0  0.27358894119E+02  0.64943089270E+02  0.73070160282E+02  0.12894022107E+03  0.79499800971E+02 0.  0.
          5    1    3    3  502    0  0.23296614695E+02  0.87804443016E+01  0.11225463164E+03  0.11507832456E+03  0.47000000000E+01 0. -1.
        -13    1    4    4    0    0  0.11532907885E+02 -0.11034014023E+03  0.72722322486E+02  0.13265176478E+03  0.00000000000E+00 0.  1.
         14    1    4    4    0    0 -0.18671125897E+02  0.24330939909E+01 -0.68152434582E+01  0.20024445861E+02  0.00000000000E+00 0. -1.
         -5    1    5    5    0  501 -0.43517290802E+02  0.34183512669E+02  0.21368136744E+03  0.22078062399E+03  0.47000000000E+01 0.  1.
         11    1    6    6    0    0  0.18981625209E+02  0.23780191640E+02  0.80700633931E+02  0.86246112532E+02  0.00000000000E+00 0. -1.
        -12    1    6    6    0    0  0.83772689104E+01  0.41162897629E+02 -0.76304736492E+01  0.42694108537E+02  0.00000000000E+00 0.  1.
</event>
<event>
12    1  0.2614920E-002  0.1684783E+03  0.7818608E-02  0.1179444E+00
         -4   -1    0    0    0  501 -0.00000000000E+00  0.00000000000E+00  0.76598069652E+02  0.76598069652E+02  0.00000000000E+00 0.  1.
          4   -1    0    0  502    0  0.00000000000E+00 -0.00000000000E+00 -0.37154082617E+03  0.37154082617E+03  0.00000000000E+00 0. -1.
          6    2    1    2  502    0 -0.26103772833E+02 -0.61261419715E+01 -0.14663840430E+03  0.22871454920E+03  0.17346062039E+03 0.  0.
         24    2    3    3    0    0 -0.24498106350E+02  0.56692778490E+02 -0.44145685684E+02  0.10839978576E+03  0.77378573519E+02 0.  0.
         -6    2    1    2    0  501  0.26103772833E+02  0.61261419715E+01 -0.14830435222E+03  0.21942434663E+03  0.15948017567E+03 0.  0.
        -24    2    5    5    0    0  0.30297456319E+02  0.56819124275E+02 -0.12698956590E+03  0.16407296406E+03  0.81530601281E+02 0.  0.
          5    1    3    3  502    0 -0.16056664828E+01 -0.62818920462E+02 -0.10249271862E+03  0.12031476344E+03  0.47000000000E+01 0. -1.
        -11    1    4    4    0    0 -0.41414479866E+02  0.44654147000E+02 -0.14462732281E+01  0.60919977783E+02  0.00000000000E+00 0.  1.
         12    1    4    4    0    0  0.16916373516E+02  0.12038631490E+02 -0.42699412455E+02  0.47479807973E+02  0.00000000000E+00 0. -1.
         -5    1    5    5    0  501 -0.41936834859E+01 -0.50692982303E+02 -0.21314786318E+02  0.55351382564E+02  0.47000000000E+01 0.  1.
         11    1    6    6    0    0  0.45720858817E+02  0.95408072566E+01 -0.92283348218E+02  0.10342939762E+03  0.00000000000E+00 0. -1.
        -12    1    6    6    0    0 -0.15423402498E+02  0.47278317018E+02 -0.34706217686E+02  0.60643566442E+02  0.00000000000E+00 0.  1.
</event>
<event>
12    1  0.2614920E-002  0.3111626E+03  0.7818608E-02  0.1079790E+00
          2   -1    0    0  502    0  0.00000000000E+00  0.00000000000E+00  0.15782354157E+04  0.15782354157E+04  0.00000000000E+00 0. -1.
         -2   -1    0    0    0  501 -0.00000000000E+00 -0.00000000000E+00 -0.65128268421E+02  0.65128268421E+02  0.00000000000E+00 0.  1.
          6    2    1    2  502    0 -0.22532488497E+03 -0.12659026474E+03  0.55736528266E+03  0.63807633317E+03  0.17230481634E+03 0.  0.
         24    2    3    3    0    0 -0.12021339675E+03 -0.88169555119E+02  0.19656522884E+03  0.26028889993E+03  0.82989704362E+02 0.  0.
         -6    2    1    2    0  501  0.22532488497E+03  0.12659026474E+03  0.95574186467E+03  0.10052873510E+04  0.17425196490E+03 0.  0.
        -24    2    5    5    0    0  0.81979442356E+02  0.79227187021E+02  0.27163017628E+03  0.30470040476E+03  0.77857612724E+02 0.  0.
          5    1    3    3  502    0 -0.10511148822E+03 -0.38420709621E+02  0.36080005382E+03  0.37778743324E+03  0.47000000000E+01 0. -1.
        -11    1    4    4    0    0 -0.10060071125E+03 -0.23922087549E+02  0.12201630374E+03  0.15993982542E+03  0.00000000000E+00 0.  1.
         12    1    4    4    0    0 -0.19612685499E+02 -0.64247467570E+02  0.74548925103E+02  0.10034907451E+03  0.00000000000E+00 0. -1.
         -5    1    5    5    0  501  0.14334544261E+03  0.47363077718E+02  0.68411168839E+03  0.70058694624E+03  0.47000000000E+01 0.  1.
         13    1    6    6    0    0  0.19108998688E+02  0.52220202617E+02  0.19109807433E+03  0.19902406238E+03  0.00000000000E+00 0. -1.
        -14    1    6    6    0    0  0.62870443669E+02  0.27006984404E+02  0.80532101947E+02  0.10567634237E+03  0.00000000000E+00 0.  1.
</event>
<event>
12    1  0.2614920E-002  0.2062983E+03  0.7818608E-02  0.1144531E+00
         -1   -1    0    0    0  501 -0.00000000000E+00  0.00000000000E+00  0.30733215929E+03  0.30733215929E+03  0.00000000000E+00 0.  1.
          1   -1    0    0  502    0  0.00000000000E+00 -0.00000000000E+00 -0.34204837901E+03  0.34204837901E+03  0.00000000000E+00 0. -1.
          6    2    1    2  502    0 -0.62239719042E+02  0.95798839983E+02  0.23312733369E+03  0.31129392523E+03  0.17176831433E+03 0.  0.
         24    2    3    3    0    0  0.32658594289E+02  0.51753765042E+02  0.97359567681E+02  0.13982779217E+03  0.79548036233E+02 0.  0.
         -6    2    1    2    0  501  0.62239719042E+02 -0.95798839983E+02 -0.26784355340E+03  0.33808661307E+03  0.17178820817E+03 0.  0.
        -24    2    5    5    0    0  0.14089245176E+01 -0.59683241658E+02 -0.24309783098E+03  0.26299225387E+03  0.80649214280E+02 0.  0.
          5    1    3    3  502    0 -0.94898313331E+02  0.44045074941E+02  0.13576776601E+03  0.17146613306E+03  0.47000000000E+01 0. -1.
        -13    1    4    4    0    0 -0.18314039083E+02  0.21404540744E+02  0.68067748301E+02  0.73666659696E+02  0.00000000000E+00 0.  1.
         14    1    4    4    0    0  0.50972633372E+02  0.30349224298E+02  0.29291819380E+02  0.66161132479E+02  0.00000000000E+00 0. -1.
         -5    1    5    5    0  501  0.60830794525E+02 -0.36115598325E+02 -0.24745722422E+02  0.75094359196E+02  0.47000000000E+01 0.  1.
         11    1    6    6    0    0  0.10111557116E+02 -0.74331048692E+02 -0.14326988369E+03  0.16172077158E+03  0.00000000000E+00 0. -1.
        -12    1    6    6    0    0 -0.87026325985E+01  0.14647807035E+02 -0.99827947290E+02  0.10127148229E+03  0.00000000000E+00 0.  1.
</event>
<event>
12    1  0.2614920E-002  0.1932760E+03  0.7818608E-02  0.1155539E+00
          2   -1    0    0  502    0  0.00000000000E+00  0.00000000000E+00  0.61499834128E+03  0.61499834128E+03  0.00000000000E+00 0.  1.
         -2   -1    0    0    0  501 -0.00000000000E+00 -0.00000000000E+00 -0.77347817566E+02  0.77347817566E+02  0.00000000000E+00 0. -1.
          6    2    1    2  502    0 -0.85888016507E+02  0.20456291207E+02  0.42911420520E+03  0.47058930858E+03  0.17181410018E+03 0.  0.
         24    2    3    3    0    0  0.11149104517E+02 -0.30168200534E+02  0.16949547413E+03  0.18880389813E+03  0.76705758224E+02 0.  0.
         -6    2    1    2    0  501  0.85888016507E+02 -0.20456291207E+02  0.10853631851E+03  0.22175685026E+03  0.17204870523E+03 0.  0.
        -24    2    5    5    0    0  0.34335208082E+02  0.14967432598E+01 -0.11144021317E+02  0.89525607658E+02  0.81911528255E+02 0.  0.
          5    1    3    3  502    0 -0.97037121023E+02  0.50624491740E+02  0.25961873107E+03  0.28178541045E+03  0.47000000000E+01 0. -1.
        -11    1    4    4    0    0  0.86004219599E+01  0.21780462707E+02  0.95687417113E+02  0.98511103980E+02  0.00000000000E+00 0.  1.
         12    1    4    4    0    0  0.25486825569E+01 -0.51948663241E+02  0.73808057018E+02  0.90292794153E+02  0.00000000000E+00 0. -1.
         -5    1    5    5    0  501  0.51552808425E+02 -0.21953034467E+02  0.11968033983E+03  0.13223124260E+03  0.47000000000E+01 0.  1.
         11    1    6    6    0    0  0.10641264378E+02 -0.19628783032E+02 -0.40526629518E+02  0.46270220779E+02  0.00000000000E+00 0. -1.
        -12    1    6    6    0    0  0.23693943704E+02  0.21125526292E+02  0.29382608201E+02  0.43255386879E+02  0.00000000000E+00 0.  1.
</event>
<event>
12    1  0.2614920E-002  0.3365601E+03  0.7818608E-02  0.1068271E+00
          1   -1    0    0  502    0  0.00000000000E+00  0.00000000000E+00  0.72438209836E+03  0.72438209836E+03  0.00000000000E+00 0. -1.
         -1   -1    0    0    0  501 -0.00000000000E+00 -0.00000000000E+00 -0.17656619224E+03  0.17656619224E+03  0.00000000000E+00 0.  1.
          6    2    1    2  502    0  0.87947777841E+02  0.27579660251E+03  0.12150534520E+03  0.35774953779E+03  0.17153018770E+03 0.  0.
         24    2    3    3    0    0  0.31510599962E+02  0.42037374519E+02  0.55608962511E+02  0.10836438392E+03  0.76749099176E+02 0.  0.
         -6    2    1    2    0  501 -0.87947777841E+02 -0.27579660251E+03  0.42631056092E+03  0.54319875282E+03  0.17183018690E+03 0.  0.
        -24    2    5    5    0    0 -0.29193867484E+02 -0.20662500697E+03  0.38026001956E+03  0.44131904939E+03  0.81355058068E+02 0.  0.
          5    1    3    3  502    0  0.56437177879E+02  0.23375922799E+03  0.65896382692E+02  0.24938515387E+03  0.47000000000E+01 0. -1.
        -13    1    4    4    0    0  0.43219452230E+02  0.20713505646E+02  0.28442222398E+00  0.47927562667E+02  0.00000000000E+00 0.  1.
         14    1    4    4    0    0 -0.11708852268E+02  0.21323868873E+02  0.55324540287E+02  0.60436821252E+02  0.00000000000E+00 0. -1.
         -5    1    5    5    0  501 -0.58753910357E+02 -0.69171595536E+02  0.46050541361E+02  0.10187970343E+03  0.47000000000E+01 0.  1.
         13    1    6    6    0    0 -0.40516728455E+02 -0.45929234139E+02  0.12980871727E+03  0.14353188814E+03  0.00000000000E+00 0. -1.
        -14    1    6    6    0    0  0.11322860971E+02 -0.16069577283E+03  0.25045130228E+03  0.29778716125E+03  0.00000000000E+00 0.  1.
</event>
<event>
12    1  0.2614920E-002  0.1720727E+03  0.7818608E-02  0.1175703E+00
          2   -1    0    0  502    0  0.00000000000E+00  0.00000000000E+00  0.15778069069E+04  0.15778069069E+04  0.00000000000E+00 0. -1.
         -2   -1    0    0    0  501 -0.00000000000E+00 -0.00000000000E+00 -0.19791825015E+02  0.19791825015E+02  0.00000000000E+00 0.  1.
          6    2    1    2  502    0  0.10604585793E+02 -0.66727289462E+01  0.96334689456E+03  0.97869654144E+03  0.17219958890E+03 0.  0.
         24    2    3    3    0    0  0.69336275164E+02 -0.13239423016E+02  0.47631507488E+03  0.48806978291E+03  0.79707346302E+02 0.  0.
         -6    2    1    2    0  501 -0.10604585793E+02  0.66727289462E+01  0.59466818734E+03  0.61890219049E+03  0.17103416561E+03 0.  0.
        -24    2    5    5    0    0  0.26857040392E+02  0.62412423977E+02  0.40555062481E+03  0.41815899759E+03  0.75954109138E+02 0.  0.
          5    1    3    3  502    0 -0.58731689371E+02  0.65666940700E+01  0.48703181968E+03  0.49062675853E+03  0.47000000000E+01 0. -1.
        -11    1    4    4    0    0  0.36185253262E+02  0.18094525972E+02  0.85356827594E+02  0.94459369258E+02  0.00000000000E+00 0.  1.
         12    1    4    4    0    0  0.33151021902E+02 -0.31333948989E+02  0.39095824729E+03  0.39361041365E+03  0.00000000000E+00 0. -1.
         -5    1    5    5    0  501 -0.37461626186E+02 -0.55739695031E+02  0.18911756253E+03  0.20074319290E+03  0.47000000000E+01 0.  1.
         13    1    6    6    0    0 -0.10299754425E+02  0.54120305578E+02  0.31729404012E+03  0.32204130218E+03  0.00000000000E+00 0. -1.
        -14    1    6    6    0    0  0.37156794818E+02  0.82921183997E+01  0.88256584695E+02  0.96117695409E+02  0.00000000000E+00 0.  1.
</event>
<event>
12    1  0.2614920E-002  0.1960839E+03  0.7818608E-02  0.1153086E+00
          3   -1    0    0  502    0  0.00000000000E+00  0.00000000000E+00  0.50090230876E+03  0.50090230876E+03  0.00000000000E+00 0. -1.
         -3   -1    0    0    0  501 -0.00000000000E+00 -0.00000000000E+00 -0.83017267661E+02  0.83017267661E+02  0.00000000000E+00 0.  1.
          6    2    1    2  502    0  0.35148283671E+02 -0.86442354726E+02  0.12935874004E+03  0.23539478469E+03  0.17311654600E+03 0.  0.
         24    2    3    3    0    0 -0.27372677241E+02  0.70023737806E+01  0.50333863005E+02  0.97889115610E+02  0.79060005641E+02 0.  0.
         -6    2    1    2    0  501 -0.35148283671E+02  0.86442354726E+02  0.28852630106E+03  0.34852479173E+03  0.17179761789E+03 0.  0.
        -24    2    5    5    0    0 -0.69137190161E+02  0.72601280773E+02  0.28374084803E+03  0.31121779971E+03  0.79352082423E+02 0.  0.
          5    1    3    3  502    0  0.62520960912E+02 -0.93444728507E+02  0.79024877030E+02  0.13750566908E+03  0.47000000000E+01 0. -1.
        -13    1    4    4    0    0  0.95827595470E+01  0.27840532064E+02 -0.31612073540E+01  0.29612796863E+02  0.00000000000E+00 0.  1.
         14    1    4    4    0    0 -0.36955436788E+02 -0.20838158283E+02  0.53495070359E+02  0.68276318746E+02  0.00000000000E+00 0. -1.
         -5    1    5    5    0  501  0.33988906490E+02  0.13841073953E+02  0.47854530315E+01  0.37306992016E+02  0.47000000000E+01 0.  1.
         11    1    6    6    0    0 -0.67725653469E+02  0.14613871052E+02  0.16893690559E+03  0.18259246270E+03  0.00000000000E+00 0. -1.
        -12    1    6    6    0    0 -0.14115366922E+01  0.57987409721E+02  0.11480394244E+03  0.12862533701E+03  0.00000000000E+00 0.  1.
</event>
<event>
12    1  0.2614920E-002  0.2284209E+03  0.7818608E-02  0.1127756E+00
          1   -1    0    0  502    0  0.00000000000E+00  0.00000000000E+00  0.14092212459E+04  0.14092212459E+04  0.00000000000E+00 0.  1.
         -1   -1    0    0    0  501 -0.00000000000E+00 -0.00000000000E+00 -0.37026464148E+02  0.37026464148E+02  0.00000000000E+00 0. -1.
          6    2    1    2  502    0 -0.31382367265E+01 -0.14923111090E+03  0.69048316834E+03  0.72723553419E+03  0.17269841758E+03 0.  0.
         24    2    3    3    0    0 -0.34329545305E+02 -0.27148351907E+02  0.40540464676E+03  0.41551618727E+03  0.79907594008E+02 0.  0.
         -6    2    1    2    0  501  0.31382367265E+01  0.14923111090E+03  0.68171161336E+03  0.71901217581E+03  0.17311271525E+03 0.  0.
        -24    2    5    5    0    0 -0.38298778094E+02  0.11239603154E+03  0.29302014838E+03  0.32635839165E+03  0.80927919355E+02 0.  0.
          5    1    3    3  502    0  0.31191308579E+02 -0.12208275899E+03  0.28507852159E+03  0.31171934692E+03  0.47000000000E+01 0. -1.
        -13    1    4    4    0    0 -0.35344187711E+02 -0.32454171715E+02  0.40705054866E+03  0.40986904498E+03  0.00000000000E+00 0.  1.
         14    1    4    4    0    0  0.10146424051E+01  0.53058198081E+01 -0.16459019003E+01  0.56471422960E+01  0.00000000000E+00 0. -1.
         -5    1    5    5    0  501  0.41437014820E+02  0.36835079358E+02  0.38869146498E+03  0.39265378416E+03  0.47000000000E+01 0. -1.
         11    1    6    6    0    0 -0.41696488386E+02  0.10050490684E+03  0.16441601679E+03  0.19716100025E+03  0.00000000000E+00 0. -1.
        -12    1    6    6    0    0  0.33977102917E+01  0.11891124708E+02  0.12860413159E+03  0.12919739140E+03  0.00000000000E+00 0.  1.
</event>
<event>
12    1  0.2614920E-002  0.2974692E+03  0.7818608E-02  0.1086513E+00
          1   -1    0    0  502    0  0.00000000000E+00  0.00000000000E+00  0.16028625761E+04  0.16028625761E+04  0.00000000000E+00 0. -1.
         -1   -1    0    0    0  501 -0.00000000000E+00 -0.00000000000E+00 -0.57141066210E+02  0.57141066210E+02  0.00000000000E+00 0.  1.
          6    2    1    2  502    0 -0.24278985960E+03  0.15634933401E+01  0.61957218029E+03  0.68718673114E+03  0.17148339985E+03 0.  0.
         24    2    3    3    0    0 -0.73558942254E+02 -0.19317779107E+02  0.14353845700E+03  0.18151358905E+03  0.80992590985E+02 0.  0.
         -6    2    1    2    0  501  0.24278985960E+03 -0.15634933401E+01  0.92614932963E+03  0.97281691121E+03  0.17225214516E+03 0.  0.
        -24    2    5    5    0    0  0.56561683809E+02 -0.12592907154E+02  0.46257701473E+03  0.47309302487E+03  0.80509069305E+02 0.  0.
          5    1    3    3  502    0 -0.16923091735E+03  0.20881272447E+02  0.47603372328E+03  0.50567314209E+03  0.47000000000E+01 0. -1.
        -11    1    4    4    0    0 -0.39089265167E+02 -0.25629716447E+02  0.13841978301E+03  0.14609890262E+03  0.00000000000E+00 0.  1.
         12    1    4    4    0    0 -0.34469677088E+02  0.63119373397E+01  0.51186739905E+01  0.35414686430E+02  0.00000000000E+00 0. -1.
         -5    1    5    5    0  501  0.18622817579E+03  0.11029413814E+02  0.46357231490E+03  0.49972388633E+03  0.47000000000E+01 0.  1.
         11    1    6    6    0    0  0.56332854721E+02  0.24956745839E+02  0.28169487588E+03  0.28835435280E+03  0.00000000000E+00 0. -1.
        -12    1    6    6    0    0  0.22882908842E+00 -0.37549652994E+02  0.18088213885E+03  0.18473867207E+03  0.00000000000E+00 0.  1.
</event>
<event>
12    1  0.2614920E-002  0.3722850E+03  0.7818608E-02  0.1053823E+00
          2   -1    0    0  502    0  0.00000000000E+00  0.00000000000E+00  0.11001912584E+04  0.11001912584E+04  0.00000000000E+00 0. -1.
         -2   -1    0    0    0  501 -0.00000000000E+00 -0.00000000000E+00 -0.13764578446E+03  0.13764578446E+03  0.00000000000E+00 0.  1.
          6    2    1    2  502    0 -0.11452023547E+03  0.30952013804E+03  0.30099944425E+03  0.47871195283E+03  0.17218265928E+03 0.  0.
         24    2    3    3    0    0 -0.10736634874E+03  0.28264185291E+03  0.19355272575E+03  0.36762411540E+03  0.79188905316E+02 0.  0.
         -6    2    1    2    0  501  0.11452023547E+03 -0.30952013804E+03  0.66154602972E+03  0.75912509006E+03  0.17236633297E+03 0.  0.
        -24    2    5    5    0    0  0.14906334216E+03 -0.26123094672E+03  0.57735949561E+03  0.65600120949E+03  0.80821483445E+02 0.  0.
          5    1    3    3  502    0 -0.71538867273E+01  0.26878285131E+02  0.10744671850E+03  0.11108783742E+03  0.47000000000E+01 0. -1.
        -13    1    4    4    0    0 -0.91578607969E+02  0.13132473910E+03  0.91128364146E+02  0.18422053981E+03  0.00000000000E+00 0.  1.
         14    1    4    4    0    0 -0.15787740772E+02  0.15131711381E+03  0.10242436160E+03  0.18340357559E+03  0.00000000000E+00 0. -1.
         -5    1    5    5    0  501 -0.34543106693E+02 -0.48289191312E+02  0.84186534110E+02  0.10312388057E+03  0.47000000000E+01 0.  1.
         13    1    6    6    0    0  0.81330211636E+02 -0.20456538643E+03  0.45076473180E+03  0.50164772908E+03  0.00000000000E+00 0. -1.
        -14    1    6    6    0    0  0.67733130526E+02 -0.56665560294E+02  0.12659476380E+03  0.15435348042E+03  0.00000000000E+00 0.  1.
</event>
<event>
12    1  0.2614920E-002  0.2372805E+03  0.7818608E-02  0.1121618E+00
         -2   -1    0    0    0  501 -0.00000000000E+00  0.00000000000E+00  0.28148949744E+03  0.28148949744E+03  0.00000000000E+00 0. -1.
          2   -1    0    0  502    0  0.00000000000E+00 -0.00000000000E+00 -0.20075847145E+03  0.20075847145E+03  0.00000000000E+00 0.  1.
          6    2    1    2  502    0  0.16193814322E+03  0.10274125380E+02  0.55193624771E+02  0.24477197957E+03  0.17474972356E+03 0.  0.
         24    2    3    3    0    0  0.21688474647E+02 -0.36161566337E+02  0.14631278801E+02  0.91495637916E+02  0.79870699420E+02 0.  0.
         -6    2    1    2    0  501 -0.16193814322E+03 -0.10274125380E+02  0.25537401215E+02  0.23747598932E+03  0.17150267275E+03 0.  0.
        -24    2    5    5    0    0 -0.56568092861E+02  0.53267231286E+02  0.33418156892E+02  0.11408819482E+03  0.76563672387E+02 0.  0.
          5    1    3    3  502    0  0.14024966857E+03  0.46435691718E+02  0.40562345970E+02  0.15327634165E+03  0.47000000000E+01 0. -1.
        -11    1    4    4    0    0  0.13798186798E+02 -0.15522844170E+02 -0.32998461404E+02  0.38990346306E+02  0.00000000000E+00 0.  1.
         12    1    4    4    0    0  0.78902878496E+01 -0.20638722168E+02  0.47629740205E+02  0.52505291610E+02  0.00000000000E+00 0. -1.
         -5    1    5    5    0  501 -0.10537005036E+03 -0.63541356666E+02 -0.78807556777E+01  0.12338779449E+03  0.47000000000E+01 0.  1.
         11    1    6    6    0    0 -0.61447715964E+02  0.66976499762E+01  0.13880098391E+02  0.63350907205E+02  0.00000000000E+00 0. -1.
        -12    1    6    6    0    0  0.48796231023E+01  0.46569581310E+02  0.19538058502E+02  0.50737287620E+02  0.00000000000E+00 0.  1.
</event>
<event>
12    1  0.2614920E-002  0.2253672E+03  0.7818608E-02  0.1129944E+00
         -2   -1    0    0    0  501 -0.00000000000E+00  0.00000000000E+00  0.18533578821E+03  0.18533578821E+03  0.00000000000E+00 0.  1.
          2   -1    0    0  502    0  0.00000000000E+00 -0.00000000000E+00 -0.29367127959E+03  0.29367127959E+03  0.00000000000E+00 0. -1.
          6    2    1    2  502    0  0.26212277538E+02 -0.14210044590E+03  0.73141693025E+01  0.22729267844E+03  0.17529644714E+03 0.  0.
         24    2    3    3    0    0 -0.29739407175E+02 -0.12463617566E+03 -0.35559639628E+02  0.15452012009E+03  0.78697972768E+02 0.  0.
         -6    2    1    2    0  501 -0.26212277538E+02  0.14210044590E+03 -0.11564966068E+03  0.25171438936E+03  0.17060383811E+03 0.  0.
        -24    2    5    5    0    0 -0.49263655034E-01  0.14493633742E+03 -0.13959037249E+03  0.21582855290E+03  0.78038117760E+02 0.  0.
          5    1    3    3  502    0  0.55951684712E+02 -0.17464270233E+02  0.42873808931E+02  0.72772558352E+02  0.47000000000E+01 0. -1.
        -11    1    4    4    0    0 -0.81755310524E+01 -0.74049696096E+02  0.19179750002E+02  0.76928925705E+02  0.00000000000E+00 0.  1.
         12    1    4    4    0    0 -0.21563876123E+02 -0.50586479567E+02 -0.54739389630E+02  0.77591194381E+02  0.00000000000E+00 0. -1.
         -5    1    5    5    0  501 -0.26163013882E+02 -0.28358915289E+01  0.23940711808E+02  0.35885836455E+02  0.47000000000E+01 0.  1.
         11    1    6    6    0    0  0.16513723307E+02  0.22387776474E+02 -0.66732391819E+02  0.72298877660E+02  0.00000000000E+00 0. -1.
        -12    1    6    6    0    0 -0.16562986962E+02  0.12254856095E+03 -0.72857980670E+02  0.14352967524E+03  0.00000000000E+00 0.  1.
</event>
<event>
12    1  0.2614920E-002  0.2261371E+03  0.7818608E-02  0.1129389E+00
          1   -1    0    0  502    0  0.00000000000E+00  0.00000000000E+00  0.22859753544E+04  0.22859753544E+04  0.00000000000E+00 0. -1.
         -1   -1    0    0    0  501 -0.00000000000E+00 -0.00000000000E+00 -0.24111123892E+02  0.24111123892E+02  0.00000000000E+00 0.  1.
          6    2    1    2  502    0  0.37087072739E+02  0.13465862040E+03  0.79364363841E+03  0.82359260919E+03  0.17007694176E+03 0.  0.
         24    2    3    3    0    0  0.30741375214E+02  0.10344037544E+03  0.29641782331E+03  0.32532516304E+03  0.79548678875E+02 0.  0.
         -6    2    1    2    0  501 -0.37087072739E+02 -0.13465862040E+03  0.14682205921E+04  0.14864938691E+04  0.18569846740E+03 0.  0.
        -24    2    5    5    0    0 -0.34475858966E+02 -0.17271708796E+03  0.12007127933E+04  0.12162388454E+04  0.80659406529E+02 0.  0.
          5    1    3    3  502    0  0.63456975252E+01  0.31218244964E+02  0.49722581510E+03  0.49826744615E+03  0.47000000000E+01 0. -1.
        -13    1    4    4    0    0  0.44708236496E+02  0.21926020606E+02  0.88226567204E+02  0.10130895296E+03  0.00000000000E+00 0.  1.
         14    1    4    4    0    0 -0.13966861282E+02  0.81514354829E+02  0.20819125611E+03  0.22401621008E+03  0.00000000000E+00 0. -1.
         -5    1    5    5    0  501 -0.26112137727E+01  0.38058467557E+02  0.26750779885E+03  0.27025502371E+03  0.47000000000E+01 0.  1.
         11    1    6    6    0    0 -0.48479274383E+02 -0.51080991088E+02  0.49474879487E+03  0.49973580792E+03  0.00000000000E+00 0. -1.
        -12    1    6    6    0    0  0.14003415417E+02 -0.12163609687E+03  0.70596399840E+03  0.71650303749E+03  0.00000000000E+00 0.  1.
</event>
<event>
12    1  0.2614920E-002  0.2863311E+03  0.7818608E-02  0.1092280E+00
          1   -1    0    0  502    0  0.00000000000E+00  0.00000000000E+00  0.35151361821E+03  0.35151361821E+03  0.00000000000E+00 0.  1.
         -1   -1    0    0    0  501 -0.00000000000E+00 -0.00000000000E+00 -0.26213684196E+03  0.26213684196E+03  0.00000000000E+00 0. -1.
          6    2    1    2  502    0 -0.17383829953E+03  0.14767273969E+03 -0.57268531870E+02  0.29144062915E+03  0.17213646663E+03 0.  0.
         24    2    3    3    0    0 -0.99985979556E+02  0.15344889464E+03 -0.38402581597E+01  0.19998463118E+03  0.80220606784E+02 0.  0.
         -6    2    1    2    0  501  0.17383829953E+03 -0.14767273969E+03  0.14664530812E+03  0.32220983103E+03  0.17403257277E+03 0.  0.
        -24    2    5    5    0    0  0.82247687325E+02 -0.13378717597E+03  0.44828059062E+02  0.18447642429E+03  0.85780567243E+02 0.  0.
          5    1    3    3  502    0 -0.73852319978E+02 -0.57761549508E+01 -0.53428273710E+02  0.91455997965E+02  0.47000000000E+01 0. -1.
        -13    1    4    4    0    0 -0.50185327689E+02  0.24292793408E+02 -0.22858435789E+02  0.60259563668E+02  0.00000000000E+00 0.  1.
         14    1    4    4    0    0 -0.49800651867E+02  0.12915610123E+03  0.19018177629E+02  0.13972506751E+03  0.00000000000E+00 0. -1.
         -5    1    5    5    0  501  0.91590612209E+02 -0.13885563716E+02  0.10181724906E+03  0.13773340673E+03  0.47000000000E+01 0.  1.
         13    1    6    6    0    0  0.48142274379E+02 -0.15299031345E+02 -0.64790217006E+01  0.50928544694E+02  0.00000000000E+00 0. -1.
        -14    1    6    6    0    0  0.34105412946E+02 -0.11848814463E+03  0.51307080762E+02  0.13354787960E+03  0.00000000000E+00 0.  1.
</event>
<event>
12    1  0.2614920E-002  0.1792814E+03  0.7818608E-02  0.1168500E+00
         -2   -1    0    0    0  501 -0.00000000000E+00  0.00000000000E+00  0.31943930194E+02  0.31943930194E+02  0.00000000000E+00 0. -1.
          2   -1    0    0  502    0  0.00000000000E+00 -0.00000000000E+00 -0.10323385755E+04  0.10323385755E+04  0.00000000000E+00 0.  1.
          6    2    1    2  502    0 -0.11180876292E+02 -0.34291954582E+02 -0.40538160130E+03  0.44165647296E+03  0.17153788880E+03 0.  0.
         24    2    3    3    0    0 -0.35797582354E+02 -0.57223886460E+02 -0.39121354411E+03  0.40485050114E+03  0.79371601337E+02 0.  0.
         -6    2    1    2    0  501  0.11180876292E+02  0.34291954582E+02 -0.59501304399E+03  0.62262603271E+03  0.17978237942E+03 0.  0.
        -24    2    5    5    0    0 -0.24476326037E+02  0.99815169273E+01 -0.56191169958E+03  0.56803461893E+03  0.78866019072E+02 0.  0.
          5    1    3    3  502    0  0.24616706061E+02  0.22931931878E+02 -0.14168057189E+02  0.36805971818E+02  0.47000000000E+01 0. -1.
        -11    1    4    4    0    0 -0.21926198902E+01 -0.65226216791E+02 -0.19533257346E+03  0.20594679214E+03  0.00000000000E+00 0.  1.
         12    1    4    4    0    0 -0.33604962463E+02  0.80023303308E+01 -0.19588097065E+03  0.19890370900E+03  0.00000000000E+00 0. -1.
         -5    1    5    5    0  501  0.35657202330E+02  0.24310437655E+02 -0.33101344411E+02  0.54591413782E+02  0.47000000000E+01 0.  1.
         11    1    6    6    0    0  0.15772602183E+02  0.43950837861E+01 -0.26965107305E+02  0.31546929377E+02  0.00000000000E+00 0. -1.
        -12    1    6    6    0    0 -0.40248928221E+02  0.55864331412E+01 -0.53494659227E+03  0.53648768955E+03  0.00000000000E+00 0.  1.
</event>
<event>
12    1  0.2857443E-002  0.1939599E+03  0.7818608E-02  0.1154938E+00
         -3   -1    0    0    0  501 -0.00000000000E+00  0.00000000000E+00  0.13120061596E+03  0.13120061596E+03  0.00000000000E+00 0. -1.
          3   -1    0    0  502    0  0.00000000000E+00 -0.00000000000E+00 -0.30359298361E+03  0.30359298361E+03  0.00000000000E+00 0.  1.
          6    2    1    2  502    0  0.18135627537E+02 -0.87101434460E+02 -0.13776375071E+03  0.23859786870E+03  0.17330473468E+03 0.  0.
         24    2    3    3    0    0 -0.24507572159E+02  0.15239879579E+02 -0.93996281216E+02  0.11930885652E+03  0.67575345644E+02 0.  0.
         -6    2    1    2    0  501 -0.18135627537E+02  0.87101434460E+02 -0.34628616934E+02  0.19619573088E+03  0.17140029998E+03 0.  0.
        -24    2    5    5    0    0  0.45799481576E+02  0.57890855576E+02  0.15215016754E+02  0.10989721458E+03  0.79980981276E+02 0.  0.
          5    1    3    3  502    0  0.42643199696E+02 -0.10234131404E+03 -0.43767469498E+02  0.11928901218E+03  0.47000000000E+01 0. -1.
        -13    1    4    4    0    0  0.99395513200E+01 -0.18317404361E+02 -0.49838002388E+02  0.54019889531E+02  0.00000000000E+00 0.  1.
         14    1    4    4    0    0 -0.34447123479E+02  0.33557283940E+02 -0.44158278828E+02  0.65288966989E+02  0.00000000000E+00 0. -1.
         -5    1    5    5    0  501 -0.63935109113E+02  0.29210578884E+02 -0.49843633688E+02  0.86298516298E+02  0.47000000000E+01 0.  1.
         11    1    6    6    0    0 -0.10248083476E+02  0.30971331150E+02  0.31788174794E+02  0.45549254932E+02  0.00000000000E+00 0. -1.
        -12    1    6    6    0    0  0.56047565052E+02  0.26919524425E+02 -0.16573158040E+02  0.64347959649E+02  0.00000000000E+00 0.  1.
</event>
<event>
12    1  0.2614920E-002  0.2390810E+03  0.7818608E-02  0.1120407E+00
         -1   -1    0    0    0  501 -0.00000000000E+00  0.00000000000E+00  0.50052405613E+03  0.50052405613E+03  0.00000000000E+00 0.  1.
          1   -1    0    0  502    0  0.00000000000E+00 -0.00000000000E+00 -0.11424831562E+03  0.11424831562E+03  0.00000000000E+00 0. -1.
          6    2    1    2  502    0 -0.15266419946E+03  0.57030007196E+02  0.19819495692E+03  0.30954918271E+03  0.17314928833E+03 0.  0.
         24    2    3    3    0    0 -0.16506366562E+03  0.92361997043E+02  0.16039889984E+03  0.25613824564E+03  0.64048743975E+02 0.  0.
         -6    2    1    2    0  501  0.15266419946E+03 -0.57030007196E+02  0.18808078359E+03  0.30522318904E+03  0.17671455643E+03 0.  0.
        -24    2    5    5    0    0  0.90566247695E+02 -0.84973687842E+01  0.22523362073E+02  0.12180311810E+03  0.77809043442E+02 0.  0.
          5    1    3    3  502    0  0.12399466161E+02 -0.35331989846E+02  0.37796057079E+02  0.53410937067E+02  0.47000000000E+01 0. -1.
        -13    1    4    4    0    0 -0.75159465590E+02  0.11941265165E+02  0.84038938445E+02  0.11337584512E+03  0.00000000000E+00 0.  1.
         14    1    4    4    0    0 -0.89904200033E+02  0.80420731877E+02  0.76359961398E+02  0.14276240053E+03  0.00000000000E+00 0. -1.
         -5    1    5    5    0  501  0.62097951767E+02 -0.48532638412E+02  0.16555742152E+03  0.18342007094E+03  0.47000000000E+01 0.  1.
         13    1    6    6    0    0  0.76796292372E+01 -0.32396893171E+02  0.89664901793E+01  0.34480912669E+02  0.00000000000E+00 0. -1.
        -14    1    6    6    0    0  0.82886618458E+02  0.23899524387E+02  0.13556871894E+02  0.87322205428E+02  0.00000000000E+00 0.  1.
</event>
<event>
12    1  0.2614920E-002  0.1875395E+03  0.7818608E-02  0.1160699E+00
          1   -1    0    0  502    0  0.00000000000E+00  0.00000000000E+00  0.55623085691E+03  0.55623085691E+03  0.00000000000E+00 0. -1.
         -1   -1    0    0    0  501 -0.00000000000E+00 -0.00000000000E+00 -0.65603568258E+02  0.65603568258E+02  0.00000000000E+00 0.  1.
          6    2    1    2  502    0  0.54449776921E+02  0.49897332202E+02  0.30426361414E+03  0.35734440940E+03  0.17223286001E+03 0.  0.
         24    2    3    3    0    0  0.15036266382E+02  0.96606765905E+02  0.21458604408E+03  0.24871958450E+03  0.79090485374E+02 0.  0.
         -6    2    1    2    0  501 -0.54449776921E+02 -0.49897332202E+02  0.18636367451E+03  0.26449001578E+03  0.17253703168E+03 0.  0.
        -24    2    5    5    0    0 -0.19800295180E+00 -0.89084405573E+02  0.13015933378E+03  0.17696916331E+03  0.80253112550E+02 0.  0.
          5    1    3    3  502    0  0.39413510539E+02 -0.46709433704E+02  0.89677570067E+02  0.10862482489E+03  0.47000000000E+01 0. -1.
        -13    1    4    4    0    0  0.35598760589E+02  0.76548543007E+02  0.10138761775E+03  0.13193331734E+03  0.00000000000E+00 0.  1.
         14    1    4    4    0    0 -0.20562494208E+02  0.20058222899E+02  0.11319842633E+03  0.11678626716E+03  0.00000000000E+00 0. -1.
         -5    1    5    5    0  501 -0.54251773969E+02  0.39187073371E+02  0.56204340734E+02  0.87520852461E+02  0.47000000000E+01 0.  1.
         13    1    6    6    0    0 -0.36593181668E+01 -0.41712930855E+02  0.12172830209E+03  0.12872893513E+03  0.00000000000E+00 0. -1.
        -14    1    6    6    0    0  0.34613152150E+01 -0.47371474718E+02  0.84310316848E+01  0.48240228184E+02  0.00000000000E+00 0.  1.
</event>
<event>
12    1  0.2614920E-002  0.2082533E+03  0.7818608E-02  0.1142957E+00
         -2   -1    0    0    0  501 -0.00000000000E+00  0.00000000000E+00  0.38100779420E+03  0.38100779420E+03  0.00000000000E+00 0.  1.
          2   -1    0    0  502    0  0.00000000000E+00 -0.00000000000E+00 -0.11823640239E+03  0.11823640239E+03  0.00000000000E+00 0. -1.
          6    2    1    2  502    0  0.80578684657E+01 -0.11635078564E+03  0.83605048582E+02  0.22503810636E+03  0.17334910038E+03 0.  0.
         24    2    3    3    0    0 -0.59556125627E+02 -0.33067934701E+02  0.51352482573E+02  0.11292207953E+03  0.73985797109E+02 0.  0.
         -6    2    1    2    0  501 -0.80578684657E+01  0.11635078564E+03  0.17916634323E+03  0.27420609024E+03  0.17171478332E+03 0.  0.
        -24    2    5    5    0    0 -0.31890060621E+02  0.40326351359E+02  0.21583302563E+02  0.97564666166E+02  0.80061442369E+02 0.  0.
          5    1    3    3  502    0  0.67613994093E+02 -0.83282850937E+02  0.32252566009E+02  0.11211602683E+03  0.47000000000E+01 0. -1.
        -13    1    4    4    0    0 -0.60970043832E+02 -0.39744689129E+02  0.12957008025E+02  0.73924763211E+02  0.00000000000E+00 0.  1.
         14    1    4    4    0    0  0.14139182045E+01  0.66767544277E+01  0.38395474548E+02  0.38997316319E+02  0.00000000000E+00 0. -1.
         -5    1    5    5    0  501  0.23832192155E+02  0.76024434279E+02  0.15758304067E+03  0.17664142407E+03  0.47000000000E+01 0.  1.
         13    1    6    6    0    0 -0.33545467025E+02  0.55691794654E+02 -0.66752827756E+01  0.65356206667E+02  0.00000000000E+00 0. -1.
        -14    1    6    6    0    0  0.16554064047E+01 -0.15365443295E+02  0.28258585338E+02  0.32208459499E+02  0.00000000000E+00 0.  1.
</event>
<event>
12    1  0.2614920E-002  0.1813384E+03  0.7818608E-02  0.1166514E+00
         -1   -1    0    0    0  501 -0.00000000000E+00  0.00000000000E+00  0.23647083901E+03  0.23647083901E+03  0.00000000000E+00 0.  1.
          1   -1    0    0  502    0  0.00000000000E+00 -0.00000000000E+00 -0.14688369733E+03  0.14688369733E+03  0.00000000000E+00 0. -1.
          6    2    1    2  502    0 -0.17682272752E+01 -0.27566265304E+02  0.86955406308E+02  0.19532875431E+03  0.17271089706E+03 0.  0.
         24    2    3    3    0    0  0.33533425169E+01  0.13204342088E+02 -0.39156411795E+01  0.95488330751E+02  0.94430342092E+02 0.  0.
         -6    2    1    2    0  501  0.17682272752E+01  0.27566265304E+02  0.26317353721E+01  0.18802578203E+03  0.18596704833E+03 0.  0.
        -24    2    5    5    0    0 -0.27089085507E+02  0.13821531305E+02  0.71623141926E+02  0.11184464006E+03  0.80339876582E+02 0.  0.
          5    1    3    3  502    0 -0.51215697921E+01 -0.40770607392E+02  0.90871047487E+02  0.99840423555E+02  0.47000000000E+01 0. -1.
        -13    1    4    4    0    0  0.13574704874E+02 -0.29117019686E+02  0.27102266529E+02  0.42031015915E+02  0.00000000000E+00 0.  1.
         14    1    4    4    0    0 -0.10221362357E+02  0.42321361774E+02 -0.31017907708E+02  0.53457314836E+02  0.00000000000E+00 0. -1.
         -5    1    5    5    0  501  0.28857312782E+02  0.13744733999E+02 -0.68991406554E+02  0.76181141971E+02  0.47000000000E+01 0.  1.
         11    1    6    6    0    0  0.14860200680E+02  0.33489619754E+02  0.46305608351E+02  0.59047350155E+02  0.00000000000E+00 0. -1.
        -12    1    6    6    0    0 -0.41949286187E+02 -0.19668088449E+02  0.25317533575E+02  0.52797289904E+02  0.00000000000E+00 0.  1.
</event>
<event>
12    1  0.2614920E-002  0.1909182E+03  0.7818608E-02  0.1157636E+00
          2   -1    0    0  502    0  0.00000000000E+00  0.00000000000E+00  0.12761700273E+04  0.12761700273E+04  0.00000000000E+00 0. -1.
         -2   -1    0    0    0  501 -0.00000000000E+00 -0.00000000000E+00 -0.31067687930E+02  0.31067687930E+02  0.00000000000E+00 0.  1.
          6    2    1    2  502    0 -0.10469141003E+01  0.76648482096E+02  0.46115063118E+03  0.50207881445E+03  0.18315879843E+03 0.  0.
         24    2    3    3    0    0 -0.57216020933E+02  0.36749352194E+02  0.14918431840E+03  0.18256045904E+03  0.80300513146E+02 0.  0.
         -6    2    1    2    0  501  0.10469141003E+01 -0.76648482096E+02  0.78395170815E+03  0.80515890074E+03  0.16680674117E+03 0.  0.
        -24    2    5    5    0    0 -0.45966480422E+01  0.23283460364E+02  0.37909438574E+03  0.38808602411E+03  0.79592462630E+02 0.  0.
          5    1    3    3  502    0  0.56169106833E+02  0.39899129902E+02  0.31196631278E+03  0.31951835540E+03  0.47000000000E+01 0. -1.
        -13    1    4    4    0    0  0.14124501815E+02  0.29934717787E+02  0.55308870568E+02  0.64456652442E+02  0.00000000000E+00 0.  1.
         14    1    4    4    0    0 -0.71340522748E+02  0.68146344076E+01  0.93875447831E+02  0.11810380660E+03  0.00000000000E+00 0. -1.
         -5    1    5    5    0  501  0.56435621426E+01 -0.99931942460E+02  0.40485732241E+03  0.41707287663E+03  0.47000000000E+01 0.  1.
         11    1    6    6    0    0  0.14236972826E+02  0.20425838255E+02  0.36085463395E+03  0.36171255591E+03  0.00000000000E+00 0. -1.
        -12    1    6    6    0    0 -0.18833620868E+02  0.28576221086E+01  0.18239751793E+02  0.26373468194E+02  0.00000000000E+00 0.  1.
</event>
<event>
12    1  0.2614920E-002  0.1796930E+03  0.7818608E-02  0.1168101E+00
         -2   -1    0    0    0  501 -0.00000000000E+00  0.00000000000E+00  0.37082044730E+02  0.37082044730E+02  0.00000000000E+00 0.  1.
          2   -1    0    0  502    0  0.00000000000E+00 -0.00000000000E+00 -0.11816934424E+04  0.11816934424E+04  0.00000000000E+00 0. -1.
          6    2    1    2  502    0 -0.30274898399E+02  0.31239499592E+02 -0.88732056718E+03  0.90554054622E+03  0.17542353350E+03 0.  0.
         24    2    3    3    0    0  0.10742696082E+02  0.46834877079E+02 -0.25355020956E+03  0.27023541083E+03  0.80190755509E+02 0.  0.
         -6    2    1    2    0  501  0.30274898399E+02 -0.31239499592E+02 -0.25729083046E+03  0.31323494087E+03  0.17327746807E+03 0.  0.
        -24    2    5    5    0    0 -0.28828989886E+02 -0.35434169376E+02 -0.23083490206E+03  0.24817442280E+03  0.78861277600E+02 0.  0.
          5    1    3    3  502    0 -0.41017594481E+02 -0.15595377486E+02 -0.63377035763E+03  0.63530513540E+03  0.47000000000E+01 0. -1.
        -13    1    4    4    0    0 -0.23267274655E+01  0.25818959799E+02 -0.14100708718E+02  0.29510376686E+02  0.00000000000E+00 0.  1.
         14    1    4    4    0    0  0.13069423548E+02  0.21015917280E+02 -0.23944950084E+03  0.24072503414E+03  0.00000000000E+00 0. -1.
         -5    1    5    5    0  501  0.59103888285E+02  0.41946697841E+01 -0.26455928394E+02  0.65060518075E+02  0.47000000000E+01 0.  1.
         11    1    6    6    0    0 -0.19229695995E+02  0.99553415716E+01 -0.12579417593E+02  0.25042599323E+02  0.00000000000E+00 0. -1.
        -12    1    6    6    0    0 -0.95992938910E+01 -0.45389510948E+02 -0.21825548447E+03  0.22313182348E+03  0.00000000000E+00 0.  1.
</event>
<event>
12    1  0.2614920E-002  0.1955746E+03  0.7818608E-02  0.1153527E+00
         -2   -1    0    0    0  501 -0.00000000000E+00  0.00000000000E+00  0.10063894349E+03  0.10063894349E+03  0.00000000000E+00 0. -1.
          2   -1    0    0  502    0  0.00000000000E+00 -0.00000000000E+00 -0.57332127460E+03  0.57332127460E+03  0.00000000000E+00 0.  1.
          6    2    1    2  502    0 -0.96078446473E+02 -0.11996257204E+02 -0.42960725378E+03  0.47084419100E+03  0.16660396643E+03 0.  0.
         24    2    3    3    0    0 -0.12902606750E+03  0.32383905736E+01 -0.29940116878E+03  0.33559126203E+03  0.79512401635E+02 0.  0.
         -6    2    1    2    0  501  0.96078446473E+02  0.11996257204E+02 -0.43075077321E+02  0.20311602709E+03  0.17327919700E+03 0.  0.
        -24    2    5    5    0    0  0.12878323881E+03  0.24010016626E+02 -0.48824175655E+02  0.16749193428E+03  0.92239603347E+02 0.  0.
          5    1    3    3  502    0  0.32947621022E+02 -0.15234647778E+02 -0.13020608500E+03  0.13525292897E+03  0.47000000000E+01 0. -1.
        -11    1    4    4    0    0 -0.72229762830E+02 -0.37539430491E+02 -0.15100713021E+03  0.17155028666E+03  0.00000000000E+00 0.  1.
         12    1    4    4    0    0 -0.56796304665E+02  0.40777821064E+02 -0.14839403857E+03  0.16404097536E+03  0.00000000000E+00 0. -1.
         -5    1    5    5    0  501 -0.32704792333E+02 -0.12013759422E+02  0.57490983342E+01  0.35624092811E+02  0.47000000000E+01 0.  1.
         11    1    6    6    0    0  0.58239797040E+02  0.20996957517E+02 -0.70315651448E+02  0.93685842168E+02  0.00000000000E+00 0. -1.
        -12    1    6    6    0    0  0.70543441766E+02  0.30130591094E+01  0.21491475793E+02  0.73806092114E+02  0.00000000000E+00 0.  1.
</event>
<event>
12    1  0.2614920E-002  0.1870788E+03  0.7818608E-02  0.1161123E+00
          2   -1    0    0  502    0  0.00000000000E+00  0.00000000000E+00  0.11500408709E+04  0.11500408709E+04  0.00000000000E+00 0. -1.
         -2   -1    0    0    0  501 -0.00000000000E+00 -0.00000000000E+00 -0.43937730596E+02  0.43937730596E+02  0.00000000000E+00 0.  1.
          6    2    1    2  502    0 -0.72089878493E+02  0.91924008021E+01  0.22144182873E+03  0.28968896929E+03  0.17205163353E+03 0.  0.
         24    2    3    3    0    0  0.11315861942E+02 -0.36493140207E+02  0.85778373510E+02  0.12394715417E+03  0.80902222789E+02 0.  0.
         -6    2    1    2    0  501  0.72089878493E+02 -0.91924008021E+01  0.88466131157E+03  0.90428963220E+03  0.17272131285E+03 0.  0.
        -24    2    5    5    0    0  0.31610247678E+02  0.15714211320E+02  0.81409783509E+03  0.81908262515E+03  0.83035640115E+02 0.  0.
          5    1    3    3  502    0 -0.83405740434E+02  0.45685541009E+02  0.13566345522E+03  0.16574181511E+03  0.47000000000E+01 0. -1.
        -11    1    4    4    0    0 -0.15151905794E+02  0.11763421158E+02 -0.30762900741E+01  0.19427348948E+02  0.00000000000E+00 0.  1.
         12    1    4    4    0    0  0.26467767736E+02 -0.48256561365E+02  0.88854663584E+02  0.10451980523E+03  0.00000000000E+00 0. -1.
         -5    1    5    5    0  501  0.40479630814E+02 -0.24906612122E+02  0.70563476477E+02  0.85207007052E+02  0.47000000000E+01 0.  1.
         11    1    6    6    0    0 -0.90748693048E+01 -0.23372079684E+02  0.44419536220E+03  0.44490237937E+03  0.00000000000E+00 0. -1.
        -12    1    6    6    0    0  0.40685116983E+02  0.39086291004E+02  0.36990247289E+03  0.37418024579E+03  0.00000000000E+00 0.  1.
</event>
<event>
12    1  0.2614920E-002  0.1753388E+03  0.7818608E-02  0.1172392E+00
          2   -1    0    0  502    0  0.00000000000E+00  0.00000000000E+00  0.19474222423E+04  0.19474222423E+04  0.00000000000E+00 0.  1.
         -2   -1    0    0    0  501 -0.00000000000E+00 -0.00000000000E+00 -0.17719069653E+02  0.17719069653E+02  0.00000000000E+00 0. -1.
          6    2    1    2  502    0  0.27537657715E+02  0.16950694624E+02  0.64199663881E+03  0.66559633528E+03  0.17266484487E+03 0.  0.
         24    2    3    3    0    0  0.57058103582E+02  0.50758266037E+02  0.57135110556E+03  0.58176740246E+03  0.78607862126E+02 0.  0.
         -6    2    1    2    0  501 -0.27537657715E+02 -0.16950694624E+02  0.12877065338E+04  0.12995449766E+04  0.17199819903E+03 0.  0.
        -24    2    5    5    0    0 -0.35241945315E+02  0.43548393462E+02  0.10314308559E+04  0.10360704830E+04  0.80336654079E+02 0.  0.
          5    1    3    3  502    0 -0.29520445867E+02 -0.33807571413E+02  0.70645533252E+02  0.83828932819E+02  0.47000000000E+01 0. -1.
        -11    1    4    4    0    0  0.54447912842E+02 -0.73997260401E+00  0.36665787469E+03  0.37067926816E+03  0.00000000000E+00 0.  1.
         12    1    4    4    0    0  0.26101907405E+01  0.51498238641E+02  0.20469323087E+03  0.21108813430E+03  0.00000000000E+00 0. -1.
         -5    1    5    5    0  501  0.77042876001E+01 -0.60499088086E+02  0.25627567793E+03  0.26347449365E+03  0.47000000000E+01 0.  1.
         13    1    6    6    0    0 -0.13705491375E+02 -0.20175786195E+01  0.26731975617E+02  0.30108298486E+02  0.00000000000E+00 0. -1.
        -14    1    6    6    0    0 -0.21536453940E+02  0.45565972081E+02  0.10046988802E+04  0.10059621845E+04  0.00000000000E+00 0.  1.
</event>
<event>
12    1  0.2614920E-002  0.1809273E+03  0.7818608E-02  0.1166909E+00
         -2   -1    0    0    0  501 -0.00000000000E+00  0.00000000000E+00  0.73647042400E+03  0.73647042400E+03  0.00000000000E+00 0. -1.
          2   -1    0    0  502    0  0.00000000000E+00 -0.00000000000E+00 -0.45302016740E+02  0.45302016740E+02  0.00000000000E+00 0.  1.
          6    2    1    2  502    0 -0.28460039917E+02 -0.50718922967E+02  0.28998690394E+03  0.34124351971E+03  0.17021266777E+03 0.  0.
         24    2    3    3    0    0 -0.76553279439E+02 -0.58530545947E+02  0.24270374040E+03  0.27318642092E+03  0.80246405340E+02 0.  0.
         -6    2    1    2    0  501  0.28460039917E+02  0.50718922967E+02  0.40118150332E+03  0.44052892103E+03  0.17244346505E+03 0.  0.
        -24    2    5    5    0    0  0.63988381165E+02  0.62535573438E+02  0.37679319287E+03  0.39559813040E+03  0.80743790543E+02 0.  0.
          5    1    3    3  502    0  0.48093239522E+02  0.78116229805E+01  0.47283163544E+02  0.68057098792E+02  0.47000000000E+01 0. -1.
        -13    1    4    4    0    0 -0.21284160475E+02 -0.23617257085E+02  0.12977280941E+02  0.34339483687E+02  0.00000000000E+00 0.  1.
         14    1    4    4    0    0 -0.55269118964E+02 -0.34913288862E+02  0.22972645946E+03  0.23884693723E+03  0.00000000000E+00 0. -1.
         -5    1    5    5    0  501 -0.35528341249E+02 -0.11816650471E+02  0.24388310447E+02  0.44930790631E+02  0.47000000000E+01 0.  1.
         13    1    6    6    0    0  0.69858450070E+02  0.22949165323E+02  0.17408593326E+03  0.18897825112E+03  0.00000000000E+00 0. -1.
        -14    1    6    6    0    0 -0.58700689050E+01  0.39586408115E+02  0.20270725961E+03  0.20661987928E+03  0.00000000000E+00 0.  1.
</event>
<event>
12    1  0.2930969E-002  0.1972859E+03  0.7818608E-02  0.1152049E+00
         -1   -1    0    0    0  501 -0.00000000000E+00  0.00000000000E+00  0.30765460158E+02  0.30765460158E+02  0.00000000000E+00 0. -1.
          1   -1    0    0  502    0  0.00000000000E+00 -0.00000000000E+00 -0.13055972353E+04  0.13055972353E+04  0.00000000000E+00 0.  1.
          6    2    1    2  502    0 -0.81301498461E+02 -0.50314089750E+02 -0.76177173654E+03  0.78746503728E+03  0.17511015122E+03 0.  0.
         24    2    3    3    0    0 -0.73444268442E+02  0.35686298618E+02 -0.42318130007E+03  0.43800348498E+03  0.78083722058E+02 0.  0.
         -6    2    1    2    0  501  0.81301498461E+02  0.50314089750E+02 -0.51306003857E+03  0.54889765815E+03  0.17004880084E+03 0.  0.
        -24    2    5    5    0    0  0.45658342449E+02  0.32710164889E+02 -0.49607146370E+03  0.50541163261E+03  0.78736155362E+02 0.  0.
          5    1    3    3  502    0 -0.78572300185E+01 -0.86000388369E+02 -0.33859043648E+03  0.34946155230E+03  0.47000000000E+01 0. -1.
        -13    1    4    4    0    0 -0.12592879097E+02  0.33643344699E+02 -0.28164816090E+03  0.28392981841E+03  0.00000000000E+00 0.  1.
         14    1    4    4    0    0 -0.60851389345E+02  0.20429539198E+01 -0.14153313917E+03  0.15407366657E+03  0.00000000000E+00 0. -1.
         -5    1    5    5    0  501  0.35643156012E+02  0.17603924862E+02 -0.16988574871E+02  0.43486025539E+02  0.47000000000E+01 0.  1.
         13    1    6    6    0    0 -0.13364798789E+02  0.32885001222E+02 -0.13713711960E+03  0.14165673554E+03  0.00000000000E+00 0. -1.
        -14    1    6    6    0    0  0.59023141238E+02 -0.17483633355E+00 -0.35893434410E+03  0.36375489707E+03  0.00000000000E+00 0.  1.
</event>
<event>
12    1  0.2614920E-002  0.1909991E+03  0.7818608E-02  0.1157563E+00
         -2   -1    0    0    0  501 -0.00000000000E+00  0.00000000000E+00  0.10752085495E+03  0.10752085495E+03  0.00000000000E+00 0. -1.
          2   -1    0    0  502    0  0.00000000000E+00 -0.00000000000E+00 -0.34370806429E+03  0.34370806429E+03  0.00000000000E+00 0.  1.
          6    2    1    2  502    0 -0.44850740425E+00 -0.84989983667E+02 -0.92151668450E+02  0.21152235101E+03  0.17037099664E+03 0.  0.
         24    2    3    3    0    0 -0.99890702193E+01 -0.11061133024E+03 -0.11134499323E+03  0.17778884459E+03  0.82924772181E+02 0.  0.
         -6    2    1    2    0  501  0.44850740425E+00  0.84989983667E+02 -0.14403554090E+03  0.23970656823E+03  0.17172508067E+03 0.  0.
        -24    2    5    5    0    0  0.11869418709E+02 -0.22704437012E+02 -0.67969463099E+02  0.10728049961E+03  0.78948610634E+02 0.  0.
          5    1    3    3  502    0  0.95405628151E+01  0.25621346576E+02  0.19193324781E+02  0.33733506419E+02  0.47000000000E+01 0. -1.
        -13    1    4    4    0    0  0.32166079737E+02 -0.62656850803E+02 -0.36227105332E+02  0.79201898961E+02  0.00000000000E+00 0.  1.
         14    1    4    4    0    0 -0.42155149957E+02 -0.47954479440E+02 -0.75117887899E+02  0.98586945630E+02  0.00000000000E+00 0. -1.
         -5    1    5    5    0  501 -0.11420911305E+02  0.10769442068E+03 -0.76066077798E+02  0.13242606863E+03  0.47000000000E+01 0.  1.
         13    1    6    6    0    0 -0.45436032855E+01 -0.40720172623E+01 -0.79619421223E+02  0.79852851491E+02  0.00000000000E+00 0. -1.
        -14    1    6    6    0    0  0.16413021995E+02 -0.18632419750E+02  0.11649958125E+02  0.27427648114E+02  0.00000000000E+00 0.  1.
</event>
<event>
12    1  0.2614920E-002  0.2738905E+03  0.7818608E-02  0.1099073E+00
          2   -1    0    0  502    0  0.00000000000E+00  0.00000000000E+00  0.10849522455E+04  0.10849522455E+04  0.00000000000E+00 0. -1.
         -2   -1    0    0    0  501 -0.00000000000E+00 -0.00000000000E+00 -0.69676954198E+02  0.69676954198E+02  0.00000000000E+00 0.  1.
          6    2    1    2  502    0 -0.17114329880E+03  0.12627651965E+03  0.55521828192E+03  0.61840814149E+03  0.17007498567E+03 0.  0.
         24    2    3    3    0    0 -0.33756062729E+02  0.84896709627E+02  0.18566675607E+03  0.22195138273E+03  0.80270473462E+02 0.  0.
         -6    2    1    2    0  501  0.17114329880E+03 -0.12627651965E+03  0.46005700938E+03  0.53622105820E+03  0.17505651443E+03 0.  0.
        -24    2    5    5    0    0  0.85007012042E+02 -0.23213272651E+01  0.26421343783E+03  0.28891326590E+03  0.80190734055E+02 0.  0.
          5    1    3    3  502    0 -0.13738723607E+03  0.41379810022E+02  0.36955152584E+03  0.39645675876E+03  0.47000000000E+01 0. -1.
        -11    1    4    4    0    0  0.11770944550E+02  0.73753899302E+02  0.11074441461E+03  0.13357588916E+03  0.00000000000E+00 0.  1.
         12    1    4    4    0    0 -0.45527007279E+02  0.11142810325E+02  0.74922341464E+02  0.88375493572E+02  0.00000000000E+00 0. -1.
         -5    1    5    5    0  501  0.86136286754E+02 -0.12395519238E+03  0.19584357155E+03  0.24730779230E+03  0.47000000000E+01 0.  1.
         13    1    6    6    0    0 -0.15532760812E+02  0.16749355273E+01  0.26181877949E+02  0.30488732351E+02  0.00000000000E+00 0. -1.
        -14    1    6    6    0    0  0.10053977285E+03 -0.39962627924E+01  0.23803155988E+03  0.25842453355E+03  0.00000000000E+00 0.  1.
</event>
<event>
12    1  0.2614920E-002  0.1960744E+03  0.7818608E-02  0.1153094E+00
         -3   -1    0    0    0  501 -0.00000000000E+00  0.00000000000E+00  0.47798076739E+02  0.47798076739E+02  0.00000000000E+00 0.  1.
          3   -1    0    0  502    0  0.00000000000E+00 -0.00000000000E+00 -0.92163134559E+03  0.92163134559E+03  0.00000000000E+00 0. -1.
          6    2    1    2  502    0 -0.71901534739E+02 -0.52927190784E+02 -0.26892443145E+03  0.33429309396E+03  0.17737081107E+03 0.  0.
         24    2    3    3    0    0 -0.68402495790E+02 -0.10194664027E+03 -0.17062307058E+03  0.22429128830E+03  0.78245325081E+02 0.  0.
         -6    2    1    2    0  501  0.71901534739E+02  0.52927190784E+02 -0.60490883740E+03  0.63513632837E+03  0.17179154759E+03 0.  0.
        -24    2    5    5    0    0  0.33991327754E+02 -0.13520788149E+01 -0.52122353114E+03  0.52832460904E+03  0.79345350359E+02 0.  0.
          5    1    3    3  502    0 -0.34990389492E+01  0.49019449489E+02 -0.98301360865E+02  0.11000180567E+03  0.47000000000E+01 0. -1.
        -11    1    4    4    0    0  0.12605124350E+02  0.25846385326E+01 -0.10431188637E+02  0.16564395932E+02  0.00000000000E+00 0.  1.
         12    1    4    4    0    0 -0.81007620140E+02 -0.10453127880E+03 -0.16019188195E+03  0.20772689236E+03  0.00000000000E+00 0. -1.
         -5    1    5    5    0  501  0.37910206985E+02  0.54279269599E+02 -0.83685306267E+02  0.10681171933E+03  0.47000000000E+01 0.  1.
         11    1    6    6    0    0  0.29498988863E+02 -0.38726031386E+02 -0.29696020057E+03  0.30092400465E+03  0.00000000000E+00 0. -1.
        -12    1    6    6    0    0  0.44923388906E+01  0.37373952571E+02 -0.22426333057E+03  0.22740060439E+03  0.00000000000E+00 0.  1.
</event>
<event>
12    1  0.2614920E-002  0.1929173E+03  0.7818608E-02  0.1155856E+00
         -2   -1    0    0    0  501 -0.00000000000E+00  0.00000000000E+00  0.26518351251E+02  0.26518351251E+02  0.00000000000E+00 0.  1.
          2   -1    0    0  502    0  0.00000000000E+00 -0.00000000000E+00 -0.14803994470E+04  0.14803994470E+04  0.00000000000E+00 0. -1.
          6    2    1    2  502    0  0.67679759808E+02  0.47758192696E+02 -0.89562169739E+03  0.91598322295E+03  0.17327909578E+03 0.  0.
         24    2    3    3    0    0  0.13394611887E+02  0.63296782276E+02 -0.28484029395E+03  0.30257932841E+03  0.78957954942E+02 0.  0.
         -6    2    1    2    0  501 -0.67679759808E+02 -0.47758192696E+02 -0.55825939834E+03  0.59093457529E+03  0.17518196703E+03 0.  0.
        -24    2    5    5    0    0 -0.11433578573E+03 -0.40991241961E+02 -0.47802639870E+03  0.49775732158E+03  0.67083228247E+02 0.  0.
          5    1    3    3  502    0  0.54285147921E+02 -0.15538589580E+02 -0.61078140344E+03  0.61340389454E+03  0.47000000000E+01 0. -1.
        -11    1    4    4    0    0 -0.11760901067E+02  0.63787846847E+02 -0.25698016919E+03  0.26503964903E+03  0.00000000000E+00 0.  1.
         12    1    4    4    0    0  0.25155512955E+02 -0.49106457088E+00 -0.27860124758E+02  0.37539679380E+02  0.00000000000E+00 0. -1.
         -5    1    5    5    0  501  0.46656025922E+02 -0.67669507346E+01 -0.80232999643E+02  0.93177253709E+02  0.47000000000E+01 0.  1.
         13    1    6    6    0    0 -0.81308636538E+02  0.33234152620E+01 -0.24082861692E+03  0.25420574776E+03  0.00000000000E+00 0. -1.
        -14    1    6    6    0    0 -0.33027149191E+02 -0.44314657223E+02 -0.23719778178E+03  0.24355157382E+03  0.00000000000E+00 0.  1.
</event>
<event>
12    1  0.2614920E-002  0.2282952E+03  0.7818608E-02  0.1127845E+00
          2   -1    0    0  502    0  0.00000000000E+00  0.00000000000E+00  0.15516515187E+04  0.15516515187E+04  0.00000000000E+00 0. -1.
         -2   -1    0    0    0  501 -0.00000000000E+00 -0.00000000000E+00 -0.40846224408E+02  0.40846224408E+02  0.00000000000E+00 0.  1.
          6    2    1    2  502    0  0.76218820380E+02 -0.12948762896E+03  0.41940062400E+03  0.47744328732E+03  0.17169407258E+03 0.  0.
         24    2    3    3    0    0  0.11436678377E+03 -0.10838500339E+03  0.27412293407E+03  0.32569255385E+03  0.78135692621E+02 0.  0.
         -6    2    1    2    0  501 -0.76218820380E+02  0.12948762896E+03  0.10914046703E+04  0.11150544558E+04  0.17206373938E+03 0.  0.
        -24    2    5    5    0    0 -0.52268964703E+02  0.14909493134E+03  0.10399290660E+04  0.10548060556E+04  0.78752836773E+02 0.  0.
          5    1    3    3  502    0 -0.38147963385E+02 -0.21102625574E+02  0.14527768993E+03  0.15175073347E+03  0.47000000000E+01 0. -1.
        -11    1    4    4    0    0  0.72999437921E+02 -0.41204868682E+02  0.78845434103E+02  0.11507980543E+03  0.00000000000E+00 0.  1.
         12    1    4    4    0    0  0.41367345844E+02 -0.67180134708E+02  0.19527749997E+03  0.21061274842E+03  0.00000000000E+00 0. -1.
         -5    1    5    5    0  501 -0.23949855677E+02 -0.19607302376E+02  0.51475604262E+02  0.60248400207E+02  0.47000000000E+01 0.  1.
         11    1    6    6    0    0 -0.29651856564E+02  0.60701616362E+02  0.22890879407E+03  0.23866955153E+03  0.00000000000E+00 0. -1.
        -12    1    6    6    0    0 -0.22617108139E+02  0.88393314979E+02  0.81102027196E+03  0.81613650405E+03  0.00000000000E+00 0.  1.
</event>
<event>
12    1  0.2614920E-002  0.1759320E+03  0.7818608E-02  0.1171799E+00
          2   -1    0    0  502    0  0.00000000000E+00  0.00000000000E+00  0.39434101274E+03  0.39434101274E+03  0.00000000000E+00 0. -1.
         -2   -1    0    0    0  501 -0.00000000000E+00 -0.00000000000E+00 -0.10893656490E+03  0.10893656490E+03  0.00000000000E+00 0.  1.
          6    2    1    2  502    0 -0.23720106607E+02 -0.44669541011E+02  0.27203726642E+03  0.32085638518E+03  0.16243932479E+03 0.  0.
         24    2    3    3    0    0 -0.34664326229E+02  0.55567359814E+01  0.68060395446E+02  0.11044937785E+03  0.79588660062E+02 0.  0.
         -6    2    1    2    0  501  0.23720106607E+02  0.44669541011E+02  0.13367181420E+02  0.18242119245E+03  0.17475925888E+03 0.  0.
        -24    2    5    5    0    0 -0.53179100423E+02  0.10438418029E+02  0.74009824607E+01  0.97905256956E+02  0.81201524034E+02 0.  0.
          5    1    3    3  502    0  0.10944219622E+02 -0.50226276993E+02  0.20397687098E+03  0.21040700734E+03  0.47000000000E+01 0. -1.
        -11    1    4    4    0    0  0.23075436430E+02  0.68036450273E+01  0.43309409537E+01  0.24444271346E+02  0.00000000000E+00 0.  1.
         12    1    4    4    0    0 -0.57739762659E+02 -0.12469090459E+01  0.63729454492E+02  0.86005106499E+02  0.00000000000E+00 0. -1.
         -5    1    5    5    0  501  0.76899207031E+02  0.34231122982E+02  0.59661989597E+01  0.84515935495E+02  0.47000000000E+01 0.  1.
         13    1    6    6    0    0  0.15843118398E+01 -0.27714659392E+02  0.13528829928E+02  0.30881088524E+02  0.00000000000E+00 0. -1.
        -14    1    6    6    0    0 -0.54763412263E+02  0.38153077421E+02 -0.61278474674E+01  0.67024168432E+02  0.00000000000E+00 0.  1.
</event>
<event>
12    1  0.2614920E-002  0.2367527E+03  0.7818608E-02  0.1121975E+00
          1   -1    0    0  502    0  0.00000000000E+00  0.00000000000E+00  0.70272227527E+03  0.70272227527E+03  0.00000000000E+00 0.  1.
         -1   -1    0    0    0  501 -0.00000000000E+00 -0.00000000000E+00 -0.81414852401E+02  0.81414852401E+02  0.00000000000E+00 0. -1.
          6    2    1    2  502    0 -0.16215097346E+03  0.30234883648E+02  0.36418899264E+03  0.43344272368E+03  0.16742725575E+03 0.  0.
         24    2    3    3    0    0 -0.69048735384E+02  0.24282659214E+02  0.68547473831E+02  0.12339522191E+03  0.71904445099E+02 0.  0.
         -6    2    1    2    0  501  0.16215097346E+03 -0.30234883648E+02  0.25711843023E+03  0.35069440399E+03  0.17224863263E+03 0.  0.
        -24    2    5    5    0    0  0.13005240788E+02  0.83669689636E+01  0.67436798597E+02  0.10628539438E+03  0.80682840781E+02 0.  0.
          5    1    3    3  502    0 -0.93102238074E+02  0.59522244332E+01  0.29564151881E+03  0.31004750177E+03  0.47000000000E+01 0. -1.
        -11    1    4    4    0    0 -0.10706841253E+02 -0.19291407872E+02 -0.18129675366E+01  0.22137789379E+02  0.00000000000E+00 0.  1.
         12    1    4    4    0    0 -0.58341894132E+02  0.43574067087E+02  0.70360441367E+02  0.10125743253E+03  0.00000000000E+00 0. -1.
         -5    1    5    5    0  501  0.14914573267E+03 -0.38601852611E+02  0.18968163163E+03  0.24440900961E+03  0.47000000000E+01 0.  1.
         11    1    6    6    0    0  0.34737431644E+02 -0.24534673905E+02  0.38618329799E+02  0.57445755085E+02  0.00000000000E+00 0. -1.
        -12    1    6    6    0    0 -0.21732190856E+02  0.32901642868E+02  0.28818468798E+02  0.48839639297E+02  0.00000000000E+00 0.  1.
</event>
<event>
12    1  0.2614920E-002  0.2867280E+03  0.7818608E-02  0.1092070E+00
          2   -1    0    0  502    0  0.00000000000E+00  0.00000000000E+00  0.12730112316E+04  0.12730112316E+04  0.00000000000E+00 0. -1.
         -2   -1    0    0    0  501 -0.00000000000E+00 -0.00000000000E+00 -0.85688461154E+02  0.85688461154E+02  0.00000000000E+00 0.  1.
          6    2    1    2  502    0  0.17287179295E+03 -0.15064966822E+03  0.25666679274E+03  0.38490810959E+03  0.17232652437E+03 0.  0.
         24    2    3    3    0    0  0.13204264648E+03 -0.65632959659E+02  0.23410875543E+03  0.28782147311E+03  0.79318000036E+02 0.  0.
         -6    2    1    2    0  501 -0.17287179295E+03  0.15064966822E+03  0.93065597774E+03  0.97379158320E+03  0.17195789969E+03 0.  0.
        -24    2    5    5    0    0 -0.11654805352E+03  0.18405888090E+02  0.49569131061E+03  0.51566809258E+03  0.79255793408E+02 0.  0.
          5    1    3    3  502    0  0.40829146469E+02 -0.85016708566E+02  0.22558037309E+02  0.97086636485E+02  0.47000000000E+01 0. -1.
        -13    1    4    4    0    0  0.89212577862E+02 -0.45825111698E+02  0.85143612008E+02  0.13156085883E+03  0.00000000000E+00 0.  1.
         14    1    4    4    0    0  0.42830068617E+02 -0.19807847961E+02  0.14896514342E+03  0.15626061428E+03  0.00000000000E+00 0. -1.
         -5    1    5    5    0  501 -0.56323739426E+02  0.13224378013E+03  0.43496466713E+03  0.45812349062E+03  0.47000000000E+01 0.  1.
         11    1    6    6    0    0 -0.45613176859E+02  0.44838097380E+02  0.17995287702E+03  0.19098181805E+03  0.00000000000E+00 0. -1.
        -12    1    6    6    0    0 -0.70934876663E+02 -0.26432209290E+02  0.31573843360E+03  0.32468627453E+03  0.00000000000E+00 0.  1.
</event>
<event>
12    1  0.2614920E-002  0.2380633E+03  0.7818608E-02  0.1121090E+00
         -1   -1    0    0    0  501 -0.00000000000E+00  0.00000000000E+00  0.57608356529E+03  0.57608356529E+03  0.00000000000E+00 0. -1.
          1   -1    0    0  502    0  0.00000000000E+00 -0.00000000000E+00 -0.14950959409E+03  0.14950959409E+03  0.00000000000E+00 0.  1.
          6    2    1    2  502    0  0.16309426999E+03 -0.13074693382E+02  0.19012956987E+01  0.23938079918E+03  0.17472510862E+03 0.  0.
         24    2    3    3    0    0  0.13149090448E+03  0.42613943560E+02 -0.38841295285E+02  0.16334103514E+03  0.77883511691E+02 0.  0.
         -6    2    1    2    0  501 -0.16309426999E+03  0.13074693382E+02  0.42467267550E+03  0.48621236020E+03  0.17112828341E+03 0.  0.
        -24    2    5    5    0    0 -0.88369409209E+02 -0.42242769366E+02  0.33019770148E+03  0.35357964470E+03  0.79965236435E+02 0.  0.
          5    1    3    3  502    0  0.31603365505E+02 -0.55688636942E+02  0.40742590983E+02  0.76039764043E+02  0.47000000000E+01 0. -1.
        -13    1    4    4    0    0  0.12290828602E+03  0.15500008160E+02 -0.12386880900E+02  0.12449952547E+03  0.00000000000E+00 0.  1.
         14    1    4    4    0    0  0.85826184652E+01  0.27113935400E+02 -0.26454414385E+02  0.38841509665E+02  0.00000000000E+00 0. -1.
         -5    1    5    5    0  501 -0.74724860777E+02  0.55317462748E+02  0.94474974024E+02  0.13263271550E+03  0.47000000000E+01 0.  1.
         11    1    6    6    0    0 -0.99927211168E+02 -0.26285679296E+02  0.30194555557E+03  0.31913555583E+03  0.00000000000E+00 0. -1.
        -12    1    6    6    0    0  0.11557801959E+02 -0.15957090070E+02  0.28252145911E+02  0.34444088872E+02  0.00000000000E+00 0.  1.
</event>
<event>
12    1  0.2614920E-002  0.2047348E+03  0.7818608E-02  0.1145805E+00
         -2   -1    0    0    0  501 -0.00000000000E+00  0.00000000000E+00  0.36850417154E+02  0.36850417154E+02  0.00000000000E+00 0.  1.
          2   -1    0    0  502    0  0.00000000000E+00 -0.00000000000E+00 -0.20963038379E+04  0.20963038379E+04  0.00000000000E+00 0. -1.
          6    2    1    2  502    0  0.78890841091E+02 -0.78589493943E+02 -0.17521310481E+04  0.17640977324E+04  0.17227166474E+03 0.  0.
         24    2    3    3    0    0  0.10022781263E+03 -0.61771956831E+01 -0.93067482016E+03  0.93916668579E+03  0.76122734023E+02 0.  0.
         -6    2    1    2    0  501 -0.78890841091E+02  0.78589493943E+02 -0.30732237266E+03  0.36905652264E+03  0.17133476822E+03 0.  0.
        -24    2    5    5    0    0  0.16814798196E+02  0.31655848292E+02 -0.70882924079E+02  0.10965714074E+03  0.75600723673E+02 0.  0.
          5    1    3    3  502    0 -0.21336971541E+02 -0.72412298260E+02 -0.82145622791E+03  0.82493104662E+03  0.47000000000E+01 0. -1.
        -13    1    4    4    0    0 -0.56435790865E+01  0.10737299338E+02 -0.33885325081E+02  0.35991038299E+02  0.00000000000E+00 0.  1.
         14    1    4    4    0    0  0.10587139172E+03 -0.16914495021E+02 -0.89678949508E+03  0.90317564749E+03  0.00000000000E+00 0. -1.
         -5    1    5    5    0  501 -0.95705639287E+02  0.46933645651E+02 -0.23643944858E+03  0.25939938190E+03  0.47000000000E+01 0.  1.
         13    1    6    6    0    0  0.29295084629E+02  0.25607120213E+02 -0.82726174467E+02  0.91419617867E+02  0.00000000000E+00 0. -1.
        -14    1    6    6    0    0 -0.12480286433E+02  0.60487280795E+01  0.11843250387E+02  0.18237522874E+02  0.00000000000E+00 0.  1.
</event>
<event>
12    1  0.2614920E-002  0.1736807E+03  0.7818608E-02  0.1174063E+00
         -2   -1    0    0    0  501 -0.00000000000E+00  0.00000000000E+00  0.36746745455E+03  0.36746745455E+03  0.00000000000E+00 0.  1.
          2   -1    0    0  502    0  0.00000000000E+00 -0.00000000000E+00 -0.10664235711E+03  0.10664235711E+03  0.00000000000E+00 0. -1.
          6    2    1    2  502    0  0.17240470757E+02  0.94313731946E+01  0.24456221881E+03  0.30036781531E+03  0.17327423631E+03 0.  0.
         24    2    3    3    0    0  0.31692630278E+02 -0.10222875425E+02  0.25787719354E+03  0.27218035434E+03  0.80452273706E+02 0.  0.
         -6    2    1    2    0  501 -0.17240470757E+02 -0.94313731946E+01  0.16262878627E+02  0.17374199635E+03  0.17185928966E+03 0.  0.
        -24    2    5    5    0    0 -0.11539742494E+02  0.52101490088E+01 -0.57280762351E+02  0.98391949216E+02  0.78991003446E+02 0.  0.
          5    1    3    3  502    0 -0.14452159522E+02  0.19654248620E+02 -0.13314974730E+02  0.28187460966E+02  0.47000000000E+01 0. -1.
        -13    1    4    4    0    0  0.13554782990E+02 -0.45308715172E+02  0.15134897304E+03  0.15856583318E+03  0.00000000000E+00 0.  1.
         14    1    4    4    0    0  0.18137847288E+02  0.35085839747E+02  0.10652822050E+03  0.11361452116E+03  0.00000000000E+00 0. -1.
         -5    1    5    5    0  501 -0.57007282624E+01 -0.14641522203E+02  0.73543640978E+02  0.75350047136E+02  0.47000000000E+01 0.  1.
         11    1    6    6    0    0  0.12565804886E+02 -0.69528009655E+01 -0.67882409811E+02  0.69384886362E+02  0.00000000000E+00 0. -1.
        -12    1    6    6    0    0 -0.24105547380E+02  0.12162949974E+02  0.10601647460E+02  0.29007062854E+02  0.00000000000E+00 0.  1.
</event>
<event>
12    1  0.2614920E-002  0.2089309E+03  0.7818608E-02  0.1142415E+00
          1   -1    0    0  502    0  0.00000000000E+00  0.00000000000E+00  0.50244446132E+03  0.50244446132E+03  0.00000000000E+00 0. -1.
         -1   -1    0    0    0  501 -0.00000000000E+00 -0.00000000000E+00 -0.10082456715E+03  0.10082456715E+03  0.00000000000E+00 0.  1.
          6    2    1    2  502    0 -0.11813928645E+03 -0.76851660622E+01  0.88865806943E+02  0.22730387703E+03  0.17249338564E+03 0.  0.
         24    2    3    3    0    0 -0.67115996860E+02 -0.71676878559E+02  0.48041238479E+02  0.13572303439E+03  0.80440347554E+02 0.  0.
         -6    2    1    2    0  501  0.11813928645E+03  0.76851660622E+01  0.31275408723E+03  0.37596515144E+03  0.17181013719E+03 0.  0.
        -24    2    5    5    0    0  0.11035501804E+03  0.69136371119E+01  0.32979301300E+03  0.35663628487E+03  0.78739950958E+02 0.  0.
          5    1    3    3  502    0 -0.51023289591E+02  0.63991712496E+02  0.40824568464E+02  0.91580842643E+02  0.47000000000E+01 0. -1.
        -11    1    4    4    0    0 -0.65616282122E+02 -0.25397172546E+02  0.19460689363E+01  0.70386788797E+02  0.00000000000E+00 0.  1.
         12    1    4    4    0    0 -0.14997147385E+01 -0.46279706012E+02  0.46095169543E+02  0.65336245592E+02  0.00000000000E+00 0. -1.
         -5    1    5    5    0  501  0.77842684123E+01  0.77152895032E+00 -0.17038925771E+02  0.19328866575E+02  0.47000000000E+01 0.  1.
         13    1    6    6    0    0  0.44783746170E+02 -0.14076153720E+02  0.50360418859E+02  0.68846886729E+02  0.00000000000E+00 0. -1.
        -14    1    6    6    0    0  0.65571271869E+02  0.20989790832E+02  0.27943259414E+03  0.28778939814E+03  0.00000000000E+00 0.  1.
</event>
<event>
12    1  0.2614920E-002  0.2279760E+03  0.7818608E-02  0.1128073E+00
          2   -1    0    0  502    0  0.00000000000E+00  0.00000000000E+00  0.15484515991E+04  0.15484515991E+04  0.00000000000E+00 0.  1.
         -2   -1    0    0    0  501 -0.00000000000E+00 -0.00000000000E+00 -0.12390698379E+03  0.12390698379E+03  0.00000000000E+00 0. -1.
          6    2    1    2  502    0 -0.14226921801E+03  0.47403788273E+02  0.14262263484E+04  0.14443235642E+04  0.17164297742E+03 0.  0.
         24    2    3    3    0    0 -0.96727219657E+02  0.55031491603E+02  0.54224052899E+03  0.55912004275E+03  0.78776968928E+02 0.  0.
         -6    2    1    2    0  501  0.14226921801E+03 -0.47403788273E+02 -0.16817330828E+01  0.22803501869E+03  0.17178327039E+03 0.  0.
        -24    2    5    5    0    0  0.96713475024E+02  0.17669561309E+01  0.58307224183E+02  0.13795809146E+03  0.79221740848E+02 0.  0.
          5    1    3    3  502    0 -0.45541998357E+02 -0.76277033295E+01  0.88398581938E+03  0.88520352143E+03  0.47000000000E+01 0. -1.
        -11    1    4    4    0    0 -0.70086692696E+02  0.19770275113E+01  0.37872962662E+03  0.38516513759E+03  0.00000000000E+00 0.  1.
         12    1    4    4    0    0 -0.26640526961E+02  0.53054464091E+02  0.16351090236E+03  0.17395490516E+03  0.00000000000E+00 0. -1.
         -5    1    5    5    0  501  0.45555742989E+02 -0.49170744404E+02 -0.59988957266E+02  0.90076927226E+02  0.47000000000E+01 0.  1.
         11    1    6    6    0    0 -0.12624293047E+02  0.17553135544E+01 -0.22917840357E+01  0.12950141878E+02  0.00000000000E+00 0. -1.
        -12    1    6    6    0    0  0.10933776807E+03  0.11642576570E-01  0.60599008219E+02  0.12500794958E+03  0.00000000000E+00 0.  1.
</event>
<event>
12    1  0.2614920E-002  0.2563364E+03  0.7818608E-02  0.1109365E+00
         -1   -1    0    0    0  501 -0.00000000000E+00  0.00000000000E+00  0.75064217040E+02  0.75064217040E+02  0.00000000000E+00 0. -1.
          1   -1    0    0  502    0  0.00000000000E+00 -0.00000000000E+00 -0.94110181981E+03  0.94110181981E+03  0.00000000000E+00 0.  1.
          6    2    1    2  502    0  0.17577497464E+03  0.73769560678E+02 -0.56849982620E+03  0.62393449236E+03  0.17252074824E+03 0.  0.
         24    2    3    3    0    0  0.14164952931E+03 -0.13188812393E+02 -0.33490775557E+03  0.37231245412E+03  0.78834160272E+02 0.  0.
         -6    2    1    2    0  501 -0.17577497464E+03 -0.73769560678E+02 -0.29753777657E+03  0.39223154449E+03  0.17022945167E+03 0.  0.
        -24    2    5    5    0    0 -0.96766422266E+02 -0.10043732094E+03 -0.23929043766E+03  0.29040638417E+03  0.87318717881E+02 0.  0.
          5    1    3    3  502    0  0.34125445327E+02  0.86958373071E+02 -0.23359207064E+03  0.25162203824E+03  0.47000000000E+01 0. -1.
        -11    1    4    4    0    0  0.10608804802E+03  0.19190122924E+02 -0.17705199950E+03  0.20729289731E+03  0.00000000000E+00 0.  1.
         12    1    4    4    0    0  0.35561481294E+02 -0.32378935318E+02 -0.15785575607E+03  0.16501955681E+03  0.00000000000E+00 0. -1.
         -5    1    5    5    0  501 -0.79008552371E+02  0.26667760264E+02 -0.58247338907E+02  0.10182516032E+03  0.47000000000E+01 0.  1.
         11    1    6    6    0    0 -0.39725312553E+02 -0.25086794358E+02 -0.16090249242E+03  0.16762177596E+03  0.00000000000E+00 0. -1.
        -12    1    6    6    0    0 -0.57041109712E+02 -0.75350526584E+02 -0.78387945245E+02  0.12278460821E+03  0.00000000000E+00 0.  1.
</event>
<event>
12    1  0.2614920E-002  0.1762925E+03  0.7818608E-02  0.1171440E+00
          2   -1    0    0  502    0  0.00000000000E+00  0.00000000000E+00  0.17886454979E+04  0.17886454979E+04  0.00000000000E+00 0.  1.
         -2   -1    0    0    0  501 -0.00000000000E+00 -0.00000000000E+00 -0.35631048952E+02  0.35631048952E+02  0.00000000000E+00 0. -1.
          6    2    1    2  502    0  0.34514889030E+02 -0.50789116284E+01  0.15278723897E+04  0.15379378398E+04  0.17216761345E+03 0.  0.
         24    2    3    3    0    0  0.11603681912E+02 -0.43522550929E+02  0.13850013747E+04  0.13881478077E+04  0.81833184764E+02 0.  0.
         -6    2    1    2    0  501 -0.34514889030E+02  0.50789116284E+01  0.22514205929E+03  0.28633870704E+03  0.17344692382E+03 0.  0.
        -24    2    5    5    0    0 -0.51437738954E+02 -0.32357537170E+02  0.62052873781E+02  0.11808876506E+03  0.80009662469E+02 0.  0.
          5    1    3    3  502    0  0.22911207119E+02  0.38443639300E+02  0.14287101497E+03  0.14979003215E+03  0.47000000000E+01 0. -1.
        -11    1    4    4    0    0 -0.15035347755E+02 -0.59856611883E+02  0.98136551210E+03  0.98330419709E+03  0.00000000000E+00 0.  1.
         12    1    4    4    0    0  0.26639029666E+02  0.16334060955E+02  0.40363586260E+03  0.40484361058E+03  0.00000000000E+00 0. -1.
         -5    1    5    5    0  501  0.16922849924E+02  0.37436448798E+02  0.16308918551E+03  0.16824994198E+03  0.47000000000E+01 0.  1.
         11    1    6    6    0    0 -0.28422962139E+02  0.24432121149E+02  0.34355311618E+02  0.50843689451E+02  0.00000000000E+00 0. -1.
        -12    1    6    6    0    0 -0.23014776815E+02 -0.56789658319E+02  0.27697562163E+02  0.67245075609E+02  0.00000000000E+00 0.  1.
</event>
<event>
12    1  0.2614920E-002  0.3253198E+03  0.7818608E-02  0.1073227E+00
          4   -1    0    0  502    0  0.00000000000E+00  0.00000000000E+00  0.31292791555E+03  0.31292791555E+03  0.00000000000E+00 0. -1.
         -4   -1    0    0    0  501 -0.00000000000E+00 -0.00000000000E+00 -0.34684494171E+03  0.34684494171E+03  0.00000000000E+00 0.  1.
          6    2    1    2  502    0 -0.13142522660E+03 -0.24340252225E+03  0.35159492787E+02  0.32610009751E+03  0.16907899230E+03 0.  0.
         24    2    3    3    0    0 -0.41221903247E+02 -0.77973474704E+02  0.30936441682E+02  0.13757070066E+03  0.10094318298E+03 0.  0.
         -6    2    1    2    0  501  0.13142522660E+03  0.24340252225E+03 -0.69076518941E+02  0.33367275975E+03  0.17334522521E+03 0.  0.
        -24    2    5    5    0    0  0.16223277464E+03  0.22969376445E+03 -0.62545211266E+02  0.29900601724E+03  0.80087429059E+02 0.  0.
          5    1    3    3  502    0 -0.90203323357E+02 -0.16542904755E+03  0.42230511051E+01  0.18852939685E+03  0.47000000000E+01 0. -1.
        -11    1    4    4    0    0 -0.65621927574E+02 -0.40430095402E+02 -0.89642017120E+01  0.77596307290E+02  0.00000000000E+00 0.  1.
         12    1    4    4    0    0  0.24400024327E+02 -0.37543379302E+02  0.39900643394E+02  0.59974393368E+02  0.00000000000E+00 0. -1.
         -5    1    5    5    0  501 -0.30807548041E+02  0.13708757800E+02 -0.65313076753E+01  0.34666742515E+02  0.47000000000E+01 0.  1.
         11    1    6    6    0    0  0.38628282244E+01  0.60570909653E+02 -0.13127567183E+02  0.62097419900E+02  0.00000000000E+00 0. -1.
        -12    1    6    6    0    0  0.15836994642E+03  0.16912285480E+03 -0.49417644083E+02  0.23690859734E+03  0.00000000000E+00 0.  1.
</event>
<event>
12    1  0.2614920E-002  0.2448816E+03  0.7818608E-02  0.1116583E+00
          1   -1    0    0  502    0  0.00000000000E+00  0.00000000000E+00  0.18062284669E+04  0.18062284669E+04  0.00000000000E+00 0. -1.
         -1   -1    0    0    0  501 -0.00000000000E+00 -0.00000000000E+00 -0.45715782755E+02  0.45715782755E+02  0.00000000000E+00 0.  1.
          6    2    1    2  502    0  0.15786943456E+03  0.72375554560E+02  0.13643179927E+04  0.13860912088E+04  0.17240729267E+03 0.  0.
         24    2    3    3    0    0  0.16249053666E+03  0.58602309075E+02  0.13550049715E+04  0.13682060406E+04  0.78178588268E+02 0.  0.
         -6    2    1    2    0  501 -0.15786943456E+03 -0.72375554560E+02  0.39619469138E+03  0.46585304082E+03  0.17288100792E+03 0.  0.
        -24    2    5    5    0    0 -0.14931957345E+03 -0.66412792213E+02  0.40958764129E+03  0.44824293670E+03  0.80328702322E+02 0.  0.
          5    1    3    3  502    0 -0.46211021046E+01  0.13773245485E+02  0.93130211911E+01  0.17885168144E+02  0.47000000000E+01 0. -1.
        -13    1    4    4    0    0  0.36771832842E+02  0.76246467974E+01  0.11916338349E+03  0.12494084558E+03  0.00000000000E+00 0.  1.
         14    1    4    4    0    0  0.12571870382E+03  0.50977662278E+02  0.12358415880E+04  0.12432651951E+04  0.00000000000E+00 0. -1.
         -5    1    5    5    0  501 -0.85498611099E+01 -0.59627623471E+01 -0.13392949912E+02  0.17610104121E+02  0.47000000000E+01 0.  1.
         13    1    6    6    0    0 -0.20424579338E+02  0.14785200517E+02  0.10102255537E+03  0.10412167060E+03  0.00000000000E+00 0. -1.
        -14    1    6    6    0    0 -0.12889499411E+03 -0.81197992730E+02  0.30856508592E+03  0.34412126610E+03  0.00000000000E+00 0.  1.
</event>
<event>
12    1  0.2614920E-002  0.1854934E+03  0.7818608E-02  0.1162590E+00
         -1   -1    0    0    0  501 -0.00000000000E+00  0.00000000000E+00  0.42368609056E+03  0.42368609056E+03  0.00000000000E+00 0. -1.
          1   -1    0    0  502    0  0.00000000000E+00 -0.00000000000E+00 -0.89224629004E+02  0.89224629004E+02  0.00000000000E+00 0.  1.
          6    2    1    2  502    0  0.66701438378E+02 -0.20166448513E+02  0.91293210811E+02  0.20773670660E+03  0.17310205488E+03 0.  0.
         24    2    3    3    0    0  0.82378264396E+02 -0.50521986461E+02  0.18821534833E+02  0.12747802871E+03  0.80979923870E+02 0.  0.
         -6    2    1    2    0  501 -0.66701438378E+02  0.20166448513E+02  0.24316825075E+03  0.30517401296E+03  0.17071793253E+03 0.  0.
        -24    2    5    5    0    0 -0.58635627738E+01  0.67035703545E+02  0.17350388706E+03  0.20138004520E+03  0.76955551215E+02 0.  0.
          5    1    3    3  502    0 -0.15676826018E+02  0.30355537948E+02  0.72471675977E+02  0.80258677893E+02  0.47000000000E+01 0. -1.
        -13    1    4    4    0    0  0.84158522939E+02 -0.26574502904E+02 -0.11278924069E+02  0.88972328935E+02  0.00000000000E+00 0.  1.
         14    1    4    4    0    0 -0.17802585434E+01 -0.23947483557E+02  0.30100458902E+02  0.38505699777E+02  0.00000000000E+00 0. -1.
         -5    1    5    5    0  501 -0.60837875604E+02 -0.46869255032E+02  0.69664363688E+02  0.10379396776E+03  0.47000000000E+01 0.  1.
         13    1    6    6    0    0 -0.81555007714E+01  0.82101133671E+02  0.11912591215E+03  0.14490718163E+03  0.00000000000E+00 0. -1.
        -14    1    6    6    0    0  0.22919379976E+01 -0.15065430125E+02  0.54377974909E+02  0.56472863570E+02  0.00000000000E+00 0.  1.
</event>
<event>
12    1  0.2614920E-002  0.2749495E+03  0.7818608E-02  0.1098480E+00
         -2   -1    0    0    0  501 -0.00000000000E+00  0.00000000000E+00  0.92482588798E+02  0.92482588798E+02  0.00000000000E+00 0.  1.
          2   -1    0    0  502    0  0.00000000000E+00 -0.00000000000E+00 -0.98959576144E+03  0.98959576144E+03  0.00000000000E+00 0. -1.
          6    2    1    2  502    0  0.17070639175E+03 -0.12935000155E+03 -0.22330037184E+03  0.35444493109E+03  0.17290476576E+03 0.  0.
         24    2    3    3    0    0  0.60092817000E+02 -0.16199576157E+01 -0.11866091966E+03  0.15564394519E+03  0.80813692525E+02 0.  0.
         -6    2    1    2    0  501 -0.17070639175E+03  0.12935000155E+03 -0.67381280079E+03  0.72763341915E+03  0.17191453418E+03 0.  0.
        -24    2    5    5    0    0 -0.19331922289E+03  0.12951750570E+03 -0.64664194482E+03  0.69197232545E+03  0.80825665243E+02 0.  0.
          5    1    3    3  502    0  0.11061357475E+03 -0.12773004393E+03 -0.10463945218E+03  0.19880098590E+03  0.47000000000E+01 0. -1.
        -13    1    4    4    0    0  0.63588941178E+02 -0.16357595149E+02 -0.43010755122E+02  0.78492352592E+02  0.00000000000E+00 0.  1.
         14    1    4    4    0    0 -0.34961241786E+01  0.14737637534E+02 -0.75650164543E+02  0.77151592594E+02  0.00000000000E+00 0. -1.
         -5    1    5    5    0  501  0.22612831134E+02 -0.16750415549E+00 -0.27170855970E+02  0.35661093698E+02  0.47000000000E+01 0.  1.
         13    1    6    6    0    0 -0.11615732974E+03  0.10103107100E+03 -0.50751459028E+03  0.53034975432E+03  0.00000000000E+00 0. -1.
        -14    1    6    6    0    0 -0.77161893151E+02  0.28486434708E+02 -0.13912735454E+03  0.16162257113E+03  0.00000000000E+00 0.  1.
</event>
<event>
12    1  0.2614920E-002  0.1723152E+03  0.7818608E-02  0.1175455E+00
         -3   -1    0    0    0  501 -0.00000000000E+00  0.00000000000E+00  0.11352169019E+04  0.11352169019E+04  0.00000000000E+00 0. -1.
          3   -1    0    0  502    0  0.00000000000E+00 -0.00000000000E+00 -0.40597890442E+02  0.40597890442E+02  0.00000000000E+00 0.  1.
          6    2    1    2  502    0  0.23561227617E+02 -0.67600382488E+01  0.19936075802E+03  0.26436936234E+03  0.17188838919E+03 0.  0.
         24    2    3    3    0    0  0.61276117815E+02  0.44351934223E+02  0.12739144048E+03  0.16826255020E+03  0.79761206151E+02 0.  0.
         -6    2    1    2    0  501 -0.23561227617E+02  0.67600382488E+01  0.89525825343E+03  0.91144543000E+03  0.16924716236E+03 0.  0.
        -24    2    5    5    0    0 -0.31546750981E+02 -0.28182158243E+02  0.25986206175E+03  0.27502172201E+03  0.79493552592E+02 0.  0.
          5    1    3    3  502    0 -0.37714890198E+02 -0.51111972472E+02  0.71969317540E+02  0.96106812140E+02  0.47000000000E+01 0. -1.
        -13    1    4    4    0    0  0.66163155753E+02  0.66933130559E+01  0.54138382475E+02  0.85751548533E+02  0.00000000000E+00 0.  1.
         14    1    4    4    0    0 -0.48870379382E+01  0.37658621167E+02  0.73253058007E+02  0.82511001663E+02  0.00000000000E+00 0. -1.
         -5    1    5    5    0  501  0.79855233640E+01  0.34942196492E+02  0.63539619169E+03  0.63642370799E+03  0.47000000000E+01 0.  1.
         11    1    6    6    0    0 -0.78526418754E+00 -0.19358908312E+02  0.23135287517E+03  0.23216273779E+03  0.00000000000E+00 0. -1.
        -12    1    6    6    0    0 -0.30761486793E+02 -0.88232499306E+01  0.28509186578E+02  0.42858984220E+02  0.00000000000E+00 0.  1.
</event>
<event>
12    1  0.2614920E-002  0.1796722E+03  0.7818608E-02  0.1168121E+00
          2   -1    0    0  502    0  0.00000000000E+00  0.00000000000E+00  0.12168958516E+03  0.12168958516E+03  0.00000000000E+00 0. -1.
         -2   -1    0    0    0  501 -0.00000000000E+00 -0.00000000000E+00 -0.54782119648E+03  0.54782119648E+03  0.00000000000E+00 0.  1.
          6    2    1    2  502    0  0.50647682642E+02 -0.27320854377E+01 -0.45392913738E+03  0.48849021230E+03  0.17320038597E+03 0.  0.
         24    2    3    3    0    0  0.48759471054E+02 -0.11671965504E+02 -0.11796791121E+03  0.15237189639E+03  0.82383529533E+02 0.  0.
         -6    2    1    2    0  501 -0.50647682642E+02  0.27320854377E+01  0.27797526056E+02  0.18102056935E+03  0.17153160649E+03 0.  0.
        -24    2    5    5    0    0  0.32572001828E+02  0.59474696126E+01  0.38452863313E+02  0.96928472271E+02  0.82584492139E+02 0.  0.
          5    1    3    3  502    0  0.18882115880E+01  0.89398800661E+01 -0.33596122617E+03  0.33611831590E+03  0.47000000000E+01 0. -1.
        -11    1    4    4    0    0  0.39721027797E+02 -0.10948633596E+02 -0.13053043440E+03  0.13687887686E+03  0.00000000000E+00 0.  1.
         12    1    4    4    0    0  0.90384432567E+01 -0.72333190738E+00  0.12562523182E+02  0.15493019533E+02  0.00000000000E+00 0. -1.
         -5    1    5    5    0  501 -0.83219684470E+02 -0.32153841749E+01 -0.10655337257E+02  0.84092097077E+02  0.47000000000E+01 0.  1.
         13    1    6    6    0    0  0.84159121364E+01 -0.23047382910E+02  0.51460815935E+02  0.57010744713E+02  0.00000000000E+00 0. -1.
        -14    1    6    6    0    0  0.24156089692E+02  0.28994852522E+02 -0.13007952621E+02  0.39917727558E+02  0.00000000000E+00 0.  1.
</event>
<event>
12    1  0.2614920E-002  0.1843465E+03  0.7818608E-02  0.1163662E+00
          4   -1    0    0  502    0  0.00000000000E+00  0.00000000000E+00  0.95076121120E+02  0.95076121120E+02  0.00000000000E+00 0.  1.
         -4   -1    0    0    0  501 -0.00000000000E+00 -0.00000000000E+00 -0.35979824319E+03  0.35979824319E+03  0.00000000000E+00 0. -1.
          6    2    1    2  502    0 -0.53733488129E+02  0.37499292231E+02 -0.11380431462E+03  0.21649127639E+03  0.17211497919E+03 0.  0.
         24    2    3    3    0    0  0.94392030179E+01 -0.30720427065E+02 -0.26300326794E+02  0.88726817742E+02  0.78408531452E+02 0.  0.
         -6    2    1    2    0  501  0.53733488129E+02 -0.37499292231E+02 -0.15091780745E+03  0.23838308792E+03  0.17250167343E+03 0.  0.
        -24    2    5    5    0    0 -0.34561603149E+02 -0.94032075389E+01 -0.84152427175E+02  0.12408033589E+03  0.83853288731E+02 0.  0.
          5    1    3    3  502    0 -0.63172691147E+02  0.68219719296E+02 -0.87503987824E+02  0.12776445864E+03  0.47000000000E+01 0. -1.
        -11    1    4    4    0    0  0.34194418876E+02 -0.10162119974E+02  0.12969402816E+02  0.37956980571E+02  0.00000000000E+00 0.  1.
         12    1    4    4    0    0 -0.24755215858E+02 -0.20558307092E+02 -0.39269729611E+02  0.50769837171E+02  0.00000000000E+00 0. -1.
         -5    1    5    5    0  501  0.88295091277E+02 -0.28096084692E+02 -0.66765380272E+02  0.11430275203E+03  0.47000000000E+01 0.  1.
         11    1    6    6    0    0 -0.22089532461E+02  0.21212085708E+02 -0.85677970014E+02  0.90986892299E+02  0.00000000000E+00 0. -1.
        -12    1    6    6    0    0 -0.12472070688E+02 -0.30615293247E+02  0.15255428394E+01  0.33093443592E+02  0.00000000000E+00 0.  1.
</event>
<event>
12    1  0.2614920E-002  0.1754982E+03  0.7818608E-02  0.1172232E+00
          2   -1    0    0  502    0  0.00000000000E+00  0.00000000000E+00  0.15970094774E+04  0.15970094774E+04  0.00000000000E+00 0. -1.
         -2   -1    0    0    0  501 -0.00000000000E+00 -0.00000000000E+00 -0.29059983160E+02  0.29059983160E+02  0.00000000000E+00 0.  1.
          6    2    1    2  502    0 -0.90481398577E+01 -0.33055691597E+02  0.12560795500E+04  0.12683077855E+04  0.17232021109E+03 0.  0.
         24    2    3    3    0    0 -0.70336435809E+02 -0.34705000274E+02  0.80420771642E+03  0.81227136211E+03  0.82964229092E+02 0.  0.
         -6    2    1    2    0  501  0.90481398577E+01  0.33055691597E+02  0.31186994420E+03  0.35776167506E+03  0.17191860418E+03 0.  0.
        -24    2    5    5    0    0  0.45674480702E+02 -0.99793983730E+01  0.93438862806E+02  0.13208993307E+03  0.80815733354E+02 0.  0.
          5    1    3    3  502    0  0.61288295951E+02  0.16493086771E+01  0.45187183358E+03  0.45603642336E+03  0.47000000000E+01 0. -1.
        -13    1    4    4    0    0 -0.99025728299E+01 -0.44348331364E+02  0.49393747521E+03  0.49602325032E+03  0.00000000000E+00 0.  1.
         14    1    4    4    0    0 -0.60433862979E+02  0.96433310897E+01  0.31027024121E+03  0.31624811179E+03  0.00000000000E+00 0. -1.
         -5    1    5    5    0  501 -0.36626340844E+02  0.43035089970E+02  0.21843108140E+03  0.22567174199E+03  0.47000000000E+01 0.  1.
         13    1    6    6    0    0  0.22662093049E+02 -0.35054469560E+02  0.11398578524E+02  0.43270242545E+02  0.00000000000E+00 0. -1.
        -14    1    6    6    0    0  0.23012387653E+02  0.25075071187E+02  0.82040284281E+02  0.88819690528E+02  0.00000000000E+00 0.  1.
</event>
<event>
12    1  0.2614920E-002  0.2098551E+03  0.7818608E-02  0.1141681E+00
         -1   -1    0    0    0  501 -0.00000000000E+00  0.00000000000E+00  0.15131255312E+03  0.15131255312E+03  0.00000000000E+00 0. -1.
          1   -1    0    0  502    0  0.00000000000E+00 -0.00000000000E+00 -0.29128588982E+03  0.29128588982E+03  0.00000000000E+00 0.  1.
          6    2    1    2  502    0  0.12010070945E+03  0.19431339661E+02 -0.63733055571E+02  0.21952648702E+03  0.17125483572E+03 0.  0.
         24    2    3    3    0    0  0.36482464916E+02  0.14890257824E+02  0.28884729125E+02  0.94575391444E+02  0.80978312317E+02 0.  0.
         -6    2    1    2    0  501 -0.12010070945E+03 -0.19431339661E+02 -0.76240281132E+02  0.22307195593E+03  0.17072422114E+03 0.  0.
        -24    2    5    5    0    0 -0.68060898214E+02  0.28933404598E+02  0.12415052858E+02  0.10936554149E+03  0.79606911507E+02 0.  0.
          5    1    3    3  502    0  0.83618244532E+02  0.45410818372E+01 -0.92617784696E+02  0.12495109557E+03  0.47000000000E+01 0. -1.
        -11    1    4    4    0    0  0.73232535790E+01  0.29614259931E+02 -0.19492682309E+02  0.36202197417E+02  0.00000000000E+00 0.  1.
         12    1    4    4    0    0  0.29159211337E+02 -0.14724002107E+02  0.48377411434E+02  0.58373194027E+02  0.00000000000E+00 0. -1.
         -5    1    5    5    0  501 -0.52039811234E+02 -0.48364744259E+02 -0.88655333990E+02  0.11370641444E+03  0.47000000000E+01 0.  1.
         13    1    6    6    0    0  0.10175592798E+02  0.28461109779E+02  0.53030640777E+00  0.30230095658E+02  0.00000000000E+00 0. -1.
        -14    1    6    6    0    0 -0.78236491011E+02  0.47229481941E+00  0.11884746450E+02  0.79135445828E+02  0.00000000000E+00 0.  1.
</event>
<event>
12    1  0.2614920E-002  0.1938977E+03  0.7818608E-02  0.1154992E+00
          1   -1    0    0  502    0  0.00000000000E+00  0.00000000000E+00  0.54562384620E+03  0.54562384620E+03  0.00000000000E+00 0. -1.
         -1   -1    0    0    0  501 -0.00000000000E+00 -0.00000000000E+00 -0.72040477827E+02  0.72040477827E+02  0.00000000000E+00 0.  1.
          6    2    1    2  502    0 -0.49091335339E+02 -0.79266948710E+02  0.29939351021E+03  0.35587401724E+03  0.16827547008E+03 0.  0.
         24    2    3    3    0    0 -0.59463815167E+02 -0.63221977074E+02  0.98243255207E+02  0.15376378856E+03  0.80365426511E+02 0.  0.
         -6    2    1    2    0  501  0.49091335339E+02  0.79266948710E+02  0.17418985816E+03  0.26179030678E+03  0.17175229161E+03 0.  0.
        -24    2    5    5    0    0 -0.53173598853E+01  0.10785492488E+03  0.11319762923E+03  0.17507398486E+03  0.78589043598E+02 0.  0.
          5    1    3    3  502    0  0.10372479828E+02 -0.16044971636E+02  0.20115025500E+03  0.20211022869E+03  0.47000000000E+01 0. -1.
        -13    1    4    4    0    0  0.19894676601E+02 -0.72805887786E+01  0.18246714996E+02  0.27959752112E+02  0.00000000000E+00 0.  1.
         14    1    4    4    0    0 -0.79358491768E+02 -0.55941388296E+02  0.79996540211E+02  0.12580403645E+03  0.00000000000E+00 0. -1.
         -5    1    5    5    0  501  0.54408695224E+02 -0.28587976172E+02  0.60992228932E+02  0.86716321922E+02  0.47000000000E+01 0.  1.
         13    1    6    6    0    0  0.18163189921E+02  0.73603341989E+01  0.50863544357E+02  0.54508495963E+02  0.00000000000E+00 0. -1.
        -14    1    6    6    0    0 -0.23480549806E+02  0.10049459068E+03  0.62334084872E+02  0.12056548890E+03  0.00000000000E+00 0.  1.
</event>
<event>
12    1  0.2614920E-002  0.2787606E+03  0.7818608E-02  0.1096368E+00
          1   -1    0    0  502    0  0.00000000000E+00  0.00000000000E+00  0.70544497768E+03  0.70544497768E+03  0.00000000000E+00 0. -1.
         -1   -1    0    0    0  501 -0.00000000000E+00 -0.00000000000E+00 -0.11049500626E+03  0.11049500626E+03  0.00000000000E+00 0.  1.
          6    2    1    2  502    0 -0.17399468459E+03 -0.13368904556E+03  0.27525438546E+03  0.39205057225E+03  0.17260290646E+03 0.  0.
         24    2    3    3    0    0 -0.14268208998E+03 -0.32483791068E+02  0.12516473281E+03  0.20827904031E+03  0.79376147620E+02 0.  0.
         -6    2    1    2    0  501  0.17399468459E+03  0.13368904556E+03  0.31969558596E+03  0.42388941169E+03  0.17126019529E+03 0.  0.
        -24    2    5    5    0    0  0.18235357625E+03  0.69822308726E+02  0.27267860791E+03  0.34400501165E+03  0.76536548556E+02 0.  0.
          5    1    3    3  502    0 -0.31312594611E+02 -0.10120525450E+03  0.15008965264E+03  0.18377153194E+03  0.47000000000E+01 0. -1.
        -11    1    4    4    0    0 -0.29332251299E+02  0.45707253736E+01  0.71674973098E+02  0.77579470644E+02  0.00000000000E+00 0.  1.
         12    1    4    4    0    0 -0.11334983868E+03 -0.37054516442E+02  0.53489759714E+02  0.13069956967E+03  0.00000000000E+00 0. -1.
         -5    1    5    5    0  501 -0.83588916593E+01  0.63866736838E+02  0.47016978051E+02  0.79884400037E+02  0.47000000000E+01 0.  1.
         13    1    6    6    0    0  0.20982061849E+02  0.28284833364E+02  0.90515915175E+02  0.97125741273E+02  0.00000000000E+00 0. -1.
        -14    1    6    6    0    0  0.16137151440E+03  0.41537475362E+02  0.18216269273E+03  0.24687927038E+03  0.00000000000E+00 0.  1.
</event>
<event>
12    1  0.2614920E-002  0.1730349E+03  0.7818608E-02  0.1174719E+00
         -2   -1    0    0    0  501 -0.00000000000E+00  0.00000000000E+00  0.10481253470E+02  0.10481253470E+02  0.00000000000E+00 0.  1.
          2   -1    0    0  502    0  0.00000000000E+00 -0.00000000000E+00 -0.32527522079E+04  0.32527522079E+04  0.00000000000E+00 0. -1.
          6    2    1    2  502    0 -0.14868277871E+02 -0.96786622939E+01 -0.21959871152E+04  0.22028465042E+04  0.17279632092E+03 0.  0.
         24    2    3    3    0    0  0.15627688573E+02  0.43342197090E+02 -0.87633998601E+03  0.88177426877E+03  0.86205100151E+02 0.  0.
         -6    2    1    2    0  501  0.14868277871E+02  0.96786622939E+01 -0.10462838391E+04  0.10603869571E+04  0.17145228088E+03 0.  0.
        -24    2    5    5    0    0  0.47145135378E+01 -0.81323314740E+01 -0.10317980521E+04  0.10348476060E+04  0.78828839113E+02 0.  0.
          5    1    3    3  502    0 -0.30495966444E+02 -0.53020859384E+02 -0.13196471292E+04  0.13210722354E+04  0.47000000000E+01 0. -1.
        -11    1    4    4    0    0 -0.26576389150E+02 -0.10127327236E+02 -0.32502533934E+03  0.32626728066E+03  0.00000000000E+00 0.  1.
         12    1    4    4    0    0  0.42204077723E+02  0.53469524326E+02 -0.55131464667E+03  0.55550698811E+03  0.00000000000E+00 0. -1.
         -5    1    5    5    0  501  0.10153764333E+02  0.17810993768E+02 -0.14485787001E+02  0.25539351092E+02  0.47000000000E+01 0.  1.
         13    1    6    6    0    0 -0.35934182544E+02 -0.11176817953E+02 -0.57731077536E+03  0.57853601278E+03  0.00000000000E+00 0. -1.
        -14    1    6    6    0    0  0.40648696082E+02  0.30444864791E+01 -0.45448727677E+03  0.45631159326E+03  0.00000000000E+00 0.  1.
</event>
<event>
12    1  0.2614920E-002  0.4677896E+03  0.7818608E-02  0.1022546E+00
         -2   -1    0    0    0  501 -0.00000000000E+00  0.00000000000E+00  0.23388664589E+03  0.23388664589E+03  0.00000000000E+00 0.  1.
          2   -1    0    0  502    0  0.00000000000E+00 -0.00000000000E+00 -0.97369547682E+03  0.97369547682E+03  0.00000000000E+00 0. -1.
          6    2    1    2  502    0 -0.35642255932E+03 -0.25011336155E+03 -0.25072479911E+03  0.53101288770E+03  0.17180811272E+03 0.  0.
         24    2    3    3    0    0 -0.28920453842E+03 -0.25139279751E+03 -0.19754673958E+03  0.44516479334E+03  0.11094762379E+03 0.  0.
         -6    2    1    2    0  501  0.35642255932E+03  0.25011336155E+03 -0.48908403182E+03  0.67656923501E+03  0.17014407176E+03 0.  0.
        -24    2    5    5    0    0  0.31312224945E+03  0.16076162545E+03 -0.32668194577E+03  0.48616131203E+03  0.75775222231E+02 0.  0.
          5    1    3    3  502    0 -0.67218020902E+02  0.12794359646E+01 -0.53178059531E+02  0.85848094363E+02  0.47000000000E+01 0. -1.
        -13    1    4    4    0    0 -0.21365535942E+03 -0.21517594682E+03 -0.19658223715E+03  0.36137774788E+03  0.00000000000E+00 0.  1.
         14    1    4    4    0    0 -0.75549178997E+02 -0.36216850688E+02 -0.96450242910E+00  0.83787045454E+02  0.00000000000E+00 0. -1.
         -5    1    5    5    0  501  0.43300309873E+02  0.89351736094E+02 -0.16240208605E+03  0.19040792298E+03  0.47000000000E+01 0.  1.
         13    1    6    6    0    0  0.17009760945E+03  0.98191148424E+02 -0.13210381144E+03  0.23669836367E+03  0.00000000000E+00 0. -1.
        -14    1    6    6    0    0  0.14302464000E+03  0.62570477028E+02 -0.19457813433E+03  0.24946294836E+03  0.00000000000E+00 0.  1.
</event>
<event>
12    1  0.2614920E-002  0.2157508E+03  0.7818608E-02  0.1137091E+00
          2   -1    0    0  502    0  0.00000000000E+00  0.00000000000E+00  0.42643212680E+03  0.42643212680E+03  0.00000000000E+00 0.  1.
         -2   -1    0    0    0  501 -0.00000000000E+00 -0.00000000000E+00 -0.11369652795E+03  0.11369652795E+03  0.00000000000E+00 0. -1.
          6    2    1    2  502    0  0.34265238569E+02  0.12704874416E+03  0.20937196473E+03  0.29968795377E+03  0.16929489081E+03 0.  0.
         24    2    3    3    0    0 -0.17368933425E+02  0.14189282338E+03  0.15720392004E+03  0.22465443265E+03  0.72947162095E+02 0.  0.
         -6    2    1    2    0  501 -0.34265238569E+02 -0.12704874416E+03  0.10336363412E+03  0.24044070098E+03  0.17266209735E+03 0.  0.
        -24    2    5    5    0    0 -0.45135786780E+02 -0.42173084415E+02 -0.11653440987E+02  0.97007566726E+02  0.73884078244E+02 0.  0.
          5    1    3    3  502    0  0.51634171994E+02 -0.14844079223E+02  0.52168044688E+02  0.75033521122E+02  0.47000000000E+01 0. -1.
        -11    1    4    4    0    0 -0.17216415722E+02  0.84289186069E+02  0.41743293968E+02  0.95622039561E+02  0.00000000000E+00 0.  1.
         12    1    4    4    0    0 -0.15251770318E+00  0.57603637315E+02  0.11546062607E+03  0.12903239309E+03  0.00000000000E+00 0. -1.
         -5    1    5    5    0  501  0.10870548211E+02 -0.84875659746E+02  0.11501707511E+03  0.14343313426E+03  0.47000000000E+01 0.  1.
         11    1    6    6    0    0 -0.20311418163E+02  0.17252683058E+02 -0.18202689991E+02  0.32273002701E+02  0.00000000000E+00 0. -1.
        -12    1    6    6    0    0 -0.24824368617E+02 -0.59425767472E+02  0.65492490033E+01  0.64734564024E+02  0.00000000000E+00 0.  1.
</event>
<event>
12    1  0.2614920E-002  0.2428819E+03  0.7818608E-02  0.1117888E+00
         -2   -1    0    0    0  501 -0.00000000000E+00  0.00000000000E+00  0.17535177414E+03  0.17535177414E+03  0.00000000000E+00 0. -1.
          2   -1    0    0  502    0  0.00000000000E+00 -0.00000000000E+00 -0.95227564582E+03  0.95227564582E+03  0.00000000000E+00 0.  1.
          6    2    1    2  502    0 -0.11478958551E+03 -0.12719614680E+03  0.65076551482E+02  0.25123471419E+03  0.17183834078E+03 0.  0.
         24    2    3    3    0    0 -0.53057965906E+02  0.65207428792E+01  0.97624647162E+01  0.93841138598E+02  0.76506115718E+02 0.  0.
         -6    2    1    2    0  501  0.11478958551E+03  0.12719614680E+03 -0.84200042316E+03  0.87639270576E+03  0.17246435403E+03 0.  0.
        -24    2    5    5    0    0  0.12389427541E+03  0.15440042829E+03 -0.72673651710E+03  0.75751955341E+03  0.80626452094E+02 0.  0.
          5    1    3    3  502    0 -0.61731619605E+02 -0.13371688968E+03  0.55314086766E+02  0.15739357560E+03  0.47000000000E+01 0. -1.
        -11    1    4    4    0    0  0.19710546316E+01 -0.23354564224E+01 -0.26935034875E+02  0.27107849726E+02  0.00000000000E+00 0.  1.
         12    1    4    4    0    0 -0.55029020538E+02  0.88561993016E+01  0.36697499591E+02  0.66733288872E+02  0.00000000000E+00 0. -1.
         -5    1    5    5    0  501 -0.91046898982E+01 -0.27204281494E+02 -0.11526390606E+03  0.11887315235E+03  0.47000000000E+01 0.  1.
         11    1    6    6    0    0  0.46938815036E+02  0.70855308525E+01 -0.17006532096E+03  0.17656633455E+03  0.00000000000E+00 0. -1.
        -12    1    6    6    0    0  0.76955460374E+02  0.14731489744E+03 -0.55667119615E+03  0.58095321886E+03  0.00000000000E+00 0.  1.
</event>
<event>
12    1  0.2614920E-002  0.1753025E+03  0.7818608E-02  0.1172428E+00
          2   -1    0    0  502    0  0.00000000000E+00  0.00000000000E+00  0.27308235927E+04  0.27308235927E+04  0.00000000000E+00 0. -1.
         -2   -1    0    0    0  501 -0.00000000000E+00 -0.00000000000E+00 -0.11272183588E+02  0.11272183588E+02  0.00000000000E+00 0.  1.
          6    2    1    2  502    0  0.27504583436E+02 -0.30633454791E+02  0.13203948257E+04  0.13322327019E+04  0.17235592722E+03 0.  0.
         24    2    3    3    0    0 -0.10133191889E+02 -0.76436750918E+02  0.65420656946E+03  0.66339533243E+03  0.78497599284E+02 0.  0.
         -6    2    1    2    0  501 -0.27504583436E+02  0.30633454791E+02  0.13991565834E+04  0.14098630744E+04  0.16846315003E+03 0.  0.
        -24    2    5    5    0    0 -0.36496688428E+01 -0.44621104673E+02  0.64305216803E+03  0.64963397559E+03  0.80646440563E+02 0.  0.
          5    1    3    3  502    0  0.37637775325E+02  0.45803296127E+02  0.66618825624E+03  0.66883736948E+03  0.47000000000E+01 0. -1.
        -11    1    4    4    0    0  0.31777222199E+02 -0.45383681013E+02  0.26668797723E+03  0.27238198831E+03  0.00000000000E+00 0.  1.
         12    1    4    4    0    0 -0.41910414087E+02 -0.31053069905E+02  0.38751859223E+03  0.39101334412E+03  0.00000000000E+00 0. -1.
         -5    1    5    5    0  501 -0.23854914593E+02  0.75254559463E+02  0.75610441540E+03  0.76022909880E+03  0.47000000000E+01 0.  1.
         13    1    6    6    0    0 -0.17254786477E+02  0.18710409973E+02  0.24846678666E+03  0.24976699376E+03  0.00000000000E+00 0. -1.
        -14    1    6    6    0    0  0.13605117635E+02 -0.63331514646E+02  0.39458538137E+03  0.39986698184E+03  0.00000000000E+00 0.  1.
</event>
<event>
12    1  0.2614920E-002  0.2063361E+03  0.7818608E-02  0.1144501E+00
         -1   -1    0    0    0  501 -0.00000000000E+00  0.00000000000E+00  0.36063464210E+02  0.36063464210E+02  0.00000000000E+00 0. -1.
          1   -1    0    0  502    0  0.00000000000E+00 -0.00000000000E+00 -0.12126059004E+04  0.12126059004E+04  0.00000000000E+00 0.  1.
          6    2    1    2  502    0 -0.71387790512E+02  0.90355372311E+02 -0.69184679411E+03  0.72217568705E+03  0.17212038375E+03 0.  0.
         24    2    3    3    0    0 -0.11475673607E+03  0.82973442078E+02 -0.55641018516E+03  0.57969578188E+03  0.80007529734E+02 0.  0.
         -6    2    1    2    0  501  0.71387790512E+02 -0.90355372311E+02 -0.48469564206E+03  0.52649367754E+03  0.17030976813E+03 0.  0.
        -24    2    5    5    0    0  0.13899949806E+02  0.11625539918E+02 -0.27043030851E+03  0.28228745024E+03  0.78900513455E+02 0.  0.
          5    1    3    3  502    0  0.43368945560E+02  0.73819302332E+01 -0.13543660896E+03  0.14247990517E+03  0.47000000000E+01 0. -1.
        -13    1    4    4    0    0 -0.65231639054E+02  0.45425674791E+01 -0.29944124049E+03  0.30649772945E+03  0.00000000000E+00 0.  1.
         14    1    4    4    0    0 -0.49525097018E+02  0.78430874599E+02 -0.25696894467E+03  0.27319805242E+03  0.00000000000E+00 0. -1.
         -5    1    5    5    0  501  0.57487840707E+02 -0.10198091223E+03 -0.21426533356E+03  0.24420622730E+03  0.47000000000E+01 0.  1.
         11    1    6    6    0    0  0.40314966282E+02 -0.99093116304E+01 -0.96524456061E+02  0.10507360078E+03  0.00000000000E+00 0. -1.
        -12    1    6    6    0    0 -0.26415016476E+02  0.21534851549E+02 -0.17390585245E+03  0.17721384946E+03  0.00000000000E+00 0.  1.
</event>
<event>
12    1  0.2614920E-002  0.3252020E+03  0.7818608E-02  0.1073280E+00
         -2   -1    0    0    0  501 -0.00000000000E+00  0.00000000000E+00  0.10509181338E+03  0.10509181338E+03  0.00000000000E+00 0.  1.
          2   -1    0    0  502    0  0.00000000000E+00 -0.00000000000E+00 -0.10063368231E+04  0.10063368231E+04  0.00000000000E+00 0. -1.
          6    2    1    2  502    0 -0.41564468198E+02 -0.27286066669E+03 -0.44939611990E+03  0.55499534846E+03  0.17286531112E+03 0.  0.
         24    2    3    3    0    0  0.15387152215E+02 -0.24704764372E+03 -0.33136874255E+03  0.42134524174E+03  0.80357118379E+02 0.  0.
         -6    2    1    2    0  501  0.41564468198E+02  0.27286066669E+03 -0.45184888981E+03  0.55643328801E+03  0.17108488051E+03 0.  0.
        -24    2    5    5    0    0  0.27199837362E+02  0.12034071150E+03 -0.33168968837E+03  0.36167958961E+03  0.74648229534E+02 0.  0.
          5    1    3    3  502    0 -0.56951620413E+02 -0.25813022964E+02 -0.11802737735E+03  0.13365010672E+03  0.47000000000E+01 0. -1.
        -11    1    4    4    0    0 -0.12586632368E+02 -0.85581034098E+02 -0.63424682395E+02  0.10726242142E+03  0.00000000000E+00 0.  1.
         12    1    4    4    0    0  0.27973784583E+02 -0.16146660962E+03 -0.26794406015E+03  0.31408282032E+03  0.00000000000E+00 0. -1.
         -5    1    5    5    0  501  0.14364630835E+02  0.15251995518E+03 -0.12015920144E+03  0.19475369840E+03  0.47000000000E+01 0.  1.
         11    1    6    6    0    0  0.45590132859E+02  0.36821407709E+02 -0.14077597765E+03  0.15248656388E+03  0.00000000000E+00 0. -1.
        -12    1    6    6    0    0 -0.18390295497E+02  0.83519303793E+02 -0.19091371072E+03  0.20919302573E+03  0.00000000000E+00 0.  1.
</event>
<event>
12    1  0.2614920E-002  0.1846296E+03  0.7818608E-02  0.1163396E+00
         -1   -1    0    0    0  501 -0.00000000000E+00  0.00000000000E+00  0.25269715541E+03  0.25269715541E+03  0.00000000000E+00 0. -1.
          1   -1    0    0  502    0  0.00000000000E+00 -0.00000000000E+00 -0.17667419137E+03  0.17667419137E+03  0.00000000000E+00 0.  1.
          6    2    1    2  502    0  0.64219420173E+02 -0.26178820480E+02 -0.66386188900E+02  0.19619489245E+03  0.17110185615E+03 0.  0.
         24    2    3    3    0    0  0.50154547739E+02 -0.44490179042E+02  0.20818567597E+02  0.10586280488E+03  0.79238033866E+02 0.  0.
         -6    2    1    2    0  501 -0.64219420173E+02  0.26178820480E+02  0.14240915294E+03  0.23317645432E+03  0.17111816806E+03 0.  0.
        -24    2    5    5    0    0 -0.35913576959E+02  0.76610936678E+02  0.53764734993E+02  0.12723051558E+03  0.78344985392E+02 0.  0.
          5    1    3    3  502    0  0.14064872434E+02  0.18311358562E+02 -0.87204756497E+02  0.90332087570E+02  0.47000000000E+01 0. -1.
        -13    1    4    4    0    0  0.59412737496E+02 -0.37515269792E+01  0.79903431807E+00  0.59536424038E+02  0.00000000000E+00 0.  1.
         14    1    4    4    0    0 -0.92581897574E+01 -0.40738652063E+02  0.20019533279E+02  0.46326380845E+02  0.00000000000E+00 0. -1.
         -5    1    5    5    0  501 -0.28305843214E+02 -0.50432116199E+02  0.88644417943E+02  0.10594593875E+03  0.47000000000E+01 0.  1.
         13    1    6    6    0    0 -0.48057212226E+02  0.12655754477E+02  0.29281803673E+02  0.57680913608E+02  0.00000000000E+00 0. -1.
        -14    1    6    6    0    0  0.12143635267E+02  0.63955182201E+02  0.24482931320E+02  0.69549601968E+02  0.00000000000E+00 0.  1.
</event>
<event>
12    1  0.2614920E-002  0.1755298E+03  0.7818608E-02  0.1172201E+00
          2   -1    0    0  502    0  0.00000000000E+00  0.00000000000E+00  0.14583689518E+04  0.14583689518E+04  0.00000000000E+00 0.  1.
         -2   -1    0    0    0  501 -0.00000000000E+00 -0.00000000000E+00 -0.21131762790E+02  0.21131762790E+02  0.00000000000E+00 0. -1.
          6    2    1    2  502    0  0.20283878234E+02  0.35276988495E+02  0.73398638772E+03  0.75501252832E+03  0.17219755787E+03 0.  0.
         24    2    3    3    0    0  0.75953553825E+02  0.93967513201E+00  0.50372447546E+03  0.51559489717E+03  0.79560828828E+02 0.  0.
         -6    2    1    2    0  501 -0.20283878234E+02 -0.35276988495E+02  0.70325080130E+03  0.72448818628E+03  0.16930901007E+03 0.  0.
        -24    2    5    5    0    0 -0.59333687336E+02 -0.71376991400E+02  0.48175162805E+03  0.49664597870E+03  0.77184426406E+02 0.  0.
          5    1    3    3  502    0 -0.55669675591E+02  0.34337313363E+02  0.23026191226E+03  0.23941763115E+03  0.47000000000E+01 0. -1.
        -11    1    4    4    0    0  0.73519199546E+02 -0.50919938323E+01  0.22433284266E+03  0.23612756171E+03  0.00000000000E+00 0.  1.
         12    1    4    4    0    0  0.24343542785E+01  0.60316689643E+01  0.27939163280E+03  0.27946733547E+03  0.00000000000E+00 0. -1.
         -5    1    5    5    0  501  0.39049809102E+02  0.36100002905E+02  0.22149917326E+03  0.22784220758E+03  0.47000000000E+01 0.  1.
         11    1    6    6    0    0 -0.99741734275E+00  0.13055809639E+02  0.22191784247E+02  0.25766728445E+02  0.00000000000E+00 0. -1.
        -12    1    6    6    0    0 -0.58336269994E+02 -0.84432801039E+02  0.45955984380E+03  0.47087925026E+03  0.00000000000E+00 0.  1.
</event>
<event>
12    1  0.2614920E-002  0.1928405E+03  0.7818608E-02  0.1155924E+00
          2   -1    0    0  502    0  0.00000000000E+00  0.00000000000E+00  0.37340478879E+03  0.37340478879E+03  0.00000000000E+00 0.  1.
         -2   -1    0    0    0  501 -0.00000000000E+00 -0.00000000000E+00 -0.15256803668E+03  0.15256803668E+03  0.00000000000E+00 0. -1.
          6    2    1    2  502    0 -0.67254952896E+02 -0.56122711868E+02 -0.44492656093E+02  0.19806117786E+03  0.17197571413E+03 0.  0.
         24    2    3    3    0    0  0.27707246015E+02 -0.22220649723E+02 -0.45358544541E+02  0.97115604388E+02  0.78183081910E+02 0.  0.
         -6    2    1    2    0  501  0.67254952896E+02  0.56122711868E+02  0.26532940820E+03  0.32791164762E+03  0.17161983076E+03 0.  0.
        -24    2    5    5    0    0 -0.10966411284E+01  0.61233312118E+02  0.73687904542E+02  0.12432723130E+03  0.79225198220E+02 0.  0.
          5    1    3    3  502    0 -0.94962198912E+02 -0.33902062145E+02  0.86588844858E+00  0.10094557347E+03  0.47000000000E+01 0. -1.
        -13    1    4    4    0    0  0.14116352849E+02 -0.51547552523E+02 -0.25938764662E+02  0.59407416213E+02  0.00000000000E+00 0.  1.
         14    1    4    4    0    0  0.13590893166E+02  0.29326902800E+02 -0.19419779880E+02  0.37708188176E+02  0.00000000000E+00 0. -1.
         -5    1    5    5    0  501  0.68351594025E+02 -0.51106002498E+01  0.19164150366E+03  0.20358441632E+03  0.47000000000E+01 0.  1.
         13    1    6    6    0    0 -0.29361313810E+02  0.18804499943E+00  0.82973532452E+01  0.30511771179E+02  0.00000000000E+00 0. -1.
        -14    1    6    6    0    0  0.28264672682E+02  0.61045267118E+02  0.65390551297E+02  0.93815460124E+02  0.00000000000E+00 0.  1.
</event>
<event>
12    1  0.2614920E-002  0.1937328E+03  0.7818608E-02  0.1155137E+00
          1   -1    0    0  502    0  0.00000000000E+00  0.00000000000E+00  0.48919801067E+02  0.48919801067E+02  0.00000000000E+00 0. -1.
         -1   -1    0    0    0  501 -0.00000000000E+00 -0.00000000000E+00 -0.12971336479E+04  0.12971336479E+04  0.00000000000E+00 0.  1.
          6    2    1    2  502    0 -0.85784408581E+02  0.14098938503E+02 -0.10530203653E+04  0.10705748249E+04  0.17239727718E+03 0.  0.
         24    2    3    3    0    0 -0.10046223609E+03 -0.32482973590E+02 -0.90560779948E+03  0.91521116213E+03  0.79612689544E+02 0.  0.
         -6    2    1    2    0  501  0.85784408581E+02 -0.14098938503E+02 -0.19519348150E+03  0.27547862402E+03  0.17386843374E+03 0.  0.
        -24    2    5    5    0    0  0.10544058924E+02  0.44054555384E+02 -0.13312444464E+03  0.16182302845E+03  0.80078672236E+02 0.  0.
          5    1    3    3  502    0  0.14677827512E+02  0.46581912093E+02 -0.14741256581E+03  0.15536366279E+03  0.47000000000E+01 0. -1.
        -11    1    4    4    0    0 -0.77471920749E+02 -0.15697617601E+02 -0.83978318989E+03  0.84349518062E+03  0.00000000000E+00 0.  1.
         12    1    4    4    0    0 -0.22990315344E+02 -0.16785355989E+02 -0.65824609595E+02  0.71715981508E+02  0.00000000000E+00 0. -1.
         -5    1    5    5    0  501  0.75240349657E+02 -0.58153493887E+02 -0.62069036856E+02  0.11365559557E+03  0.47000000000E+01 0.  1.
         13    1    6    6    0    0  0.37493285818E+02  0.51774639216E+02 -0.90179057077E+02  0.11053787624E+03  0.00000000000E+00 0. -1.
        -14    1    6    6    0    0 -0.26949226895E+02 -0.77200838318E+01 -0.42945387567E+02  0.51285152216E+02  0.00000000000E+00 0.  1.
</event>
<event>
12    1  0.2614920E-002  0.2473571E+03  0.7818608E-02  0.1114987E+00
          1   -1    0    0  502    0  0.00000000000E+00  0.00000000000E+00  0.55234866318E+03  0.55234866318E+03  0.00000000000E+00 0. -1.
         -1   -1    0    0    0  501 -0.00000000000E+00 -0.00000000000E+00 -0.22302519320E+03  0.22302519320E+03  0.00000000000E+00 0.  1.
          6    2    1    2  502    0 -0.17179775215E+03 -0.45652898443E+02  0.43968767252E+03  0.50446505936E+03  0.17193339397E+03 0.  0.
         24    2    3    3    0    0 -0.89172511824E+02 -0.59251978929E+02  0.37708113576E+03  0.39980592800E+03  0.78689664196E+02 0.  0.
         -6    2    1    2    0  501  0.17179775215E+03  0.45652898443E+02 -0.11036420254E+03  0.27090879702E+03  0.17208330634E+03 0.  0.
        -24    2    5    5    0    0  0.10182512430E+02  0.11491269954E+02 -0.27909996779E+02  0.86227209908E+02  0.80127591776E+02 0.  0.
          5    1    3    3  502    0 -0.82625240329E+02  0.13599080486E+02  0.62606536764E+02  0.10465913135E+03  0.47000000000E+01 0. -1.
        -11    1    4    4    0    0 -0.45520410672E+02 -0.73614656685E+02  0.23190053521E+03  0.24752592531E+03  0.00000000000E+00 0.  1.
         12    1    4    4    0    0 -0.43652101152E+02  0.14362677756E+02  0.14518060054E+03  0.15228000270E+03  0.00000000000E+00 0. -1.
         -5    1    5    5    0  501  0.16161523972E+03  0.34161628489E+02 -0.82454205759E+02  0.18468158711E+03  0.47000000000E+01 0.  1.
         13    1    6    6    0    0 -0.18253149609E+02  0.35952776088E+02 -0.14922316656E+01  0.40348560500E+02  0.00000000000E+00 0. -1.
        -14    1    6    6    0    0  0.28435662039E+02 -0.24461506134E+02 -0.26417765114E+02  0.45878649408E+02  0.00000000000E+00 0.  1.
</event>
<event>
12    1  0.2614920E-002  0.2507833E+03  0.7818608E-02  0.1112811E+00
         -4   -1    0    0    0  501 -0.00000000000E+00  0.00000000000E+00  0.34863164653E+03  0.34863164653E+03  0.00000000000E+00 0.  1.
          4   -1    0    0  502    0  0.00000000000E+00 -0.00000000000E+00 -0.18604118673E+03  0.18604118673E+03  0.00000000000E+00 0. -1.
          6    2    1    2  502    0 -0.22727604887E+02  0.18177725169E+03  0.34780566697E+02  0.25333383610E+03  0.17149003305E+03 0.  0.
         24    2    3    3    0    0  0.40962983580E+02  0.12861963673E+03  0.57965290686E+02  0.16706770999E+03  0.79565493899E+02 0.  0.
         -6    2    1    2    0  501  0.22727604887E+02 -0.18177725169E+03  0.12780989310E+03  0.28133899717E+03  0.17104604437E+03 0.  0.
        -24    2    5    5    0    0  0.37578805465E+02 -0.38735813877E+02  0.81847074578E+02  0.13028906576E+03  0.85811812372E+02 0.  0.
          5    1    3    3  502    0 -0.63690588466E+02  0.53157614963E+02 -0.23184723989E+02  0.86266126110E+02  0.47000000000E+01 0. -1.
        -11    1    4    4    0    0  0.54923155740E+01  0.11314578228E+02  0.41563085118E+02  0.43424362464E+02  0.00000000000E+00 0.  1.
         12    1    4    4    0    0  0.35470668006E+02  0.11730505850E+03  0.16402205568E+02  0.12364334752E+03  0.00000000000E+00 0. -1.
         -5    1    5    5    0  501 -0.14851200579E+02 -0.14304143782E+03  0.45962818523E+02  0.15104993141E+03  0.47000000000E+01 0.  1.
         11    1    6    6    0    0  0.22801422507E+02 -0.65736668014E+02  0.64917324703E+02  0.95160251347E+02  0.00000000000E+00 0. -1.
        -12    1    6    6    0    0  0.14777382959E+02  0.27000854136E+02  0.16929749876E+02  0.35128814413E+02  0.00000000000E+00 0.  1.
</event>
<event>
12    1  0.2614920E-002  0.1769129E+03  0.7818608E-02  0.1170825E+00
          2   -1    0    0  502    0  0.00000000000E+00  0.00000000000E+00  0.18869585084E+03  0.18869585084E+03  0.00000000000E+00 0.  1.
         -2   -1    0    0    0  501 -0.00000000000E+00 -0.00000000000E+00 -0.21280197863E+03  0.21280197863E+03  0.00000000000E+00 0. -1.
          6    2    1    2  502    0  0.59181558944E+02  0.38548489842E+02  0.82329690928E+02  0.19230895598E+03  0.15879582348E+03 0.  0.
         24    2    3    3    0    0  0.42547376223E+02  0.57492265568E+02  0.11070070852E+03  0.15406542957E+03  0.79786401712E+02 0.  0.
         -6    2    1    2    0  501 -0.59181558944E+02 -0.38548489842E+02 -0.10643581873E+03  0.20918887349E+03  0.16565916303E+03 0.  0.
        -24    2    5    5    0    0 -0.18894036329E+02  0.40824207777E+02 -0.92952493104E+01  0.77349995183E+02  0.62233588564E+02 0.  0.
          5    1    3    3  502    0  0.16634182722E+02 -0.18943775726E+02 -0.28371017589E+02  0.38243526414E+02  0.47000000000E+01 0. -1.
        -13    1    4    4    0    0  0.54842458069E+02  0.29683322110E+02  0.32840908154E+02  0.70479217270E+02  0.00000000000E+00 0.  1.
         14    1    4    4    0    0 -0.12295081846E+02  0.27808943457E+02  0.77859800363E+02  0.83586212299E+02  0.00000000000E+00 0. -1.
         -5    1    5    5    0  501 -0.40287522615E+02 -0.79372697620E+02 -0.97140569416E+02  0.13183887830E+03  0.47000000000E+01 0.  1.
         13    1    6    6    0    0 -0.20293099808E+01  0.82804173036E+01 -0.32745028105E+02  0.33836670571E+02  0.00000000000E+00 0. -1.
        -14    1    6    6    0    0 -0.16864726348E+02  0.32543790474E+02  0.23449778795E+02  0.43513324611E+02  0.00000000000E+00 0.  1.
</event>
<event>
12    1  0.2614920E-002  0.3380707E+03  0.7818608E-02  0.1067621E+00
         -1   -1    0    0    0  501 -0.00000000000E+00  0.00000000000E+00  0.59042312141E+03  0.59042312141E+03  0.00000000000E+00 0. -1.
          1   -1    0    0  502    0  0.00000000000E+00 -0.00000000000E+00 -0.21396335368E+03  0.21396335368E+03  0.00000000000E+00 0.  1.
          6    2    1    2  502    0  0.29044719131E+03  0.19229576517E+02  0.31245356421E+03  0.46045516951E+03  0.17222771492E+03 0.  0.
         24    2    3    3    0    0  0.18166242395E+03  0.14704652305E+02  0.10007365536E+03  0.22174631708E+03  0.77066397104E+02 0.  0.
         -6    2    1    2    0  501 -0.29044719131E+03 -0.19229576517E+02  0.64006203514E+02  0.34393130558E+03  0.17164673406E+03 0.  0.
        -24    2    5    5    0    0 -0.13462690370E+03 -0.29013598655E+02 -0.28463541530E+02  0.16241427368E+03  0.81252882974E+02 0.  0.
          5    1    3    3  502    0  0.10878476736E+03  0.45249242121E+01  0.21237990885E+03  0.23870885243E+03  0.47000000000E+01 0. -1.
        -13    1    4    4    0    0 -0.18523700964E+01 -0.86133126362E+01  0.16603924714E+02  0.18796562065E+02  0.00000000000E+00 0.  1.
         14    1    4    4    0    0  0.18351479405E+03  0.23317964942E+02  0.83469730651E+02  0.20294975501E+03  0.00000000000E+00 0. -1.
         -5    1    5    5    0  501 -0.15582028761E+03  0.97840221379E+01  0.92469745044E+02  0.18151703190E+03  0.47000000000E+01 0.  1.
         13    1    6    6    0    0 -0.68072186574E+02  0.13108114777E+02 -0.44034333794E+02  0.82125926543E+02  0.00000000000E+00 0. -1.
        -14    1    6    6    0    0 -0.66554717125E+02 -0.42121713432E+02  0.15570792263E+02  0.80288347136E+02  0.00000000000E+00 0.  1.
</event>
<event>
12    1  0.2614920E-002  0.2033007E+03  0.7818608E-02  0.1146984E+00
         -1   -1    0    0    0  501 -0.00000000000E+00  0.00000000000E+00  0.96365554874E+01  0.96365554874E+01  0.00000000000E+00 0.  1.
          1   -1    0    0  502    0  0.00000000000E+00 -0.00000000000E+00 -0.43037856316E+04  0.43037856316E+04  0.00000000000E+00 0. -1.
          6    2    1    2  502    0  0.55123214829E+02 -0.95497181312E+02 -0.22770108677E+04  0.22860988688E+04  0.17120533239E+03 0.  0.
         24    2    3    3    0    0  0.68990606253E+02  0.73551667922E+00 -0.10477696401E+04  0.10530096091E+04  0.79042858246E+02 0.  0.
         -6    2    1    2    0  501 -0.55123214829E+02  0.95497181312E+02 -0.20171382084E+04  0.20273233183E+04  0.17039660970E+03 0.  0.
        -24    2    5    5    0    0  0.20125738009E+02  0.12147881954E+01 -0.85522903128E+03  0.85915954533E+03  0.79573282861E+02 0.  0.
          5    1    3    3  502    0 -0.13867391424E+02 -0.96232697991E+02 -0.12292412276E+04  0.12330892597E+04  0.47000000000E+01 0. -1.
        -11    1    4    4    0    0  0.55338199210E+02 -0.35166243515E+02 -0.59025130607E+03  0.59388179404E+03  0.00000000000E+00 0.  1.
         12    1    4    4    0    0  0.13652407043E+02  0.35901760194E+02 -0.45751833402E+03  0.45912781506E+03  0.00000000000E+00 0. -1.
         -5    1    5    5    0  501 -0.75248952838E+02  0.94282393117E+02 -0.11619091771E+04  0.11681637730E+04  0.47000000000E+01 0.  1.
         13    1    6    6    0    0 -0.15765335548E+02  0.21450131623E+02 -0.60300636519E+03  0.60359367990E+03  0.00000000000E+00 0. -1.
        -14    1    6    6    0    0  0.35891073557E+02 -0.20235343428E+02 -0.25222266609E+03  0.25556586543E+03  0.00000000000E+00 0.  1.
</event>
<event>
12    1  0.2614920E-002  0.2533566E+03  0.7818608E-02  0.1111202E+00
         -3   -1    0    0    0  501 -0.00000000000E+00  0.00000000000E+00  0.97657669484E+03  0.97657669484E+03  0.00000000000E+00 0. -1.
          3   -1    0    0  502    0  0.00000000000E+00 -0.00000000000E+00 -0.74515022860E+02  0.74515022860E+02  0.00000000000E+00 0.  1.
          6    2    1    2  502    0 -0.13368854225E+03  0.11283575762E+03  0.61970717552E+03  0.66687199658E+03  0.17342647404E+03 0.  0.
         24    2    3    3    0    0 -0.19110391943E+02  0.83357508829E+02  0.21557468679E+03  0.24575173094E+03  0.81288291392E+02 0.  0.
         -6    2    1    2    0  501  0.13368854225E+03 -0.11283575762E+03  0.28235449645E+03  0.38421972112E+03  0.19312223565E+03 0.  0.
        -24    2    5    5    0    0  0.13104495101E+02  0.23523082168E+02  0.98017141192E+02  0.12511241485E+03  0.72943081895E+02 0.  0.
          5    1    3    3  502    0 -0.11457815031E+03  0.29478248790E+02  0.40413248873E+03  0.42112026564E+03  0.47000000000E+01 0. -1.
        -13    1    4    4    0    0  0.78447108409E+01  0.60436260704E+02  0.57576051969E+02  0.83839625812E+02  0.00000000000E+00 0.  1.
         14    1    4    4    0    0 -0.26955102784E+02  0.22921248125E+02  0.15799863482E+03  0.16191210513E+03  0.00000000000E+00 0. -1.
         -5    1    5    5    0  501  0.12058404715E+03 -0.13635883979E+03  0.18433735526E+03  0.25910730627E+03  0.47000000000E+01 0.  1.
         13    1    6    6    0    0  0.48693390408E+01  0.27732128056E+02  0.10793762943E+03  0.11154959990E+03  0.00000000000E+00 0. -1.
        -14    1    6    6    0    0  0.82351560598E+01 -0.42090458875E+01 -0.99204882414E+01  0.13562814957E+02  0.00000000000E+00 0.  1.
</event>
<event>
12    1  0.2614920E-002  0.1941458E+03  0.7818608E-02  0.1154774E+00
         -1   -1    0    0    0  501 -0.00000000000E+00  0.00000000000E+00  0.29958884602E+02  0.29958884602E+02  0.00000000000E+00 0. -1.
          1   -1    0    0  502    0  0.00000000000E+00 -0.00000000000E+00 -0.15995678947E+04  0.15995678947E+04  0.00000000000E+00 0.  1.
          6    2    1    2  502    0 -0.51394808653E+02  0.64272447471E+02 -0.41675404107E+03  0.46086251670E+03  0.17871193214E+03 0.  0.
         24    2    3    3    0    0 -0.60685057460E+01  0.80708665538E+01 -0.36010471108E+03  0.36896949182E+03  0.79756612921E+02 0.  0.
         -6    2    1    2    0  501  0.51394808653E+02 -0.64272447471E+02 -0.11528549690E+04  0.11686642626E+04  0.17300059310E+03 0.  0.
        -24    2    5    5    0    0  0.42159612254E+00  0.23510602833E+02 -0.40087961587E+03  0.40985390811E+03  0.81992886220E+02 0.  0.
          5    1    3    3  502    0 -0.45326302907E+02  0.56201580917E+02 -0.56649329991E+02  0.91893024878E+02  0.47000000000E+01 0. -1.
        -13    1    4    4    0    0  0.13882373271E+02 -0.30513301075E+02 -0.10586497060E+03  0.11104581861E+03  0.00000000000E+00 0.  1.
         14    1    4    4    0    0 -0.19950879017E+02  0.38584167629E+02 -0.25423974048E+03  0.25792367321E+03  0.00000000000E+00 0. -1.
         -5    1    5    5    0  501  0.50973212531E+02 -0.87783050304E+02 -0.75197535318E+03  0.75881035451E+03  0.47000000000E+01 0.  1.
         11    1    6    6    0    0  0.11201628486E+02 -0.28699630083E+02 -0.11554791059E+03  0.11958455121E+03  0.00000000000E+00 0. -1.
        -12    1    6    6    0    0 -0.10780032364E+02  0.52210232915E+02 -0.28533170528E+03  0.29026935690E+03  0.00000000000E+00 0.  1.
</event>
<event>
12    1  0.2614920E-002  0.1865203E+03  0.7818608E-02  0.1161638E+00
         -3   -1    0    0    0  501 -0.00000000000E+00  0.00000000000E+00  0.78696408460E+02  0.78696408460E+02  0.00000000000E+00 0.  1.
          3   -1    0    0  502    0  0.00000000000E+00 -0.00000000000E+00 -0.50076802176E+03  0.50076802176E+03  0.00000000000E+00 0. -1.
          6    2    1    2  502    0  0.71329950389E+02 -0.18670699211E+02 -0.11110810052E+03  0.21646668895E+03  0.17051762546E+03 0.  0.
         24    2    3    3    0    0  0.52737625505E+02 -0.51572170207E+02 -0.11807286086E+02  0.11011386536E+03  0.80899353867E+02 0.  0.
         -6    2    1    2    0  501 -0.71329950389E+02  0.18670699211E+02 -0.31096351278E+03  0.36299774127E+03  0.17214092208E+03 0.  0.
        -24    2    5    5    0    0 -0.68434354907E+01 -0.34791235696E+02 -0.23269751080E+03  0.24826175671E+03  0.78920882031E+02 0.  0.
          5    1    3    3  502    0  0.18592324884E+02  0.32901470996E+02 -0.99300814431E+02  0.10635282359E+03  0.47000000000E+01 0. -1.
        -13    1    4    4    0    0 -0.19028467981E+02 -0.27245698257E+02 -0.83116872334E+01  0.34256310541E+02  0.00000000000E+00 0.  1.
         14    1    4    4    0    0  0.71766093486E+02 -0.24326471949E+02 -0.34955988525E+01  0.75857554819E+02  0.00000000000E+00 0. -1.
         -5    1    5    5    0  501 -0.64486514898E+02  0.53461934906E+02 -0.78266001982E+02  0.11473598456E+03  0.47000000000E+01 0.  1.
         11    1    6    6    0    0 -0.15762116899E+01  0.15165991336E+02 -0.15494408245E+03  0.15569251884E+03  0.00000000000E+00 0. -1.
        -12    1    6    6    0    0 -0.52672238008E+01 -0.49957227032E+02 -0.77753428352E+02  0.92569237870E+02  0.00000000000E+00 0.  1.
</event>
<event>
12    1  0.2614920E-002  0.4687001E+03  0.7818608E-02  0.1022288E+00
         -2   -1    0    0    0  501 -0.00000000000E+00  0.00000000000E+00  0.10516511081E+03  0.10516511081E+03  0.00000000000E+00 0. -1.
          2   -1    0    0  502    0  0.00000000000E+00 -0.00000000000E+00 -0.22023914975E+04  0.22023914975E+04  0.00000000000E+00 0.  1.
          6    2    1    2  502    0 -0.55609909167E+02  0.43117530157E+03 -0.13138366230E+04  0.13954671490E+04  0.17932453590E+03 0.  0.
         24    2    3    3    0    0 -0.31022873322E+02  0.15240354090E+03 -0.61133912814E+03  0.63926410931E+03  0.10360412108E+03 0.  0.
         -6    2    1    2    0  501  0.55609909167E+02 -0.43117530157E+03 -0.78338976364E+03  0.91208945931E+03  0.17088902052E+03 0.  0.
        -24    2    5    5    0    0  0.26374997580E+02 -0.25493551177E+03 -0.34153951058E+03  0.43546709340E+03  0.85408409916E+02 0.  0.
          5    1    3    3  502    0 -0.24587035845E+02  0.27877176066E+03 -0.70249749488E+03  0.75620303966E+03  0.47000000000E+01 0. -1.
        -11    1    4    4    0    0  0.47874466692E+01  0.15083395494E+03 -0.50287436663E+03  0.52502993269E+03  0.00000000000E+00 0.  1.
         12    1    4    4    0    0 -0.35810319991E+02  0.15695859639E+01 -0.10846476151E+03  0.11423417662E+03  0.00000000000E+00 0. -1.
         -5    1    5    5    0  501  0.29234911587E+02 -0.17623978979E+03 -0.44185025305E+03  0.47662236591E+03  0.47000000000E+01 0.  1.
         11    1    6    6    0    0  0.17501074172E+02 -0.11891763739E+02 -0.58949610907E+02  0.62631926907E+02  0.00000000000E+00 0. -1.
        -12    1    6    6    0    0  0.88739234079E+01 -0.24304374803E+03 -0.28258989968E+03  0.37283516649E+03  0.00000000000E+00 0.  1.
</event>
<event>
12    1  0.2614920E-002  0.1952084E+03  0.7818608E-02  0.1153846E+00
          2   -1    0    0  502    0  0.00000000000E+00  0.00000000000E+00  0.16437208457E+03  0.16437208457E+03  0.00000000000E+00 0.  1.
         -2   -1    0    0    0  501 -0.00000000000E+00 -0.00000000000E+00 -0.23208153875E+03  0.23208153875E+03  0.00000000000E+00 0. -1.
          6    2    1    2  502    0 -0.17496867496E+02  0.96161762853E+02 -0.39474948594E+02  0.19678522168E+03  0.16617137810E+03 0.  0.
         24    2    3    3    0    0 -0.15465216559E+02  0.10586185598E+03  0.21204033397E+02  0.13512284849E+03  0.79766331723E+02 0.  0.
         -6    2    1    2    0  501  0.17496867496E+02 -0.96161762853E+02 -0.28234505589E+02  0.19966840163E+03  0.17180529182E+03 0.  0.
        -24    2    5    5    0    0  0.76664771653E+02 -0.56256414806E+02 -0.45296203270E+01  0.12432061288E+03  0.79955149345E+02 0.  0.
          5    1    3    3  502    0 -0.20316509365E+01 -0.97000931278E+01 -0.60678981992E+02  0.61662373193E+02  0.47000000000E+01 0. -1.
        -11    1    4    4    0    0 -0.44083436001E+02  0.87738382912E+02  0.71550715899E+01  0.98450841618E+02  0.00000000000E+00 0.  1.
         12    1    4    4    0    0  0.28618219442E+02  0.18123473069E+02  0.14048961807E+02  0.36672006872E+02  0.00000000000E+00 0. -1.
         -5    1    5    5    0  501 -0.59167904157E+02 -0.39905348047E+02 -0.23704885262E+02  0.75347788756E+02  0.47000000000E+01 0.  1.
         13    1    6    6    0    0  0.43694591713E+02 -0.65249174096E+02 -0.27431902518E+02  0.83181616605E+02  0.00000000000E+00 0. -1.
        -14    1    6    6    0    0  0.32970179939E+02  0.89927592900E+01  0.22902282191E+02  0.41138996274E+02  0.00000000000E+00 0.  1.
</event>
<event>
12    1  0.2614920E-002  0.2215154E+03  0.7818608E-02  0.1132758E+00
         -1   -1    0    0    0  501 -0.00000000000E+00  0.00000000000E+00  0.24787129127E+03  0.24787129127E+03  0.00000000000E+00 0. -1.
          1   -1    0    0  502    0  0.00000000000E+00 -0.00000000000E+00 -0.23387879884E+03  0.23387879884E+03  0.00000000000E+00 0.  1.
          6    2    1    2  502    0 -0.21831300844E+02 -0.13902078834E+03  0.10138861974E+03  0.24355047466E+03  0.17097893499E+03 0.  0.
         24    2    3    3    0    0 -0.58244669232E+02 -0.28036815782E+02  0.30110382639E+02  0.10663424975E+03  0.79282555100E+02 0.  0.
         -6    2    1    2    0  501  0.21831300844E+02  0.13902078834E+03 -0.87396127311E+02  0.23819961545E+03  0.17116538331E+03 0.  0.
        -24    2    5    5    0    0  0.74740321836E+02  0.10922561300E+03 -0.36662830145E+02  0.15893376898E+03  0.79996434683E+02 0.  0.
          5    1    3    3  502    0  0.36413368389E+02 -0.11098397256E+03  0.71278237100E+02  0.13691622492E+03  0.47000000000E+01 0. -1.
        -13    1    4    4    0    0 -0.13839313809E+02  0.13844858360E+02  0.40249704755E+02  0.44757629993E+02  0.00000000000E+00 0.  1.
         14    1    4    4    0    0 -0.44405355424E+02 -0.41881674142E+02 -0.10139322116E+02  0.61876619754E+02  0.00000000000E+00 0. -1.
         -5    1    5    5    0  501 -0.52909020993E+02  0.29795175332E+02 -0.50733297166E+02  0.79265846471E+02  0.47000000000E+01 0.  1.
         11    1    6    6    0    0  0.71061745663E+02  0.43841861981E+02  0.77351465094E+00  0.83501370549E+02  0.00000000000E+00 0. -1.
        -12    1    6    6    0    0  0.36785761729E+01  0.65383751024E+02 -0.37436344796E+02  0.75432398426E+02  0.00000000000E+00 0.  1.
</event>
<event>
12    1  0.2614920E-002  0.1781542E+03  0.7818608E-02  0.1169601E+00
          2   -1    0    0  502    0  0.00000000000E+00  0.00000000000E+00  0.10123239551E+03  0.10123239551E+03  0.00000000000E+00 0. -1.
         -2   -1    0    0    0  501 -0.00000000000E+00 -0.00000000000E+00 -0.44786815681E+03  0.44786815681E+03  0.00000000000E+00 0.  1.
          6    2    1    2  502    0  0.42911772708E+02  0.21780460415E+02 -0.32398755553E+03  0.36995424578E+03  0.17199534628E+03 0.  0.
         24    2    3    3    0    0  0.86357413178E+02  0.50285774849E+02 -0.23294381431E+03  0.26502031684E+03  0.77373676101E+02 0.  0.
         -6    2    1    2    0  501 -0.42911772708E+02 -0.21780460415E+02 -0.22648205774E+02  0.17914630653E+03  0.17106913581E+03 0.  0.
        -24    2    5    5    0    0 -0.16147500904E+02 -0.79526856852E+02 -0.15450015024E+02  0.11492110512E+03  0.79893020289E+02 0.  0.
          5    1    3    3  502    0 -0.43445640471E+02 -0.28505314433E+02 -0.91043741221E+02  0.10493392894E+03  0.47000000000E+01 0. -1.
        -13    1    4    4    0    0  0.79243032029E+02  0.50530365779E+02 -0.12275261627E+03  0.15459942041E+03  0.00000000000E+00 0.  1.
         14    1    4    4    0    0  0.71143811499E+01 -0.24459093010E+00 -0.11019119804E+03  0.11042089643E+03  0.00000000000E+00 0. -1.
         -5    1    5    5    0  501 -0.26764271804E+02  0.57746396437E+02 -0.71981907501E+01  0.64225201414E+02  0.47000000000E+01 0.  1.
         11    1    6    6    0    0 -0.43512905539E+01 -0.63707662049E+02  0.26052497866E+02  0.68966169810E+02  0.00000000000E+00 0. -1.
        -12    1    6    6    0    0 -0.11796210350E+02 -0.15819194803E+02 -0.41502512890E+02  0.45954935306E+02  0.00000000000E+00 0.  1.
</event>
<event>
12    1  0.2614920E-002  0.2267139E+03  0.7818608E-02  0.1128974E+00
         -2   -1    0    0    0  501 -0.00000000000E+00  0.00000000000E+00  0.40058605722E+02  0.40058605722E+02  0.00000000000E+00 0.  1.
          2   -1    0    0  502    0  0.00000000000E+00 -0.00000000000E+00 -0.13029301209E+04  0.13029301209E+04  0.00000000000E+00 0. -1.
          6    2    1    2  502    0 -0.14454857748E+03 -0.36489213379E+02 -0.54071053257E+03  0.58515009848E+03  0.16675432160E+03 0.  0.
         24    2    3    3    0    0 -0.11775718432E+03 -0.84286808300E+02 -0.35996790974E+03  0.39622584240E+03  0.80293222810E+02 0.  0.
         -6    2    1    2    0  501  0.14454857748E+03  0.36489213379E+02 -0.72216098260E+03  0.75783862814E+03  0.17486322529E+03 0.  0.
        -24    2    5    5    0    0  0.78119593253E+02  0.68921362554E+02 -0.60317009032E+03  0.61767594875E+03  0.82804557519E+02 0.  0.
          5    1    3    3  502    0 -0.26791393162E+02  0.47797594921E+02 -0.18074262283E+03  0.18892425608E+03  0.47000000000E+01 0. -1.
        -13    1    4    4    0    0 -0.60505725027E+02 -0.38329349062E+02 -0.82707445009E+02  0.10941025190E+03  0.00000000000E+00 0.  1.
         14    1    4    4    0    0 -0.57251459294E+02 -0.45957459238E+02 -0.27726046473E+03  0.28681559050E+03  0.00000000000E+00 0. -1.
         -5    1    5    5    0  501  0.66428984230E+02 -0.32432149175E+02 -0.11899089228E+03  0.14016267938E+03  0.47000000000E+01 0.  1.
         11    1    6    6    0    0  0.50272474975E+02  0.71658030896E+02 -0.28160785598E+03  0.29489859220E+03  0.00000000000E+00 0. -1.
        -12    1    6    6    0    0  0.27847118277E+02 -0.27366683420E+01 -0.32156223434E+03  0.32277735655E+03  0.00000000000E+00 0.  1.
</event>
<event>
12    1  0.2614920E-002  0.3626199E+03  0.7818608E-02  0.1057551E+00
          2   -1    0    0  502    0  0.00000000000E+00  0.00000000000E+00  0.20335565588E+04  0.20335565588E+04  0.00000000000E+00 0. -1.
         -2   -1    0    0    0  501 -0.00000000000E+00 -0.00000000000E+00 -0.72498961757E+02  0.72498961757E+02  0.00000000000E+00 0.  1.
          6    2    1    2  502    0  0.31750202292E+03  0.33531421269E+02  0.13265069015E+04  0.13751509254E+04  0.17171958840E+03 0.  0.
         24    2    3    3    0    0  0.95386478071E+02 -0.18332062107E+02  0.33656934690E+03  0.35926530771E+03  0.79737013650E+02 0.  0.
         -6    2    1    2    0  501 -0.31750202292E+03 -0.33531421269E+02  0.63455069549E+03  0.73090459514E+03  0.17214834089E+03 0.  0.
        -24    2    5    5    0    0 -0.23772775187E+03 -0.77120126057E+02  0.53645120152E+03  0.59707817688E+03  0.79123067655E+02 0.  0.
          5    1    3    3  502    0  0.22211554485E+03  0.51863483376E+02  0.98993755463E+03  0.10158856177E+04  0.47000000000E+01 0. -1.
        -11    1    4    4    0    0  0.40853870940E+02 -0.48068699292E+02  0.15404286334E+03  0.16645973197E+03  0.00000000000E+00 0.  1.
         12    1    4    4    0    0  0.54532607131E+02  0.29736637185E+02  0.18252648357E+03  0.19280557573E+03  0.00000000000E+00 0. -1.
         -5    1    5    5    0  501 -0.79774271059E+02  0.43588704788E+02  0.98099493966E+02  0.13382641826E+03  0.47000000000E+01 0.  1.
         13    1    6    6    0    0 -0.12980163476E+02 -0.26764265858E+02  0.88825686225E+02  0.93673972394E+02  0.00000000000E+00 0. -1.
        -14    1    6    6    0    0 -0.22474758839E+03 -0.50355860199E+02  0.44762551530E+03  0.50340420448E+03  0.00000000000E+00 0.  1.
</event>
<event>
12    1  0.2614920E-002  0.2046070E+03  0.7818608E-02  0.1145909E+00
         -2   -1    0    0    0  501 -0.00000000000E+00  0.00000000000E+00  0.11235512898E+02  0.11235512898E+02  0.00000000000E+00 0. -1.
          2   -1    0    0  502    0  0.00000000000E+00 -0.00000000000E+00 -0.37825961966E+04  0.37825961966E+04  0.00000000000E+00 0.  1.
          6    2    1    2  502    0 -0.81427662306E+02  0.80515539425E+02 -0.16610109735E+04  0.16736622128E+04  0.17051255720E+03 0.  0.
         24    2    3    3    0    0  0.20289166398E+02  0.20739899798E+02 -0.84173587767E+03  0.84592239076E+03  0.78889858096E+02 0.  0.
         -6    2    1    2    0  501  0.81427662306E+02 -0.80515539425E+02 -0.21103497102E+04  0.21201694967E+04  0.16861073256E+03 0.  0.
        -24    2    5    5    0    0 -0.19008235940E+02 -0.55341232157E+02 -0.11838115264E+04  0.11878518408E+04  0.78474841391E+02 0.  0.
          5    1    3    3  502    0 -0.10171682870E+03  0.59775639626E+02 -0.81927509581E+03  0.82773982201E+03  0.47000000000E+01 0. -1.
        -13    1    4    4    0    0 -0.46007775390E+01  0.34718332713E+02 -0.72129486259E+03  0.72214458981E+03  0.00000000000E+00 0.  1.
         14    1    4    4    0    0  0.24889943937E+02 -0.13978432915E+02 -0.12044101508E+03  0.12377780095E+03  0.00000000000E+00 0. -1.
         -5    1    5    5    0  501  0.10043589825E+03 -0.25174307268E+02 -0.92653818381E+03  0.93231765587E+03  0.47000000000E+01 0.  1.
         13    1    6    6    0    0 -0.29304698664E+02 -0.70866390730E+02 -0.82480647999E+03  0.82836377283E+03  0.00000000000E+00 0. -1.
        -14    1    6    6    0    0  0.10296462724E+02  0.15525158574E+02 -0.35900504639E+03  0.35948806799E+03  0.00000000000E+00 0.  1.
</event>
<event>
12    1  0.2614920E-002  0.2063842E+03  0.7818608E-02  0.1144462E+00
         -2   -1    0    0    0  501 -0.00000000000E+00  0.00000000000E+00  0.21709148450E+02  0.21709148450E+02  0.00000000000E+00 0.  1.
          2   -1    0    0  502    0  0.00000000000E+00 -0.00000000000E+00 -0.20778844183E+04  0.20778844183E+04  0.00000000000E+00 0. -1.
          6    2    1    2  502    0 -0.39638989463E+02 -0.98288938960E+02 -0.80888337003E+03  0.83625185245E+03  0.18382842381E+03 0.  0.
         24    2    3    3    0    0 -0.74908428011E+01 -0.11379093563E+03 -0.36073897851E+03  0.38666392902E+03  0.79824141937E+02 0.  0.
         -6    2    1    2    0  501  0.39638989463E+02  0.98288938960E+02 -0.12472918998E+04  0.12633417143E+04  0.17047943787E+03 0.  0.
        -24    2    5    5    0    0  0.40782224726E+01  0.12831439432E+03 -0.89264552096E+03  0.90562361278E+03  0.82806317679E+02 0.  0.
          5    1    3    3  502    0 -0.32148146662E+02  0.15501996667E+02 -0.44814439153E+03  0.44958792343E+03  0.47000000000E+01 0. -1.
        -11    1    4    4    0    0 -0.15483230389E+02 -0.54119679737E+02 -0.28190685567E+03  0.28747199069E+03  0.00000000000E+00 0.  1.
         12    1    4    4    0    0  0.79923875881E+01 -0.59671255889E+02 -0.78832122834E+02  0.99191938328E+02  0.00000000000E+00 0. -1.
         -5    1    5    5    0  501  0.35560766991E+02 -0.30025455363E+02 -0.35464637882E+03  0.35771810149E+03  0.47000000000E+01 0.  1.
         11    1    6    6    0    0  0.52339541732E+01  0.40794390757E+02 -0.56478969549E+03  0.56628524325E+03  0.00000000000E+00 0. -1.
        -12    1    6    6    0    0 -0.11557317006E+01  0.87520003566E+02 -0.32785582547E+03  0.33933836953E+03  0.00000000000E+00 0.  1.
</event>
<event>
12    1  0.2614920E-002  0.2751746E+03  0.7818608E-02  0.1098354E+00
         -2   -1    0    0    0  501 -0.00000000000E+00  0.00000000000E+00  0.26542301698E+03  0.26542301698E+03  0.00000000000E+00 0. -1.
          2   -1    0    0  502    0  0.00000000000E+00 -0.00000000000E+00 -0.10596845239E+04  0.10596845239E+04  0.00000000000E+00 0.  1.
          6    2    1    2  502    0  0.49447202169E+02 -0.20718029040E+03  0.16883560110E+03  0.32376677115E+03  0.17592829042E+03 0.  0.
         24    2    3    3    0    0  0.27958583692E+02 -0.11376270038E+03  0.15733598022E+02  0.14307111488E+03  0.80611186604E+02 0.  0.
         -6    2    1    2    0  501 -0.49447202169E+02  0.20718029040E+03 -0.96309710797E+03  0.10013407697E+04  0.17250680888E+03 0.  0.
        -24    2    5    5    0    0 -0.76924223460E+02  0.18237708045E+03 -0.60781980210E+03  0.64410941608E+03  0.79077761989E+02 0.  0.
          5    1    3    3  502    0  0.21488618476E+02 -0.93417590022E+02  0.15310200307E+03  0.18069565627E+03  0.47000000000E+01 0. -1.
        -11    1    4    4    0    0 -0.22216522119E+02 -0.72475291514E+02  0.18518127399E+02  0.78033087710E+02  0.00000000000E+00 0.  1.
         12    1    4    4    0    0  0.50175105812E+02 -0.41287408869E+02 -0.27845293777E+01  0.65038027170E+02  0.00000000000E+00 0. -1.
         -5    1    5    5    0  501  0.27477021291E+02  0.24803209959E+02 -0.35527730587E+03  0.35723135360E+03  0.47000000000E+01 0.  1.
         11    1    6    6    0    0 -0.46541143659E+02  0.53599566628E+02 -0.12783487812E+03  0.14622157043E+03  0.00000000000E+00 0. -1.
        -12    1    6    6    0    0 -0.30383079801E+02  0.12877751382E+03 -0.47998492397E+03  0.49788784565E+03  0.00000000000E+00 0.  1.
</event>
<event>
12    1  0.2614920E-002  0.1899751E+03  0.7818608E-02  0.1158484E+00
          1   -1    0    0  502    0  0.00000000000E+00  0.00000000000E+00  0.84637097660E+03  0.84637097660E+03  0.00000000000E+00 0. -1.
         -1   -1    0    0    0  501 -0.00000000000E+00 -0.00000000000E+00 -0.47221123821E+02  0.47221123821E+02  0.00000000000E+00 0.  1.
          6    2    1    2  502    0  0.39127898449E+02 -0.62039927352E+02  0.26566981694E+03  0.32818354112E+03  0.17816857188E+03 0.  0.
         24    2    3    3    0    0 -0.48687365641E+02 -0.36667140318E+02  0.15586073263E+03  0.18523101779E+03  0.79391581568E+02 0.  0.
         -6    2    1    2    0  501 -0.39127898449E+02  0.62039927352E+02  0.53348003584E+03  0.56540855930E+03  0.17235412751E+03 0.  0.
        -24    2    5    5    0    0 -0.14395742809E+02 -0.32919908678E+02  0.28403203599E+03  0.29731259773E+03  0.80184945609E+02 0.  0.
          5    1    3    3  502    0  0.87815264090E+02 -0.25372787035E+02  0.10980908431E+03  0.14295252333E+03  0.47000000000E+01 0. -1.
        -13    1    4    4    0    0 -0.46269643763E+01  0.24250036577E+02  0.33391377971E+02  0.41526584210E+02  0.00000000000E+00 0.  1.
         14    1    4    4    0    0 -0.44060401265E+02 -0.60917176894E+02  0.12246935466E+03  0.14370443359E+03  0.00000000000E+00 0. -1.
         -5    1    5    5    0  501 -0.24732155640E+02  0.94959836031E+02  0.24944799985E+03  0.26809596157E+03  0.47000000000E+01 0.  1.
         13    1    6    6    0    0 -0.41978884653E+02  0.15719233788E+01  0.10955808633E+03  0.11733572338E+03  0.00000000000E+00 0. -1.
        -14    1    6    6    0    0  0.27583141844E+02 -0.34491832057E+02  0.17447394966E+03  0.17997687436E+03  0.00000000000E+00 0.  1.
</event>
<event>
12    1  0.2614920E-002  0.2363004E+03  0.7818608E-02  0.1122282E+00
         -2   -1    0    0    0  501 -0.00000000000E+00  0.00000000000E+00  0.43522178233E+02  0.43522178233E+02  0.00000000000E+00 0.  1.
          2   -1    0    0  502    0  0.00000000000E+00 -0.00000000000E+00 -0.24098748749E+04  0.24098748749E+04  0.00000000000E+00 0. -1.
          6    2    1    2  502    0  0.13500734038E+03  0.93527381462E+02 -0.34435062354E+03  0.41763520518E+03  0.16990426608E+03 0.  0.
         24    2    3    3    0    0  0.11603892090E+03  0.11500572458E+03 -0.19993796516E+03  0.27033202782E+03  0.80080381504E+02 0.  0.
         -6    2    1    2    0  501 -0.13500734038E+03 -0.93527381462E+02 -0.20220020731E+04  0.20357618479E+04  0.16988103136E+03 0.  0.
        -24    2    5    5    0    0 -0.60115752499E+02  0.63836556219E+01 -0.12161692045E+04  0.12202989932E+04  0.80046512475E+02 0.  0.
          5    1    3    3  502    0  0.18968419480E+02 -0.21478343116E+02 -0.14441265838E+03  0.14730317736E+03  0.47000000000E+01 0. -1.
        -11    1    4    4    0    0  0.61883865672E+02  0.12397793491E+02 -0.48707017765E+02  0.79722592115E+02  0.00000000000E+00 0.  1.
         12    1    4    4    0    0  0.54155055229E+02  0.10260793109E+03 -0.15123094740E+03  0.19060943570E+03  0.00000000000E+00 0. -1.
         -5    1    5    5    0  501 -0.74891587881E+02 -0.99911037084E+02 -0.80583286859E+03  0.81546285468E+03  0.47000000000E+01 0.  1.
         13    1    6    6    0    0 -0.51087639293E+02 -0.25888702867E+02 -0.99058063809E+03  0.99223493810E+03  0.00000000000E+00 0. -1.
        -14    1    6    6    0    0 -0.90281132068E+01  0.32272358489E+02 -0.22558856641E+03  0.22806405513E+03  0.00000000000E+00 0.  1.
</event>
<event>
12    1  0.2614920E-002  0.2027840E+03  0.7818608E-02  0.1147411E+00
          4   -1    0    0  502    0  0.00000000000E+00  0.00000000000E+00  0.31294110878E+03  0.31294110878E+03  0.00000000000E+00 0.  1.
         -4   -1    0    0    0  501 -0.00000000000E+00 -0.00000000000E+00 -0.18058236105E+03  0.18058236105E+03  0.00000000000E+00 0. -1.
          6    2    1    2  502    0 -0.89368706860E+02 -0.57097271780E+02  0.19485168744E+03  0.28091776022E+03  0.17233903708E+03 0.  0.
         24    2    3    3    0    0 -0.98222763288E+02 -0.49229450036E+01  0.18940745742E+03  0.22751097854E+03  0.78829650597E+02 0.  0.
         -6    2    1    2    0  501  0.89368706860E+02  0.57097271780E+02 -0.62492939706E+02  0.21260570961E+03  0.17334634704E+03 0.  0.
        -24    2    5    5    0    0  0.78454538817E+02  0.29016439050E+02  0.26280717446E+02  0.11874142228E+03  0.80073596520E+02 0.  0.
          5    1    3    3  502    0  0.88540564282E+01 -0.52174326777E+02  0.54442300237E+01  0.53406781689E+02  0.47000000000E+01 0. -1.
        -13    1    4    4    0    0 -0.62073493168E+02 -0.41414699337E+02  0.10891680398E+03  0.13202714139E+03  0.00000000000E+00 0.  1.
         14    1    4    4    0    0 -0.36149270120E+02  0.36491754333E+02  0.80490653436E+02  0.95483837141E+02  0.00000000000E+00 0. -1.
         -5    1    5    5    0  501  0.10914168042E+02  0.28080832731E+02 -0.88773657152E+02  0.93864287325E+02  0.47000000000E+01 0.  1.
         13    1    6    6    0    0  0.67954700311E+02  0.49772841034E+02  0.79531009062E+00  0.84236628120E+02  0.00000000000E+00 0. -1.
        -14    1    6    6    0    0  0.10499838506E+02 -0.20756401984E+02  0.25485407355E+02  0.34504794160E+02  0.00000000000E+00 0.  1.
</event>
<event>
12    1  0.2614920E-002  0.3153334E+03  0.7818608E-02  0.1077817E+00
          1   -1    0    0  502    0  0.00000000000E+00  0.00000000000E+00  0.15329106547E+03  0.15329106547E+03  0.00000000000E+00 0. -1.
         -1   -1    0    0    0  501 -0.00000000000E+00 -0.00000000000E+00 -0.86538709285E+03  0.86538709285E+03  0.00000000000E+00 0.  1.
          6    2    1    2  502    0  0.16400599729E+03 -0.20732797979E+03 -0.10169549745E+03  0.33192696809E+03  0.17306264645E+03 0.  0.
         24    2    3    3    0    0  0.16977109816E+03 -0.21054919497E+03 -0.58440255314E+02  0.28791880308E+03  0.79553657694E+02 0.  0.
         -6    2    1    2    0  501 -0.16400599729E+03  0.20732797979E+03 -0.61040052993E+03  0.68675119023E+03  0.17074991068E+03 0.  0.
        -24    2    5    5    0    0 -0.18086045797E+03  0.16921099758E+03 -0.43539542515E+03  0.50679048931E+03  0.76971142985E+02 0.  0.
          5    1    3    3  502    0 -0.57651008747E+01  0.32212151820E+01 -0.43255242136E+02  0.44008165010E+02  0.47000000000E+01 0. -1.
        -13    1    4    4    0    0  0.86092783967E+02 -0.11939597658E+03 -0.71220844170E+02  0.16352301159E+03  0.00000000000E+00 0.  1.
         14    1    4    4    0    0  0.83678314195E+02 -0.91153218389E+02  0.12780588856E+02  0.12439579149E+03  0.00000000000E+00 0. -1.
         -5    1    5    5    0  501  0.16854460684E+02  0.38116982205E+02 -0.17500510479E+03  0.17996070093E+03  0.47000000000E+01 0.  1.
         11    1    6    6    0    0 -0.12294036361E+02  0.36506543771E+02 -0.32765277678E+02  0.50571083531E+02  0.00000000000E+00 0. -1.
        -12    1    6    6    0    0 -0.16856642161E+03  0.13270445381E+03 -0.40263014747E+03  0.45621940577E+03  0.00000000000E+00 0.  1.
</event>
<event>
12    1  0.2614920E-002  0.2054316E+03  0.7818608E-02  0.1145236E+00
          1   -1    0    0  502    0  0.00000000000E+00  0.00000000000E+00  0.12222061656E+03  0.12222061656E+03  0.00000000000E+00 0.  1.
         -1   -1    0    0    0  501 -0.00000000000E+00 -0.00000000000E+00 -0.59969193729E+03  0.59969193729E+03  0.00000000000E+00 0. -1.
          6    2    1    2  502    0  0.75024563338E+02  0.84859809200E+02 -0.30798244995E+01  0.20461525609E+03  0.17037618785E+03 0.  0.
         24    2    3    3    0    0 -0.16962242077E+01  0.41016933334E+02 -0.51896984698E+02  0.10355348223E+03  0.79654005958E+02 0.  0.
         -6    2    1    2    0  501 -0.75024563338E+02 -0.84859809200E+02 -0.47439149624E+03  0.51729729776E+03  0.17239295299E+03 0.  0.
        -24    2    5    5    0    0 -0.70003721408E+02 -0.61719535842E+02 -0.47739155920E+03  0.49297094409E+03  0.80048915097E+02 0.  0.
          5    1    3    3  502    0  0.76720787546E+02  0.43842875867E+02  0.48817160198E+02  0.10106177386E+03  0.47000000000E+01 0. -1.
        -11    1    4    4    0    0 -0.31694501017E+02  0.43662733226E+02 -0.15144160862E+02  0.56038569536E+02  0.00000000000E+00 0.  1.
         12    1    4    4    0    0  0.29998276809E+02 -0.26457998924E+01 -0.36752823836E+02  0.47514912696E+02  0.00000000000E+00 0. -1.
         -5    1    5    5    0  501 -0.50208419298E+01 -0.23140273358E+02  0.30000629620E+01  0.24326353663E+02  0.47000000000E+01 0.  1.
         13    1    6    6    0    0 -0.24419450929E+02 -0.17398180222E+02 -0.34290034670E+03  0.34420873613E+03  0.00000000000E+00 0. -1.
        -14    1    6    6    0    0 -0.45584270479E+02 -0.44321355620E+02 -0.13449121250E+03  0.14876220797E+03  0.00000000000E+00 0.  1.
</event>
<event>
12    1  0.2614920E-002  0.1984528E+03  0.7818608E-02  0.1151051E+00
          4   -1    0    0  502    0  0.00000000000E+00  0.00000000000E+00  0.58306124995E+03  0.58306124995E+03  0.00000000000E+00 0. -1.
         -4   -1    0    0    0  501 -0.00000000000E+00 -0.00000000000E+00 -0.95079308909E+02  0.95079308909E+02  0.00000000000E+00 0.  1.
          6    2    1    2  502    0  0.80961973115E+02  0.56071144709E+02  0.42621855639E+03  0.47004161082E+03  0.17198268440E+03 0.  0.
         24    2    3    3    0    0  0.56128904843E+02  0.39737830716E+02  0.10081068033E+03  0.14324529165E+03  0.75012473374E+02 0.  0.
         -6    2    1    2    0  501 -0.80961973115E+02 -0.56071144709E+02  0.61763384654E+02  0.20809894804E+03  0.17260255540E+03 0.  0.
        -24    2    5    5    0    0 -0.10973248802E+03 -0.45894141457E+02  0.88420792984E+02  0.16730653034E+03  0.77625687203E+02 0.  0.
          5    1    3    3  502    0  0.24833068272E+02  0.16333313993E+02  0.32540787606E+03  0.32679631917E+03  0.47000000000E+01 0. -1.
        -11    1    4    4    0    0  0.19524601174E+02  0.57574950123E+02  0.65263418643E+02  0.89193042025E+02  0.00000000000E+00 0.  1.
         12    1    4    4    0    0  0.36604303669E+02 -0.17837119407E+02  0.35547261692E+02  0.54052249626E+02  0.00000000000E+00 0. -1.
         -5    1    5    5    0  501  0.28770514906E+02 -0.10177003252E+02 -0.26657408330E+02  0.40792417703E+02  0.47000000000E+01 0.  1.
         11    1    6    6    0    0 -0.37394589091E+02 -0.53312108102E+02  0.21761253065E+02  0.68659218598E+02  0.00000000000E+00 0. -1.
        -12    1    6    6    0    0 -0.72337898930E+02  0.74179666458E+01  0.66659539919E+02  0.98647311738E+02  0.00000000000E+00 0.  1.
</event>
<event>
12    1  0.2614920E-002  0.2212296E+03  0.7818608E-02  0.1132970E+00
         -2   -1    0    0    0  501 -0.00000000000E+00  0.00000000000E+00  0.38425038175E+02  0.38425038175E+02  0.00000000000E+00 0.  1.
          2   -1    0    0  502    0  0.00000000000E+00 -0.00000000000E+00 -0.15003872952E+04  0.15003872952E+04  0.00000000000E+00 0. -1.
          6    2    1    2  502    0 -0.12096067095E+03 -0.69894310522E+02 -0.43334100030E+03  0.48677525501E+03  0.17218893050E+03 0.  0.
         24    2    3    3    0    0 -0.98582972573E+02  0.20280389773E+02 -0.22686272451E+03  0.26030758330E+03  0.78507614009E+02 0.  0.
         -6    2    1    2    0  501  0.12096067095E+03  0.69894310522E+02 -0.10286212567E+04  0.10520370783E+04  0.17089068411E+03 0.  0.
        -24    2    5    5    0    0  0.64122505393E+02  0.95170534483E+01 -0.83561136503E+03  0.84191592635E+03  0.79836104988E+02 0.  0.
          5    1    3    3  502    0 -0.22377698375E+02 -0.90174700295E+02 -0.20647827579E+03  0.22646767171E+03  0.47000000000E+01 0. -1.
        -13    1    4    4    0    0 -0.83067183972E+02 -0.15418229638E+02 -0.12151916743E+03  0.14800265846E+03  0.00000000000E+00 0.  1.
         14    1    4    4    0    0 -0.15515788601E+02  0.35698619411E+02 -0.10534355708E+03  0.11230492484E+03  0.00000000000E+00 0. -1.
         -5    1    5    5    0  501  0.56838165555E+02  0.60377257074E+02 -0.19300989167E+03  0.21012115200E+03  0.47000000000E+01 0.  1.
         11    1    6    6    0    0  0.72674692713E+02  0.26926111712E+02 -0.52388932657E+03  0.52959102423E+03  0.00000000000E+00 0. -1.
        -12    1    6    6    0    0 -0.85521873199E+01 -0.17409058264E+02 -0.31172203847E+03  0.31232490212E+03  0.00000000000E+00 0.  1.
</event>
<event>
12    1  0.2614920E-002  0.2080123E+03  0.7818608E-02  0.1143150E+00
         -1   -1    0    0    0  501 -0.00000000000E+00  0.00000000000E+00  0.34381389538E+02  0.34381389538E+02  0.00000000000E+00 0. -1.
          1   -1    0    0  502    0  0.00000000000E+00 -0.00000000000E+00 -0.27072855083E+04  0.27072855083E+04  0.00000000000E+00 0.  1.
          6    2    1    2  502    0  0.43197612123E+02  0.10822602271E+03 -0.33321442809E+03  0.39273598709E+03  0.17213597760E+03 0.  0.
         24    2    3    3    0    0  0.88460415726E+02  0.11792380922E+03 -0.27639089588E+03  0.31929368140E+03  0.61848667917E+02 0.  0.
         -6    2    1    2    0  501 -0.43197612123E+02 -0.10822602271E+03 -0.23396896907E+04  0.23489309108E+04  0.17248092397E+03 0.  0.
        -24    2    5    5    0    0 -0.15793636839E+01 -0.30811681401E+01 -0.11956276059E+04  0.11992841551E+04  0.93515370928E+02 0.  0.
          5    1    3    3  502    0 -0.45262803604E+02 -0.96977865028E+01 -0.56823532203E+02  0.73442305690E+02  0.47000000000E+01 0. -1.
        -11    1    4    4    0    0  0.55182415818E+02  0.65568952489E+02 -0.21742482610E+03  0.23370481713E+03  0.00000000000E+00 0.  1.
         12    1    4    4    0    0  0.33277999909E+02  0.52354856727E+02 -0.58966069786E+02  0.85588864269E+02  0.00000000000E+00 0. -1.
         -5    1    5    5    0  501 -0.41618248439E+02 -0.10514485457E+03 -0.11440620848E+04  0.11496467557E+04  0.47000000000E+01 0.  1.
         11    1    6    6    0    0 -0.68919324700E+01 -0.47862165391E+02 -0.58720938515E+03  0.58919703633E+03  0.00000000000E+00 0. -1.
        -12    1    6    6    0    0  0.53125687861E+01  0.44780997251E+02 -0.60841822075E+03  0.61008711873E+03  0.00000000000E+00 0.  1.
</event>
<event>
12    1  0.2614920E-002  0.1806615E+03  0.7818608E-02  0.1167164E+00
         -2   -1    0    0    0  501 -0.00000000000E+00  0.00000000000E+00  0.24566918563E+03  0.24566918563E+03  0.00000000000E+00 0.  1.
          2   -1    0    0  502    0  0.00000000000E+00 -0.00000000000E+00 -0.14572027682E+03  0.14572027682E+03  0.00000000000E+00 0. -1.
          6    2    1    2  502    0 -0.66015646073E+01 -0.51500256678E+02 -0.79646342636E+01  0.18163142218E+03  0.17386972431E+03 0.  0.
         24    2    3    3    0    0 -0.13961260238E+02  0.27991708245E+02 -0.41771689732E+02  0.94808933119E+02  0.79154325328E+02 0.  0.
         -6    2    1    2    0  501  0.66015646073E+01  0.51500256678E+02  0.10791354308E+03  0.20975804027E+03  0.17221279158E+03 0.  0.
        -24    2    5    5    0    0 -0.25433458398E+02  0.31021879478E+02 -0.55974756809E+01  0.89956337397E+02  0.80321809563E+02 0.  0.
          5    1    3    3  502    0  0.73596956303E+01 -0.79491964923E+02  0.33807055468E+02  0.86822489060E+02  0.47000000000E+01 0. -1.
        -13    1    4    4    0    0  0.24877650656E+02  0.37549208586E+02 -0.20195418089E+02  0.49362895776E+02  0.00000000000E+00 0.  1.
         14    1    4    4    0    0 -0.38838910894E+02 -0.95575003407E+01 -0.21576271643E+02  0.45446037343E+02  0.00000000000E+00 0. -1.
         -5    1    5    5    0  501  0.32035023005E+02  0.20478377200E+02  0.11351101876E+03  0.11980170287E+03  0.47000000000E+01 0.  1.
         11    1    6    6    0    0 -0.54406667009E+02  0.15926592422E+02 -0.77428111365E+01  0.57216194259E+02  0.00000000000E+00 0. -1.
        -12    1    6    6    0    0  0.28973208611E+02  0.15095287056E+02  0.21453354556E+01  0.32740143139E+02  0.00000000000E+00 0.  1.
</event>
<event>
12    1  0.2614920E-002  0.2799327E+03  0.7818608E-02  0.1095726E+00
         -2   -1    0    0    0  501 -0.00000000000E+00  0.00000000000E+00  0.80166876862E+02  0.80166876862E+02  0.00000000000E+00 0.  1.
          2   -1    0    0  502    0  0.00000000000E+00 -0.00000000000E+00 -0.10581620854E+04  0.10581620854E+04  0.00000000000E+00 0. -1.
          6    2    1    2  502    0 -0.81135031345E+02 -0.20572124021E+03 -0.64616273693E+03  0.70419659650E+03  0.17164626980E+03 0.  0.
         24    2    3    3    0    0  0.18204522483E+02 -0.89906806252E+02 -0.33429925963E+03  0.35697584749E+03  0.85212218917E+02 0.  0.
         -6    2    1    2    0  501  0.81135031345E+02  0.20572124021E+03 -0.33183247162E+03  0.43413236578E+03  0.17162167640E+03 0.  0.
        -24    2    5    5    0    0  0.70546976400E+02  0.40852129092E+02 -0.12446981628E+03  0.16896205912E+03  0.80060414214E+02 0.  0.
          5    1    3    3  502    0 -0.99339553828E+02 -0.11581443396E+03 -0.31186347730E+03  0.34722074901E+03  0.47000000000E+01 0. -1.
        -13    1    4    4    0    0  0.67282844335E+01 -0.99805255222E+02 -0.32282185461E+03  0.33796495172E+03  0.00000000000E+00 0.  1.
         14    1    4    4    0    0  0.11476238049E+02  0.98984489700E+01 -0.11477405021E+02  0.19010895765E+02  0.00000000000E+00 0. -1.
         -5    1    5    5    0  501  0.10588054944E+02  0.16486911111E+03 -0.20736265534E+03  0.26517030666E+03  0.47000000000E+01 0.  1.
         11    1    6    6    0    0  0.64790073589E+02  0.45896657056E+02 -0.13459498793E+03  0.15626921495E+03  0.00000000000E+00 0. -1.
        -12    1    6    6    0    0  0.57569028114E+01 -0.50445279641E+01  0.10125171642E+02  0.12692844171E+02  0.00000000000E+00 0.  1.
</event>
<event>
12    1  0.2614920E-002  0.3811417E+03  0.7818608E-02  0.1050513E+00
          1   -1    0    0  502    0  0.00000000000E+00  0.00000000000E+00  0.51687622106E+03  0.51687622106E+03  0.00000000000E+00 0.  1.
         -1   -1    0    0    0  501 -0.00000000000E+00 -0.00000000000E+00 -0.33507514332E+03  0.33507514332E+03  0.00000000000E+00 0. -1.
          6    2    1    2  502    0  0.10104076463E+03  0.32457852607E+03 -0.80114375721E+02  0.38960538951E+03  0.17266612473E+03 0.  0.
         24    2    3    3    0    0  0.11968500836E+03  0.23538540972E+03 -0.10508733888E+03  0.29500751047E+03  0.79090391997E+02 0.  0.
         -6    2    1    2    0  501 -0.10104076463E+03 -0.32457852607E+03  0.26191545346E+03  0.46234597488E+03  0.17205708360E+03 0.  0.
        -24    2    5    5    0    0  0.87568426377E+01 -0.19231522788E+03  0.16180365698E+03  0.26336467825E+03  0.78222127124E+02 0.  0.
          5    1    3    3  502    0 -0.18644243726E+02  0.89193116350E+02  0.24972963162E+02  0.94597879033E+02  0.47000000000E+01 0. -1.
        -13    1    4    4    0    0  0.10270166046E+03  0.18951743917E+03 -0.49883875433E+02  0.22125300413E+03  0.00000000000E+00 0.  1.
         14    1    4    4    0    0  0.16983347905E+02  0.45867970551E+02 -0.55203463450E+02  0.73754506340E+02  0.00000000000E+00 0. -1.
         -5    1    5    5    0  501 -0.10979760727E+03 -0.13226329820E+03  0.10011179648E+03  0.19898129663E+03  0.47000000000E+01 0.  1.
         13    1    6    6    0    0  0.12724083148E+02 -0.15347299009E+03  0.81880022645E+02  0.17441387298E+03  0.00000000000E+00 0. -1.
        -14    1    6    6    0    0 -0.39672405101E+01 -0.38842237790E+02  0.79923634334E+02  0.88950805275E+02  0.00000000000E+00 0.  1.
</event>
<event>
12    1  0.2614920E-002  0.1797884E+03  0.7818608E-02  0.1168008E+00
         -2   -1    0    0    0  501 -0.00000000000E+00  0.00000000000E+00  0.11033080170E+02  0.11033080170E+02  0.00000000000E+00 0. -1.
          2   -1    0    0  502    0  0.00000000000E+00 -0.00000000000E+00 -0.30792637116E+04  0.30792637116E+04  0.00000000000E+00 0.  1.
          6    2    1    2  502    0  0.75156449472E+01  0.34298339941E+02 -0.12267189216E+04  0.12403981692E+04  0.18032039446E+03 0.  0.
         24    2    3    3    0    0 -0.27813185241E+02  0.24028016580E+02 -0.30113319215E+03  0.31406958914E+03  0.81287074966E+02 0.  0.
         -6    2    1    2    0  501 -0.75156449472E+01 -0.34298339941E+02 -0.18415117099E+04  0.18498986226E+04  0.17241425425E+03 0.  0.
        -24    2    5    5    0    0  0.18978298276E+02  0.44807981786E+02 -0.10845739456E+04  0.10883629319E+04  0.76585227046E+02 0.  0.
          5    1    3    3  502    0  0.35328830188E+02  0.10270323362E+02 -0.92558572943E+03  0.92632858010E+03  0.47000000000E+01 0. -1.
        -13    1    4    4    0    0  0.16056340416E+02 -0.17136316348E+02 -0.42746293828E+02  0.48771969835E+02  0.00000000000E+00 0.  1.
         14    1    4    4    0    0 -0.43869525657E+02  0.41164332927E+02 -0.25838689832E+03  0.26529761931E+03  0.00000000000E+00 0. -1.
         -5    1    5    5    0  501 -0.26493943224E+02 -0.79106321727E+02 -0.75693776425E+03  0.76153569063E+03  0.47000000000E+01 0.  1.
         11    1    6    6    0    0  0.30044020605E+02  0.32480708515E+02 -0.10377910028E+04  0.10387337508E+04  0.00000000000E+00 0. -1.
        -12    1    6    6    0    0 -0.11065722329E+02  0.12327273271E+02 -0.46782942847E+02  0.49629181118E+02  0.00000000000E+00 0.  1.
</event>
<event>
12    1  0.2614920E-002  0.3353520E+03  0.7818608E-02  0.1068793E+00
          2   -1    0    0  502    0  0.00000000000E+00  0.00000000000E+00  0.22152348545E+04  0.22152348545E+04  0.00000000000E+00 0.  1.
         -2   -1    0    0    0  501 -0.00000000000E+00 -0.00000000000E+00 -0.51072643227E+02  0.51072643227E+02  0.00000000000E+00 0. -1.
          6    2    1    2  502    0 -0.26286326392E+03  0.11823406751E+03  0.11702234396E+04  0.12173687315E+04  0.17171878063E+03 0.  0.
         24    2    3    3    0    0 -0.17191155561E+03  0.48224094408E+02  0.49549132867E+03  0.53292799551E+03  0.81372264151E+02 0.  0.
         -6    2    1    2    0  501  0.26286326392E+03 -0.11823406751E+03  0.99393877167E+03  0.10489387662E+04  0.17111944134E+03 0.  0.
        -24    2    5    5    0    0  0.14562775547E+03  0.31579927438E+01  0.51330306783E+03  0.53951461432E+03  0.79865909723E+02 0.  0.
          5    1    3    3  502    0 -0.90951708311E+02  0.70009973098E+02  0.67473211092E+03  0.68444073599E+03  0.47000000000E+01 0. -1.
        -11    1    4    4    0    0 -0.12659320629E+03  0.64255525642E+02  0.30431695265E+03  0.33580265056E+03  0.00000000000E+00 0.  1.
         12    1    4    4    0    0 -0.45318349320E+02 -0.16031431235E+02  0.19117437602E+03  0.19712534495E+03  0.00000000000E+00 0. -1.
         -5    1    5    5    0  501  0.11723550845E+03 -0.12139206025E+03  0.48063570384E+03  0.50942415190E+03  0.47000000000E+01 0.  1.
         13    1    6    6    0    0  0.15183132667E+03 -0.56761572809E+01  0.49885106138E+03  0.52147612789E+03  0.00000000000E+00 0. -1.
        -14    1    6    6    0    0 -0.62035711921E+01  0.88341500247E+01  0.14452006452E+02  0.18038486430E+02  0.00000000000E+00 0.  1.
</event>
<event>
12    1  0.2990786E-002  0.2281439E+03  0.7818608E-02  0.1127953E+00
          2   -1    0    0  502    0  0.00000000000E+00  0.00000000000E+00  0.13198785143E+04  0.13198785143E+04  0.00000000000E+00 0.  1.
         -2   -1    0    0    0  501 -0.00000000000E+00 -0.00000000000E+00 -0.45683808656E+02  0.45683808656E+02  0.00000000000E+00 0. -1.
          6    2    1    2  502    0 -0.14908486448E+03  0.12959131398E+02  0.38477418029E+03  0.44736760559E+03  0.17231473765E+03 0.  0.
         24    2    3    3    0    0 -0.89008249250E+02 -0.56845208338E+02  0.25685180738E+03  0.28967147681E+03  0.82358165201E+02 0.  0.
         -6    2    1    2    0  501  0.14908486448E+03 -0.12959131398E+02  0.88942052534E+03  0.91819471735E+03  0.17210006440E+03 0.  0.
        -24    2    5    5    0    0  0.14118036339E+03  0.86671547862E+01  0.87639471814E+03  0.89132579395E+03  0.79918423343E+02 0.  0.
          5    1    3    3  502    0 -0.60076615229E+02  0.69804339736E+02  0.12792237291E+03  0.15769612879E+03  0.47000000000E+01 0. -1.
        -13    1    4    4    0    0 -0.75618299423E+02 -0.27750185719E+02  0.24066140518E+03  0.25378359276E+03  0.00000000000E+00 0.  1.
         14    1    4    4    0    0 -0.13389949826E+02 -0.29095022619E+02  0.16190402206E+02  0.35887884044E+02  0.00000000000E+00 0. -1.
         -5    1    5    5    0  501  0.79045010850E+01 -0.21626286184E+02  0.13025807197E+02  0.26868923400E+02  0.47000000000E+01 0.  1.
         13    1    6    6    0    0  0.34444785690E+02  0.36218754772E+01  0.72360090765E+02  0.80221842279E+02  0.00000000000E+00 0. -1.
        -14    1    6    6    0    0  0.10673557770E+03  0.50452793091E+01  0.80403462738E+03  0.81110395167E+03  0.00000000000E+00 0.  1.
</event>
<event>
12    1  0.2614920E-002  0.2212689E+03  0.7818608E-02  0.1132941E+00
          2   -1    0    0  502    0  0.00000000000E+00  0.00000000000E+00  0.27010104371E+04  0.27010104371E+04  0.00000000000E+00 0.  1.
         -2   -1    0    0    0  501 -0.00000000000E+00 -0.00000000000E+00 -0.26279260648E+02  0.26279260648E+02  0.00000000000E+00 0. -1.
          6    2    1    2  502    0 -0.13006525754E+03 -0.55356472317E+02  0.57301605950E+03  0.61383670464E+03  0.16872102795E+03 0.  0.
         24    2    3    3    0    0 -0.13056952505E+03 -0.54849065516E+02  0.30406615780E+03  0.34484478772E+03  0.80030484410E+02 0.  0.
         -6    2    1    2    0  501  0.13006525754E+03  0.55356472317E+02  0.21017151170E+04  0.21134529931E+04  0.17174344532E+03 0.  0.
        -24    2    5    5    0    0  0.87184917947E+02 -0.28337990488E+02  0.13768703497E+04  0.13825183084E+04  0.84738785030E+02 0.  0.
          5    1    3    3  502    0  0.50426751060E+00 -0.50740680107E+00  0.26894990169E+03  0.26899191692E+03  0.47000000000E+01 0. -1.
        -13    1    4    4    0    0  0.29101564928E+01 -0.25277332526E+02  0.58315723992E+02  0.63624965345E+02  0.00000000000E+00 0.  1.
         14    1    4    4    0    0 -0.13347968154E+03 -0.29571732990E+02  0.24575043381E+03  0.28121982237E+03  0.00000000000E+00 0. -1.
         -5    1    5    5    0  501  0.42880339591E+02  0.83694462805E+02  0.72484476732E+03  0.73093468473E+03  0.47000000000E+01 0.  1.
         11    1    6    6    0    0 -0.12233469113E+02 -0.21820513978E+02  0.24687569425E+03  0.24813988194E+03  0.00000000000E+00 0. -1.
        -12    1    6    6    0    0  0.99418387059E+02 -0.65174765100E+01  0.11299946554E+04  0.11343784265E+04  0.00000000000E+00 0.  1.
</event>
<event>
12    1  0.2614920E-002  0.3177806E+03  0.7818608E-02  0.1076675E+00
          4   -1    0    0  502    0  0.00000000000E+00  0.00000000000E+00  0.16838960640E+04  0.16838960640E+04  0.00000000000E+00 0. -1.
         -4   -1    0    0    0  501 -0.00000000000E+00 -0.00000000000E+00 -0.12040874343E+03  0.12040874343E+03  0.00000000000E+00 0.  1.
          6    2    1    2  502    0 -0.42698927723E+01 -0.26544458607E+03  0.14094869867E+03  0.34640922483E+03  0.17220265716E+03 0.  0.
         24    2    3    3    0    0  0.39678929846E+02 -0.11499386507E+03  0.12342204674E+02  0.14360725552E+03  0.75317377440E+02 0.  0.
         -6    2    1    2    0  501  0.42698927723E+01  0.26544458607E+03  0.14225386219E+04  0.14578955826E+04  0.17709979871E+03 0.  0.
        -24    2    5    5    0    0 -0.42682310387E+00  0.48787470239E+02  0.59887629275E+03  0.60618900904E+03  0.80199134872E+02 0.  0.
          5    1    3    3  502    0 -0.43948822618E+02 -0.15045072100E+03  0.12860649399E+03  0.20280196931E+03  0.47000000000E+01 0. -1.
        -11    1    4    4    0    0  0.58129003603E+02 -0.82686464069E+02  0.25331663553E+02  0.10420041064E+03  0.00000000000E+00 0.  1.
         12    1    4    4    0    0 -0.18450073757E+02 -0.32307400997E+02 -0.12989458879E+02  0.39406844872E+02  0.00000000000E+00 0. -1.
         -5    1    5    5    0  501  0.46967158761E+01  0.21665711583E+03  0.82366232918E+03  0.85170657358E+03  0.47000000000E+01 0.  1.
         11    1    6    6    0    0 -0.86389903054E+01  0.64762516839E+02  0.55418452928E+03  0.55802267717E+03  0.00000000000E+00 0. -1.
        -12    1    6    6    0    0  0.82121672015E+01 -0.15975046601E+02  0.44691763470E+02  0.48166331873E+02  0.00000000000E+00 0.  1.
</event>
<event>
12    1  0.2614920E-002  0.1751584E+03  0.7818608E-02  0.1172573E+00
         -1   -1    0    0    0  501 -0.00000000000E+00  0.00000000000E+00  0.58254681860E+02  0.58254681860E+02  0.00000000000E+00 0.  1.
          1   -1    0    0  502    0  0.00000000000E+00 -0.00000000000E+00 -0.60229354702E+03  0.60229354702E+03  0.00000000000E+00 0. -1.
          6    2    1    2  502    0 -0.36902656606E+02 -0.19487349727E+02 -0.39200708443E+03  0.43027906767E+03  0.17242087741E+03 0.  0.
         24    2    3    3    0    0 -0.14395023025E+02  0.16102603235E+02 -0.37600047493E+03  0.38498514017E+03  0.79816605296E+02 0.  0.
         -6    2    1    2    0  501  0.36902656606E+02  0.19487349727E+02 -0.15203178073E+03  0.23026916121E+03  0.16783522094E+03 0.  0.
        -24    2    5    5    0    0  0.13851646632E+02  0.32064691844E+02 -0.17441501365E+03  0.19544621315E+03  0.80985262047E+02 0.  0.
          5    1    3    3  502    0 -0.22507633581E+02 -0.35589952962E+02 -0.16006609504E+02  0.45293927507E+02  0.47000000000E+01 0. -1.
        -11    1    4    4    0    0  0.13894293212E+02  0.48958551034E+00 -0.89927933040E+01  0.16557820184E+02  0.00000000000E+00 0.  1.
         12    1    4    4    0    0 -0.28289316237E+02  0.15613017724E+02 -0.36700768163E+03  0.36842731998E+03  0.00000000000E+00 0. -1.
         -5    1    5    5    0  501  0.23051009974E+02 -0.12577342117E+02  0.22383232925E+02  0.34822948062E+02  0.47000000000E+01 0.  1.
         11    1    6    6    0    0 -0.21825146138E+02  0.44143385391E+02 -0.11497493675E+03  0.12507682263E+03  0.00000000000E+00 0. -1.
        -12    1    6    6    0    0  0.35676792770E+02 -0.12078693547E+02 -0.59440076904E+02  0.70369390522E+02  0.00000000000E+00 0.  1.
</event>
<event>
12    1  0.2614920E-002  0.1741615E+03  0.7818608E-02  0.1173576E+00
          1   -1    0    0  502    0  0.00000000000E+00  0.00000000000E+00  0.32190577869E+03  0.32190577869E+03  0.00000000000E+00 0.  1.
         -1   -1    0    0    0  501 -0.00000000000E+00 -0.00000000000E+00 -0.96665821215E+02  0.96665821215E+02  0.00000000000E+00 0. -1.
          6    2    1    2  502    0 -0.74061948830E+01 -0.23493414709E+02  0.14539978092E+03  0.22632941669E+03  0.17168901046E+03 0.  0.
         24    2    3    3    0    0  0.61802458223E+02  0.11395790037E+00  0.81955434658E+02  0.12940459645E+03  0.78799108395E+02 0.  0.
         -6    2    1    2    0  501  0.74061948830E+01  0.23493414709E+02  0.79840176555E+02  0.19224218321E+03  0.17313523892E+03 0.  0.
        -24    2    5    5    0    0  0.20052184804E+02 -0.38190004242E+02 -0.43443967839E+01  0.87009594993E+02  0.75440236599E+02 0.  0.
          5    1    3    3  502    0 -0.69208653106E+02 -0.23607372610E+02  0.63444346259E+02  0.96924820240E+02  0.47000000000E+01 0. -1.
        -13    1    4    4    0    0 -0.52285510939E+01  0.25804468873E+02  0.11205576788E+02  0.28614215200E+02  0.00000000000E+00 0.  1.
         14    1    4    4    0    0  0.67031009317E+02 -0.25690510973E+02  0.70749857870E+02  0.10079038125E+03  0.00000000000E+00 0. -1.
         -5    1    5    5    0  501 -0.12645989921E+02  0.61683418951E+02  0.84184573339E+02  0.10523258822E+03  0.47000000000E+01 0.  1.
         13    1    6    6    0    0  0.38614143800E+02 -0.51275879752E+02 -0.33754025719E+01  0.64278000033E+02  0.00000000000E+00 0. -1.
        -14    1    6    6    0    0 -0.18561958996E+02  0.13085875510E+02 -0.96899421207E+00  0.22731594960E+02  0.00000000000E+00 0.  1.
</event>
<event>
12    1  0.2614920E-002  0.2239248E+03  0.7818608E-02  0.1130990E+00
         -1   -1    0    0    0  501 -0.00000000000E+00  0.00000000000E+00  0.14803146900E+03  0.14803146900E+03  0.00000000000E+00 0.  1.
          1   -1    0    0  502    0  0.00000000000E+00 -0.00000000000E+00 -0.35037461613E+03  0.35037461613E+03  0.00000000000E+00 0. -1.
          6    2    1    2  502    0 -0.13425882059E+03 -0.40255129509E+02 -0.54543113085E+02  0.22756519986E+03  0.17077781661E+03 0.  0.
         24    2    3    3    0    0  0.21595300746E+01 -0.13397881801E+02 -0.13415310014E+01  0.78623008092E+02  0.77431330152E+02 0.  0.
         -6    2    1    2    0  501  0.13425882059E+03  0.40255129509E+02 -0.14780003405E+03  0.27084088527E+03  0.17850498231E+03 0.  0.
        -24    2    5    5    0    0  0.73576991404E+02  0.26990582140E+02 -0.16984078200E+03  0.20476428441E+03  0.83309397742E+02 0.  0.
          5    1    3    3  502    0 -0.13641835067E+03 -0.26857247708E+02 -0.53201582083E+02  0.14894219177E+03  0.47000000000E+01 0. -1.
        -11    1    4    4    0    0 -0.21107739640E+02 -0.36931285154E+02 -0.11392298547E+02  0.44036813713E+02  0.00000000000E+00 0.  1.
         12    1    4    4    0    0  0.23267269715E+02  0.23533403353E+02  0.10050767545E+02  0.34586194379E+02  0.00000000000E+00 0. -1.
         -5    1    5    5    0  501  0.60681829190E+02  0.13264547370E+02  0.22040747951E+02  0.66076600858E+02  0.47000000000E+01 0.  1.
         11    1    6    6    0    0  0.70194417956E+02  0.32474462861E+02 -0.68789187391E+02  0.10350748452E+03  0.00000000000E+00 0. -1.
        -12    1    6    6    0    0  0.33825734475E+01 -0.54838807213E+01 -0.10105159461E+03  0.10125679989E+03  0.00000000000E+00 0.  1.
</event>
<event>
12    1  0.2614920E-002  0.1747895E+03  0.7818608E-02  0.1172943E+00
         -2   -1    0    0    0  501 -0.00000000000E+00  0.00000000000E+00  0.26578672683E+02  0.26578672683E+02  0.00000000000E+00 0. -1.
          2   -1    0    0  502    0  0.00000000000E+00 -0.00000000000E+00 -0.13164444663E+04  0.13164444663E+04  0.00000000000E+00 0.  1.
          6    2    1    2  502    0  0.34581588491E+02  0.11980144712E+02 -0.40613762506E+03  0.44219688359E+03  0.17102895438E+03 0.  0.
         24    2    3    3    0    0  0.56161094174E+01 -0.86689815769E+01 -0.39647422121E+03  0.40503700242E+03  0.82197769587E+02 0.  0.
         -6    2    1    2    0  501 -0.34581588491E+02 -0.11980144712E+02 -0.88372816859E+03  0.90082625542E+03  0.17080121890E+03 0.  0.
        -24    2    5    5    0    0 -0.41914325948E+02 -0.45806807079E+02 -0.83316838303E+03  0.83937388329E+03  0.80770583567E+02 0.  0.
          5    1    3    3  502    0  0.28965479074E+02  0.20649126288E+02 -0.96634038588E+01  0.37159881170E+02  0.47000000000E+01 0. -1.
        -11    1    4    4    0    0 -0.65125051551E+01 -0.39765745237E+02 -0.12066584300E+03  0.12721624458E+03  0.00000000000E+00 0.  1.
         12    1    4    4    0    0  0.12128614573E+02  0.31096763660E+02 -0.27580837820E+03  0.27782075784E+03  0.00000000000E+00 0. -1.
         -5    1    5    5    0  501  0.73327374565E+01  0.33826662368E+02 -0.50559785557E+02  0.61452372136E+02  0.47000000000E+01 0.  1.
         11    1    6    6    0    0 -0.96945900559E+01  0.18518002808E+02 -0.76861288249E+02  0.79652740918E+02  0.00000000000E+00 0. -1.
        -12    1    6    6    0    0 -0.32219735892E+02 -0.64324809887E+02 -0.75630709478E+03  0.75972114237E+03  0.00000000000E+00 0.  1.
</event>
<event>
12    1  0.2614920E-002  0.1735908E+03  0.7818608E-02  0.1174154E+00
          1   -1    0    0  502    0  0.00000000000E+00  0.00000000000E+00  0.18032245901E+04  0.18032245901E+04  0.00000000000E+00 0.  1.
         -1   -1    0    0    0  501 -0.00000000000E+00 -0.00000000000E+00 -0.40803531093E+02  0.40803531093E+02  0.00000000000E+00 0. -1.
          6    2    1    2  502    0  0.21812562991E+02 -0.12008048864E+02  0.16954655586E+03  0.24155376774E+03  0.17024161349E+03 0.  0.
         24    2    3    3    0    0 -0.21534842004E+02 -0.30837377219E+02  0.18043991944E+03  0.19282701435E+03  0.56648033319E+02 0.  0.
         -6    2    1    2    0  501 -0.21812562991E+02  0.12008048864E+02  0.15928745031E+04  0.16024743534E+04  0.17336346087E+03 0.  0.
        -24    2    5    5    0    0  0.31162945435E+02  0.57782018608E+02  0.81234993650E+03  0.81880200487E+03  0.78831548274E+02 0.  0.
          5    1    3    3  502    0  0.43347404995E+02  0.18829328355E+02 -0.10893363582E+02  0.48726753393E+02  0.47000000000E+01 0. -1.
        -11    1    4    4    0    0 -0.28218347087E+02 -0.85579352289E+01  0.36041657042E+02  0.46567310530E+02  0.00000000000E+00 0.  1.
         12    1    4    4    0    0  0.66835050829E+01 -0.22279441990E+02  0.14439826240E+03  0.14625970382E+03  0.00000000000E+00 0. -1.
         -5    1    5    5    0  501 -0.52975508425E+02 -0.45773969744E+02  0.78052456662E+03  0.78367234856E+03  0.47000000000E+01 0.  1.
         13    1    6    6    0    0  0.47495273701E+02  0.26234501460E+02  0.27636036901E+03  0.28163647429E+03  0.00000000000E+00 0. -1.
        -14    1    6    6    0    0 -0.16332328266E+02  0.31547517148E+02  0.53598956749E+03  0.53716553058E+03  0.00000000000E+00 0.  1.
</event>
<event>
12    1  0.2614920E-002  0.2232184E+03  0.7818608E-02  0.1131506E+00
          2   -1    0    0  502    0  0.00000000000E+00  0.00000000000E+00  0.11952659929E+04  0.11952659929E+04  0.00000000000E+00 0. -1.
         -2   -1    0    0    0  501 -0.00000000000E+00 -0.00000000000E+00 -0.42929837692E+02  0.42929837692E+02  0.00000000000E+00 0.  1.
          6    2    1    2  502    0  0.37765041015E+02 -0.14564262331E+03  0.69420011185E+03  0.73092743888E+03  0.17234602856E+03 0.  0.
         24    2    3    3    0    0 -0.56698684036E+01 -0.43187898035E+02  0.14768085336E+03  0.17317395212E+03  0.79260591088E+02 0.  0.
         -6    2    1    2    0  501 -0.37765041015E+02  0.14564262331E+03  0.45813604333E+03  0.50726839169E+03  0.15746305903E+03 0.  0.
        -24    2    5    5    0    0 -0.36221914721E+02  0.16985309236E+03  0.38530434847E+03  0.43035887455E+03  0.81161689645E+02 0.  0.
          5    1    3    3  502    0  0.43434909419E+02 -0.10245472528E+03  0.54651925848E+03  0.55775348675E+03  0.47000000000E+01 0. -1.
        -13    1    4    4    0    0  0.26212799483E+02 -0.45978880179E+02  0.60926538371E+02  0.80704469251E+02  0.00000000000E+00 0.  1.
         14    1    4    4    0    0 -0.31882667887E+02  0.27909821433E+01  0.86754314994E+02  0.92469482874E+02  0.00000000000E+00 0. -1.
         -5    1    5    5    0  501 -0.15431262940E+01 -0.24210469043E+02  0.72831694858E+02  0.76909517135E+02  0.47000000000E+01 0.  1.
         13    1    6    6    0    0 -0.46674985303E+01  0.14184052628E+03  0.34009872831E+03  0.36852091588E+03  0.00000000000E+00 0. -1.
        -14    1    6    6    0    0 -0.31554416191E+02  0.28012566079E+02  0.45205620158E+02  0.61837958677E+02  0.00000000000E+00 0.  1.
</event>
<event>
12    1  0.2614920E-002  0.2864100E+03  0.7818608E-02  0.1092239E+00
         -1   -1    0    0    0  501 -0.00000000000E+00  0.00000000000E+00  0.27825868184E+03  0.27825868184E+03  0.00000000000E+00 0. -1.
          1   -1    0    0  502    0  0.00000000000E+00 -0.00000000000E+00 -0.29779624103E+03  0.29779624103E+03  0.00000000000E+00 0.  1.
          6    2    1    2  502    0 -0.16198448298E+03  0.16192366294E+03  0.19113420501E+02  0.28727066498E+03  0.17233939413E+03 0.  0.
         24    2    3    3    0    0 -0.85069981164E+02  0.17550222827E+02 -0.25569750738E+01  0.12219120882E+03  0.85902510882E+02 0.  0.
         -6    2    1    2    0  501  0.16198448298E+03 -0.16192366294E+03 -0.38650979696E+02  0.28878425789E+03  0.17159313514E+03 0.  0.
        -24    2    5    5    0    0  0.17007944988E+03 -0.17144207781E+03 -0.70741536388E+01  0.25450139549E+03  0.80009445304E+02 0.  0.
          5    1    3    3  502    0 -0.76914501812E+02  0.14437344012E+03  0.21670395574E+02  0.16507945616E+03  0.47000000000E+01 0. -1.
        -13    1    4    4    0    0 -0.16798253828E+02  0.13782036329E+00 -0.39292059532E+02  0.42732496632E+02  0.00000000000E+00 0.  1.
         14    1    4    4    0    0 -0.68271727336E+02  0.17412402463E+02  0.36735084459E+02  0.79458712192E+02  0.00000000000E+00 0. -1.
         -5    1    5    5    0  501 -0.80949669036E+01  0.95184148692E+01 -0.31576826058E+02  0.34282862405E+02  0.47000000000E+01 0.  1.
         11    1    6    6    0    0  0.78315761163E+02 -0.34727716591E+02  0.19113784406E+02  0.87776474641E+02  0.00000000000E+00 0. -1.
        -12    1    6    6    0    0  0.91763688717E+02 -0.13671436122E+03 -0.26187938045E+02  0.16672492084E+03  0.00000000000E+00 0.  1.
</event>
<event>
12    1  0.2614920E-002  0.1731234E+03  0.7818608E-02  0.1174629E+00
         -1   -1    0    0    0  501 -0.00000000000E+00  0.00000000000E+00  0.71352112538E+03  0.71352112538E+03  0.00000000000E+00 0.  1.
          1   -1    0    0  502    0  0.00000000000E+00 -0.00000000000E+00 -0.45394658203E+02  0.45394658203E+02  0.00000000000E+00 0. -1.
          6    2    1    2  502    0  0.22699419683E+02 -0.50278131815E+01  0.23167514884E+03  0.28964695677E+03  0.17228302997E+03 0.  0.
         24    2    3    3    0    0  0.76107496393E+02  0.15760697736E+01  0.19622406249E+03  0.22503346397E+03  0.79632544888E+02 0.  0.
         -6    2    1    2    0  501 -0.22699419683E+02  0.50278131815E+01  0.43645131834E+03  0.46926882681E+03  0.17083013780E+03 0.  0.
        -24    2    5    5    0    0 -0.32865804286E+02 -0.46003382856E+02  0.31107105917E+03  0.33343864705E+03  0.10592287368E+03 0.  0.
          5    1    3    3  502    0 -0.53408076710E+02 -0.66038829551E+01  0.35451086354E+02  0.64613492799E+02  0.47000000000E+01 0. -1.
        -13    1    4    4    0    0  0.65391793693E+02  0.11008934475E+02  0.19963109955E+03  0.21035650508E+03  0.00000000000E+00 0.  1.
         14    1    4    4    0    0  0.10715702700E+02 -0.94328647011E+01 -0.34070370643E+01  0.14676958894E+02  0.00000000000E+00 0. -1.
         -5    1    5    5    0  501  0.10166384603E+02  0.51031196038E+02  0.12538025917E+03  0.13583017976E+03  0.47000000000E+01 0.  1.
         13    1    6    6    0    0 -0.37419304152E+02  0.27296759498E+02  0.13211796517E+03  0.14000169328E+03  0.00000000000E+00 0. -1.
        -14    1    6    6    0    0  0.45534998660E+01 -0.73300142354E+02  0.17895309400E+03  0.19343695377E+03  0.00000000000E+00 0.  1.
</event>
<event>
12    1  0.2614920E-002  0.2089107E+03  0.7818608E-02  0.1142432E+00
         -2   -1    0    0    0  501 -0.00000000000E+00  0.00000000000E+00  0.12377225236E+03  0.12377225236E+03  0.00000000000E+00 0.  1.
          2   -1    0    0  502    0  0.00000000000E+00 -0.00000000000E+00 -0.35304904944E+03  0.35304904944E+03  0.00000000000E+00 0. -1.
          6    2    1    2  502    0  0.11008237154E+03  0.49598320067E+02 -0.10653094094E+03  0.23492209751E+03  0.17105972244E+03 0.  0.
         24    2    3    3    0    0 -0.65126222929E+01  0.23638401736E+02 -0.15844616534E+02  0.84874073923E+02  0.79695472051E+02 0.  0.
         -6    2    1    2    0  501 -0.11008237154E+03 -0.49598320067E+02 -0.12274585614E+03  0.24189920430E+03  0.16991338370E+03 0.  0.
        -24    2    5    5    0    0 -0.10387694347E+03  0.27902418259E+02 -0.94564214300E+02  0.15906704439E+03  0.69216830708E+02 0.  0.
          5    1    3    3  502    0  0.11659499384E+03  0.25959918331E+02 -0.90686324409E+02  0.15004802359E+03  0.47000000000E+01 0. -1.
        -13    1    4    4    0    0 -0.96093634071E+01 -0.13539342819E+02  0.24710205998E+02  0.29769916854E+02  0.00000000000E+00 0.  1.
         14    1    4    4    0    0  0.30967411142E+01  0.37177744555E+02 -0.40554822532E+02  0.55104157069E+02  0.00000000000E+00 0. -1.
         -5    1    5    5    0  501 -0.62054280692E+01 -0.77500738327E+02 -0.28181641837E+02  0.82832159910E+02  0.47000000000E+01 0.  1.
         11    1    6    6    0    0 -0.10398023164E+03  0.37566856872E+02 -0.65651738422E+02  0.12858191188E+03  0.00000000000E+00 0. -1.
        -12    1    6    6    0    0  0.10328816229E+00 -0.96644386125E+01 -0.28912475879E+02  0.30485132501E+02  0.00000000000E+00 0.  1.
</event>
<event>
12    1  0.2614920E-002  0.1775783E+03  0.7818608E-02  0.1170168E+00
          2   -1    0    0  502    0  0.00000000000E+00  0.00000000000E+00  0.15874012990E+04  0.15874012990E+04  0.00000000000E+00 0. -1.
         -2   -1    0    0    0  501 -0.00000000000E+00 -0.00000000000E+00 -0.20578790256E+02  0.20578790256E+02  0.00000000000E+00 0.  1.
          6    2    1    2  502    0  0.44971241496E+02 -0.70085394925E+01  0.63589824056E+03  0.66036600228E+03  0.17217767693E+03 0.  0.
         24    2    3    3    0    0 -0.16617318896E+02  0.43369676049E+02  0.26003513637E+03  0.27614434950E+03  0.80500717553E+02 0.  0.
         -6    2    1    2    0  501 -0.44971241496E+02  0.70085394925E+01  0.93092426815E+03  0.94761408694E+03  0.17111672202E+03 0.  0.
        -24    2    5    5    0    0 -0.25189879074E+02  0.32248235173E+02  0.89408418976E+03  0.89854652216E+03  0.79528834008E+02 0.  0.
          5    1    3    3  502    0  0.61588560393E+02 -0.50378215542E+02  0.37586310419E+03  0.38422165278E+03  0.47000000000E+01 0. -1.
        -13    1    4    4    0    0  0.17523026699E+02  0.53017344970E+02  0.13294288462E+03  0.14419329355E+03  0.00000000000E+00 0.  1.
         14    1    4    4    0    0 -0.34140345596E+02 -0.96476689204E+01  0.12709225175E+03  0.13195105596E+03  0.00000000000E+00 0. -1.
         -5    1    5    5    0  501 -0.19781362422E+02 -0.25239695681E+02  0.36840078390E+02  0.49067564777E+02  0.47000000000E+01 0.  1.
         11    1    6    6    0    0 -0.44904180849E+02  0.10841248830E+02  0.28097296461E+03  0.28474501747E+03  0.00000000000E+00 0. -1.
        -12    1    6    6    0    0  0.19714301775E+02  0.21406986343E+02  0.61311122515E+03  0.61380150469E+03  0.00000000000E+00 0.  1.
</event>
<event>
12    1  0.2614920E-002  0.2125825E+03  0.7818608E-02  0.1139537E+00
          2   -1    0    0  502    0  0.00000000000E+00  0.00000000000E+00  0.39275763799E+03  0.39275763799E+03  0.00000000000E+00 0.  1.
         -2   -1    0    0    0  501 -0.00000000000E+00 -0.00000000000E+00 -0.11537201318E+03  0.11537201318E+03  0.00000000000E+00 0. -1.
          6    2    1    2  502    0  0.16288446563E+02  0.12604915778E+03  0.15319453755E+03  0.26416415663E+03  0.17366758951E+03 0.  0.
         24    2    3    3    0    0  0.66271859341E+02  0.86756176979E+02  0.14828615327E+03  0.20022307336E+03  0.78625074066E+02 0.  0.
         -6    2    1    2    0  501 -0.16288446563E+02 -0.12604915778E+03  0.12419108726E+03  0.24396549454E+03  0.16715870513E+03 0.  0.
        -24    2    5    5    0    0  0.16861675329E+01  0.15249116962E+01  0.40678365750E+02  0.90359848125E+02  0.80653606221E+02 0.  0.
          5    1    3    3  502    0 -0.49983412779E+02  0.39292980804E+02  0.49083842849E+01  0.63941083270E+02  0.47000000000E+01 0. -1.
        -13    1    4    4    0    0  0.11761210557E+01  0.46722034148E+02  0.19864666384E+02  0.50783232531E+02  0.00000000000E+00 0.  1.
         14    1    4    4    0    0  0.65095738286E+02  0.40034142831E+02  0.12842148688E+03  0.14943984083E+03  0.00000000000E+00 0. -1.
         -5    1    5    5    0  501 -0.17974614096E+02 -0.12757406948E+03  0.83512721509E+02  0.15360564641E+03  0.47000000000E+01 0.  1.
         13    1    6    6    0    0 -0.17268513939E+02  0.78528786953E+01 -0.19346941817E+02  0.27095634982E+02  0.00000000000E+00 0. -1.
        -14    1    6    6    0    0  0.18954681471E+02 -0.63279669991E+01  0.60025307567E+02  0.63264213142E+02  0.00000000000E+00 0.  1.
</event>
<event>
12    1  0.2614920E-002  0.1823422E+03  0.7818608E-02  0.1165555E+00
         -2   -1    0    0    0  501 -0.00000000000E+00  0.00000000000E+00  0.13508899681E+02  0.13508899681E+02  0.00000000000E+00 0. -1.
          2   -1    0    0  502    0  0.00000000000E+00 -0.00000000000E+00 -0.26550412054E+04  0.26550412054E+04  0.00000000000E+00 0.  1.
          6    2    1    2  502    0  0.62824009571E+02 -0.32954321357E-01 -0.95373578822E+03  0.97082597565E+03  0.17013013840E+03 0.  0.
         24    2    3    3    0    0  0.85016738294E+02 -0.49666176064E+02 -0.68695552910E+03  0.69852142084E+03  0.79559421712E+02 0.  0.
         -6    2    1    2    0  501 -0.62824009571E+02  0.32954321357E-01 -0.16877965175E+04  0.16977241294E+04  0.17223030490E+03 0.  0.
        -24    2    5    5    0    0 -0.89239628159E+02 -0.48572329324E+02 -0.11828792995E+04  0.11897637516E+04  0.77532991883E+02 0.  0.
          5    1    3    3  502    0 -0.22192728723E+02  0.49633221743E+02 -0.26678025912E+03  0.27230455480E+03  0.47000000000E+01 0. -1.
        -11    1    4    4    0    0 -0.85235402346E+01 -0.29415706976E+02 -0.14826960180E+03  0.15139950255E+03  0.00000000000E+00 0.  1.
         12    1    4    4    0    0  0.93540278529E+02 -0.20250469088E+02 -0.53868592730E+03  0.54712191829E+03  0.00000000000E+00 0. -1.
         -5    1    5    5    0  501  0.26415618588E+02  0.48605283645E+02 -0.50491721794E+03  0.50796037786E+03  0.47000000000E+01 0.  1.
         11    1    6    6    0    0 -0.56082379009E+02 -0.52080645950E+02 -0.10492475228E+04  0.10520351663E+04  0.00000000000E+00 0. -1.
        -12    1    6    6    0    0 -0.33157249150E+02  0.35083166255E+01 -0.13363177670E+03  0.13772858527E+03  0.00000000000E+00 0.  1.
</event>
<event>
12    1  0.2614920E-002  0.2508882E+03  0.7818608E-02  0.1112745E+00
         -1   -1    0    0    0  501 -0.00000000000E+00  0.00000000000E+00  0.62473339472E+02  0.62473339472E+02  0.00000000000E+00 0. -1.
          1   -1    0    0  502    0  0.00000000000E+00 -0.00000000000E+00 -0.10370810452E+04  0.10370810452E+04  0.00000000000E+00 0.  1.
          6    2    1    2  502    0  0.17914833278E+03 -0.37695649794E+02 -0.57973418690E+03  0.63162102480E+03  0.17128427938E+03 0.  0.
         24    2    3    3    0    0  0.20224186666E+03 -0.44504584192E+02 -0.55530515400E+03  0.59700108051E+03  0.71861292965E+02 0.  0.
         -6    2    1    2    0  501 -0.17914833278E+03  0.37695649794E+02 -0.39487351882E+03  0.46793335986E+03  0.17181806148E+03 0.  0.
        -24    2    5    5    0    0 -0.16926250271E+03  0.22892032365E+02 -0.40534563429E+03  0.44675242674E+03  0.78158861278E+02 0.  0.
          5    1    3    3  502    0 -0.23093533877E+02  0.68089343974E+01 -0.24429032901E+02  0.34619944296E+02  0.47000000000E+01 0. -1.
        -13    1    4    4    0    0  0.14099282529E+03 -0.63638071538E+02 -0.37705289984E+03  0.40755081917E+03  0.00000000000E+00 0.  1.
         14    1    4    4    0    0  0.61249041372E+02  0.19133487346E+02 -0.17825225416E+03  0.18945026134E+03  0.00000000000E+00 0. -1.
         -5    1    5    5    0  501 -0.98858300764E+01  0.14803617429E+02  0.10472115468E+02  0.21180933116E+02  0.47000000000E+01 0.  1.
         11    1    6    6    0    0 -0.30178371623E+02 -0.17869728275E+02 -0.14084331990E+03  0.14514441795E+03  0.00000000000E+00 0. -1.
        -12    1    6    6    0    0 -0.13908413108E+03  0.40761760640E+02 -0.26450231439E+03  0.30160800879E+03  0.00000000000E+00 0.  1.
</event>
<event>
12    1  0.2614920E-002  0.1771902E+03  0.7818608E-02  0.1170550E+00
         -2   -1    0    0    0  501 -0.00000000000E+00  0.00000000000E+00  0.63692106677E+02  0.63692106677E+02  0.00000000000E+00 0.  1.
          2   -1    0    0  502    0  0.00000000000E+00 -0.00000000000E+00 -0.50538589466E+03  0.50538589466E+03  0.00000000000E+00 0. -1.
          6    2    1    2  502    0  0.33740821934E+02  0.19684687487E+02 -0.26528738245E+03  0.31892326339E+03  0.17265202767E+03 0.  0.
         24    2    3    3    0    0 -0.19099476609E+02 -0.29342983600E+02 -0.21027436168E+03  0.22812495869E+03  0.81239700299E+02 0.  0.
         -6    2    1    2    0  501 -0.33740821934E+02 -0.19684687487E+02 -0.17640640553E+03  0.25015473795E+03  0.17300937263E+03 0.  0.
        -24    2    5    5    0    0 -0.27204014467E+01 -0.78578302159E+01 -0.68087557901E+01  0.77274450351E+02  0.76523430673E+02 0.  0.
          5    1    3    3  502    0  0.52840298543E+02  0.49027671087E+02 -0.55013020769E+02  0.90798304700E+02  0.47000000000E+01 0. -1.
        -13    1    4    4    0    0  0.13660383908E+02 -0.36262985733E+02 -0.44518941561E+02  0.59021575551E+02  0.00000000000E+00 0.  1.
         14    1    4    4    0    0 -0.32759860517E+02  0.69200021337E+01 -0.16575542012E+03  0.16910338314E+03  0.00000000000E+00 0. -1.
         -5    1    5    5    0  501 -0.31020420488E+02 -0.11826857271E+02 -0.16959764974E+03  0.17288028760E+03  0.47000000000E+01 0.  1.
         11    1    6    6    0    0 -0.17243041230E+01 -0.26300565044E+02 -0.34851553236E+02  0.43695808830E+02  0.00000000000E+00 0. -1.
        -12    1    6    6    0    0 -0.99609732375E+00  0.18442734828E+02  0.28042797446E+02  0.33578641521E+02  0.00000000000E+00 0.  1.
</event>
<event>
12    1  0.2614920E-002  0.7500558E+03  0.7818608E-02  0.9635263E-01
         -2   -1    0    0    0  501 -0.00000000000E+00  0.00000000000E+00  0.89660660838E+03  0.89660660838E+03  0.00000000000E+00 0.  1.
          2   -1    0    0  502    0  0.00000000000E+00 -0.00000000000E+00 -0.64440995528E+03  0.64440995528E+03  0.00000000000E+00 0. -1.
          6    2    1    2  502    0 -0.15593645970E+03  0.71313998458E+03  0.25109281116E+03  0.79112849408E+03  0.17306610661E+03 0.  0.
         24    2    3    3    0    0 -0.57092409229E+02  0.40786125846E+03  0.74910186207E+02  0.42503061882E+03  0.73682708902E+02 0.  0.
         -6    2    1    2    0  501  0.15593645970E+03 -0.71313998458E+03  0.11038419349E+01  0.74988806959E+03  0.17159860538E+03 0.  0.
        -24    2    5    5    0    0  0.11408464839E+03 -0.60964805929E+03  0.51238625680E+02  0.62742281226E+03  0.79673868928E+02 0.  0.
          5    1    3    3  502    0 -0.98844050468E+02  0.30527872612E+03  0.17618262496E+03  0.36609787526E+03  0.47000000000E+01 0. -1.
        -11    1    4    4    0    0 -0.51922209093E+02  0.40373898580E+03  0.82101793405E+02  0.41526110934E+03  0.00000000000E+00 0.  1.
         12    1    4    4    0    0 -0.51702001365E+01  0.41222726613E+01 -0.71916071972E+01  0.97695094772E+01  0.00000000000E+00 0. -1.
         -5    1    5    5    0  501  0.41851811311E+02 -0.10349192529E+03 -0.50134783745E+02  0.12246525733E+03  0.47000000000E+01 0.  1.
         11    1    6    6    0    0  0.11025296612E+03 -0.49002341999E+03  0.15490996420E+02  0.50251232785E+03  0.00000000000E+00 0. -1.
        -12    1    6    6    0    0  0.38316822689E+01 -0.11962463930E+03  0.35747629260E+02  0.12491048440E+03  0.00000000000E+00 0.  1.
</event>
<event>
12    1  0.2614920E-002  0.1920995E+03  0.7818608E-02  0.1156581E+00
         -2   -1    0    0    0  501 -0.00000000000E+00  0.00000000000E+00  0.22759585205E+03  0.22759585205E+03  0.00000000000E+00 0.  1.
          2   -1    0    0  502    0  0.00000000000E+00 -0.00000000000E+00 -0.24767794981E+03  0.24767794981E+03  0.00000000000E+00 0. -1.
          6    2    1    2  502    0 -0.13503944374E+02 -0.79555301643E+02 -0.14964647733E+03  0.24256686533E+03  0.17301217715E+03 0.  0.
         24    2    3    3    0    0  0.50632052713E+02 -0.77405501807E+01 -0.82621127118E+02  0.12515616640E+03  0.78830796413E+02 0.  0.
         -6    2    1    2    0  501  0.13503944374E+02  0.79555301643E+02  0.12956437957E+03  0.23270693653E+03  0.17565360037E+03 0.  0.
        -24    2    5    5    0    0 -0.24341611966E+02  0.10836428599E+03  0.12431865967E+03  0.18462522181E+03  0.79347405959E+02 0.  0.
          5    1    3    3  502    0 -0.64135997087E+02 -0.71814751462E+02 -0.67025350216E+02  0.11741069892E+03  0.47000000000E+01 0. -1.
        -13    1    4    4    0    0  0.29511885032E+02 -0.34303176993E+02 -0.12016479853E+02  0.46819388057E+02  0.00000000000E+00 0.  1.
         14    1    4    4    0    0  0.21120167681E+02  0.26562626812E+02 -0.70604647266E+02  0.78336778346E+02  0.00000000000E+00 0. -1.
         -5    1    5    5    0  501  0.37845556339E+02 -0.28808984348E+02  0.52457198989E+01  0.48081714727E+02  0.47000000000E+01 0.  1.
         13    1    6    6    0    0 -0.51088148282E+02  0.91528486573E+02  0.98004602332E+02  0.14350040010E+03  0.00000000000E+00 0. -1.
        -14    1    6    6    0    0  0.26746536316E+02  0.16835799417E+02  0.26314057343E+02  0.41124821711E+02  0.00000000000E+00 0.  1.
</event>
<event>
12    1  0.2614920E-002  0.2590427E+03  0.7818608E-02  0.1107720E+00
          2   -1    0    0  502    0  0.00000000000E+00  0.00000000000E+00  0.33670002399E+04  0.33670002399E+04  0.00000000000E+00 0.  1.
         -2   -1    0    0    0  501 -0.00000000000E+00 -0.00000000000E+00 -0.75933031377E+02  0.75933031377E+02  0.00000000000E+00 0. -1.
          6    2    1    2  502    0 -0.18037803213E+03 -0.69362651294E+02  0.31242101789E+04  0.31349449922E+04  0.17275256938E+03 0.  0.
         24    2    3    3    0    0 -0.18446730920E+03 -0.15807772488E+02  0.24467101745E+04  0.24553030326E+04  0.88567658858E+02 0.  0.
         -6    2    1    2    0  501  0.18037803213E+03  0.69362651294E+02  0.16685702966E+03  0.30798827912E+03  0.17224430285E+03 0.  0.
        -24    2    5    5    0    0  0.18759931717E+03  0.89762317670E+02  0.10631505407E+03  0.24352345031E+03  0.68920263014E+02 0.  0.
          5    1    3    3  502    0  0.40892770767E+01 -0.53554878806E+02  0.67750000439E+03  0.67964195955E+03  0.47000000000E+01 0. -1.
        -13    1    4    4    0    0 -0.90539130244E+02  0.36582211616E+02  0.11414317935E+04  0.11456012096E+04  0.00000000000E+00 0.  1.
         14    1    4    4    0    0 -0.93928178959E+02 -0.52389984105E+02  0.13052783810E+04  0.13097018230E+04  0.00000000000E+00 0. -1.
         -5    1    5    5    0  501 -0.72212850433E+01 -0.20399666376E+02  0.60541975585E+02  0.64464828811E+02  0.47000000000E+01 0.  1.
         13    1    6    6    0    0  0.11571279437E+03  0.73911731304E+02  0.36509087946E+02  0.14207500944E+03  0.00000000000E+00 0. -1.
        -14    1    6    6    0    0  0.71886522799E+02  0.15850586366E+02  0.69805966126E+02  0.10144844087E+03  0.00000000000E+00 0.  1.
</event>
<event>
12    1  0.2614920E-002  0.1832503E+03  0.7818608E-02  0.1164694E+00
         -2   -1    0    0    0  501 -0.00000000000E+00  0.00000000000E+00  0.54582317101E+02  0.54582317101E+02  0.00000000000E+00 0. -1.
          2   -1    0    0  502    0  0.00000000000E+00 -0.00000000000E+00 -0.14967606026E+04  0.14967606026E+04  0.00000000000E+00 0.  1.
          6    2    1    2  502    0 -0.66290506151E+02 -0.28033852867E+00 -0.13171809797E+04  0.13299367346E+04  0.17138108145E+03 0.  0.
         24    2    3    3    0    0 -0.46479904426E+02 -0.36781486590E+02 -0.12200327430E+04  0.12241791645E+04  0.81372437007E+02 0.  0.
         -6    2    1    2    0  501  0.66290506151E+02  0.28033852867E+00 -0.12499730579E+03  0.22140618505E+03  0.17029933214E+03 0.  0.
        -24    2    5    5    0    0  0.18306545723E+02  0.42062104711E+02 -0.12759376336E+03  0.15755473217E+03  0.80243223449E+02 0.  0.
          5    1    3    3  502    0 -0.19810601724E+02  0.36501148062E+02 -0.97148236635E+02  0.10575757009E+03  0.47000000000E+01 0. -1.
        -13    1    4    4    0    0 -0.31308517035E+02 -0.34755277595E+02 -0.26993437332E+03  0.27395751214E+03  0.00000000000E+00 0.  1.
         14    1    4    4    0    0 -0.15171387391E+02 -0.20262089949E+01 -0.95009836972E+03  0.95022165239E+03  0.00000000000E+00 0. -1.
         -5    1    5    5    0  501  0.47983960428E+02 -0.41781766183E+02  0.25964575692E+01  0.63851452886E+02  0.47000000000E+01 0.  1.
         11    1    6    6    0    0  0.29065183712E+02  0.28120278643E+02 -0.14292427795E+02  0.42892988558E+02  0.00000000000E+00 0. -1.
        -12    1    6    6    0    0 -0.10758637989E+02  0.13941826068E+02 -0.11330133557E+03  0.11466174361E+03  0.00000000000E+00 0.  1.
</event>
<event>
12    1  0.2614920E-002  0.2707726E+03  0.7818608E-02  0.1100838E+00
          2   -1    0    0  502    0  0.00000000000E+00  0.00000000000E+00  0.31960644269E+03  0.31960644269E+03  0.00000000000E+00 0. -1.
         -2   -1    0    0    0  501 -0.00000000000E+00 -0.00000000000E+00 -0.31518093148E+03  0.31518093148E+03  0.00000000000E+00 0.  1.
          6    2    1    2  502    0 -0.64206197199E+02  0.19923708967E+03 -0.16336747356E+03  0.31645464751E+03  0.17215330045E+03 0.  0.
         24    2    3    3    0    0 -0.19922267477E+02  0.50132152885E+02 -0.12295326150E+03  0.15567919186E+03  0.78793253318E+02 0.  0.
         -6    2    1    2    0  501  0.64206197199E+02 -0.19923708967E+03  0.16779298477E+03  0.31833272666E+03  0.17135747859E+03 0.  0.
        -24    2    5    5    0    0  0.22785420405E+00 -0.18697043722E+03  0.10310655083E+03  0.22640817134E+03  0.75310709166E+02 0.  0.
          5    1    3    3  502    0 -0.44283929722E+02  0.14910493678E+03 -0.40414212061E+02  0.16077545566E+03  0.47000000000E+01 0. -1.
        -11    1    4    4    0    0  0.22621000873E+02  0.39975829949E+02 -0.36050913433E+02  0.58390453158E+02  0.00000000000E+00 0.  1.
         12    1    4    4    0    0 -0.42543268350E+02  0.10156322936E+02 -0.86902348069E+02  0.97288738698E+02  0.00000000000E+00 0. -1.
         -5    1    5    5    0  501  0.63978342995E+02 -0.12266652451E+02  0.64686433945E+02  0.91924555322E+02  0.47000000000E+01 0.  1.
         13    1    6    6    0    0  0.29129333734E+02 -0.12892362685E+03  0.90929995253E+02  0.16043093119E+03  0.00000000000E+00 0. -1.
        -14    1    6    6    0    0 -0.28901479530E+02 -0.58046810367E+02  0.12176555573E+02  0.65977240154E+02  0.00000000000E+00 0.  1.
</event>
<event>
12    1  0.2614920E-002  0.1713666E+03  0.7818608E-02  0.1176430E+00
         -1   -1    0    0    0  501 -0.00000000000E+00  0.00000000000E+00  0.92114116933E+02  0.92114116933E+02  0.00000000000E+00 0.  1.
          1   -1    0    0  502    0  0.00000000000E+00 -0.00000000000E+00 -0.51040684510E+03  0.51040684510E+03  0.00000000000E+00 0. -1.
          6    2    1    2  502    0 -0.22514839285E+01  0.91582128198E+01 -0.25087338294E+02  0.17386550448E+03  0.17178736002E+03 0.  0.
         24    2    3    3    0    0 -0.65273639352E+02 -0.16269857922E+02 -0.26875410697E+02  0.10572105453E+03  0.77001931147E+02 0.  0.
         -6    2    1    2    0  501  0.22514839285E+01 -0.91582128198E+01 -0.39320538988E+03  0.42865545756E+03  0.17042910732E+03 0.  0.
        -24    2    5    5    0    0 -0.55323007705E+02 -0.35179004282E+02 -0.18871737178E+03  0.21457756701E+03  0.78301266455E+02 0.  0.
          5    1    3    3  502    0  0.63022155424E+02  0.25428070742E+02  0.17880724029E+01  0.68144449949E+02  0.47000000000E+01 0. -1.
        -13    1    4    4    0    0 -0.73039022697E+02  0.16992620384E+01 -0.73363025697E+00  0.73062470129E+02  0.00000000000E+00 0.  1.
         14    1    4    4    0    0  0.77653833451E+01 -0.17969119961E+02 -0.26141780440E+02  0.32658584403E+02  0.00000000000E+00 0. -1.
         -5    1    5    5    0  501  0.57574491633E+02  0.26020791462E+02 -0.20448801810E+03  0.21407789055E+03  0.47000000000E+01 0.  1.
         13    1    6    6    0    0 -0.19358693935E+02  0.25171302702E+02 -0.63552525747E+02  0.71044190751E+02  0.00000000000E+00 0. -1.
        -14    1    6    6    0    0 -0.35964313770E+02 -0.60350306984E+02 -0.12516484603E+03  0.14353337626E+03  0.00000000000E+00 0.  1.
</event>
<event>
12    1  0.2614920E-002  0.3151451E+03  0.7818608E-02  0.1077906E+00
          2   -1    0    0  502    0  0.00000000000E+00  0.00000000000E+00  0.35235475465E+03  0.35235475465E+03  0.00000000000E+00 0. -1.
         -2   -1    0    0    0  501 -0.00000000000E+00 -0.00000000000E+00 -0.28882323816E+03  0.28882323816E+03  0.00000000000E+00 0.  1.
          6    2    1    2  502    0 -0.22833870280E+03  0.13194020894E+03 -0.17999353635E+02  0.31561225007E+03  0.17245385971E+03 0.  0.
         24    2    3    3    0    0 -0.15956679707E+03  0.96265833971E+02 -0.78186509241E+02  0.21739402494E+03  0.80114657429E+02 0.  0.
         -6    2    1    2    0  501  0.22833870280E+03 -0.13194020894E+03  0.81530870133E+02  0.32556574274E+03  0.17262383419E+03 0.  0.
        -24    2    5    5    0    0  0.59117401642E+02 -0.43477217815E+01  0.49278377683E+02  0.11114091952E+03  0.80063572380E+02 0.  0.
          5    1    3    3  502    0 -0.68771905739E+02  0.35674374966E+02  0.60187155606E+02  0.98218225133E+02  0.47000000000E+01 0. -1.
        -11    1    4    4    0    0  0.60443895088E+01 -0.45258545673E+01 -0.85226264119E+01  0.11386534374E+02  0.00000000000E+00 0.  1.
         12    1    4    4    0    0 -0.16561118657E+03  0.10079168854E+03 -0.69663882829E+02  0.20600749056E+03  0.00000000000E+00 0. -1.
         -5    1    5    5    0  501  0.16922130116E+03 -0.12759248716E+03  0.32252492450E+02  0.21442482322E+03  0.47000000000E+01 0.  1.
         13    1    6    6    0    0  0.19377495068E+02 -0.15538899525E+02  0.62931851944E+02  0.67656209638E+02  0.00000000000E+00 0. -1.
        -14    1    6    6    0    0  0.39739906574E+02  0.11191177743E+02 -0.13653474261E+02  0.43484709878E+02  0.00000000000E+00 0.  1.
</event>
<event>
12    1  0.2614920E-002  0.2012195E+03  0.7818608E-02  0.1148714E+00
         -1   -1    0    0    0  501 -0.00000000000E+00  0.00000000000E+00  0.62458695704E+02  0.62458695704E+02  0.00000000000E+00 0. -1.
          1   -1    0    0  502    0  0.00000000000E+00 -0.00000000000E+00 -0.73266748128E+03  0.73266748128E+03  0.00000000000E+00 0.  1.
          6    2    1    2  502    0 -0.97259982918E+02  0.33594549921E+02 -0.20030620664E+03  0.28399189102E+03  0.17303386861E+03 0.  0.
         24    2    3    3    0    0 -0.47120434023E+01  0.64736369203E+02 -0.12637751852E+03  0.16142568465E+03  0.76641852970E+02 0.  0.
         -6    2    1    2    0  501  0.97259982918E+02 -0.33594549921E+02 -0.46990257893E+03  0.51113428596E+03  0.17280545864E+03 0.  0.
        -24    2    5    5    0    0  0.64510054776E+01 -0.54954586302E+02 -0.15541280175E+03  0.18306656202E+03  0.79363752155E+02 0.  0.
          5    1    3    3  502    0 -0.92547939515E+02 -0.31141819282E+02 -0.73928688121E+02  0.12256620637E+03  0.47000000000E+01 0. -1.
        -13    1    4    4    0    0 -0.26399332445E+02  0.51395187280E+02 -0.12279943546E+03  0.13571326898E+03  0.00000000000E+00 0.  1.
         14    1    4    4    0    0  0.21687289042E+02  0.13341181923E+02 -0.35780830637E+01  0.25712415669E+02  0.00000000000E+00 0. -1.
         -5    1    5    5    0  501  0.90808977440E+02  0.21360036381E+02 -0.31448977718E+03  0.32806772394E+03  0.47000000000E+01 0.  1.
         11    1    6    6    0    0  0.55161457118E+01 -0.65937949041E+02 -0.15838403658E+03  0.17165006272E+03  0.00000000000E+00 0. -1.
        -12    1    6    6    0    0  0.93485976583E+00  0.10983362739E+02  0.29712348365E+01  0.11416499301E+02  0.00000000000E+00 0.  1.
</event>
<event>
12    1  0.2614920E-002  0.1946355E+03  0.7818608E-02  0.1154346E+00
         -1   -1    0    0    0  501 -0.00000000000E+00  0.00000000000E+00  0.27690184006E+03  0.27690184006E+03  0.00000000000E+00 0. -1.
          1   -1    0    0  502    0  0.00000000000E+00 -0.00000000000E+00 -0.14236667383E+03  0.14236667383E+03  0.00000000000E+00 0.  1.
          6    2    1    2  502    0 -0.64421225257E+02  0.66324199264E+02  0.10869960770E+03  0.22297622030E+03  0.17132949669E+03 0.  0.
         24    2    3    3    0    0 -0.46123848347E+02  0.11072918766E+03  0.90018137145E+02  0.17122987417E+03  0.82631969634E+02 0.  0.
         -6    2    1    2    0  501  0.64421225257E+02 -0.66324199264E+02  0.25835558531E+02  0.19629229359E+03  0.17121388603E+03 0.  0.
        -24    2    5    5    0    0  0.31761568912E+02  0.26689907935E+02  0.33966951959E+02  0.97264586110E+02  0.81151077876E+02 0.  0.
          5    1    3    3  502    0 -0.18297376910E+02 -0.44404988398E+02  0.18681470555E+02  0.51746346137E+02  0.47000000000E+01 0. -1.
        -13    1    4    4    0    0  0.96595176113E+01  0.16845731131E+02 -0.11126586010E+02  0.22380479308E+02  0.00000000000E+00 0.  1.
         14    1    4    4    0    0 -0.55783365959E+02  0.93883456530E+02  0.10114472315E+03  0.14884939486E+03  0.00000000000E+00 0. -1.
         -5    1    5    5    0  501  0.32659656345E+02 -0.93014107199E+02 -0.81313934280E+01  0.99027707485E+02  0.47000000000E+01 0.  1.
         13    1    6    6    0    0 -0.15776290905E+02  0.12012799692E+02  0.42395545292E+02  0.46803642719E+02  0.00000000000E+00 0. -1.
        -14    1    6    6    0    0  0.47537859817E+02  0.14677108243E+02 -0.84285933327E+01  0.50460943391E+02  0.00000000000E+00 0.  1.
</event>
<event>
12    1  0.2614920E-002  0.1998906E+03  0.7818608E-02  0.1149831E+00
         -1   -1    0    0    0  501 -0.00000000000E+00  0.00000000000E+00  0.48180311603E+02  0.48180311603E+02  0.00000000000E+00 0. -1.
          1   -1    0    0  502    0  0.00000000000E+00 -0.00000000000E+00 -0.90353971523E+03  0.90353971523E+03  0.00000000000E+00 0.  1.
          6    2    1    2  502    0 -0.10143642222E+03 -0.60875643144E+01 -0.56517212054E+03  0.59966718216E+03  0.17278540831E+03 0.  0.
         24    2    3    3    0    0 -0.56548593501E+02  0.51194587617E+02 -0.44853742943E+03  0.46211027296E+03  0.80879228158E+02 0.  0.
         -6    2    1    2    0  501  0.10143642222E+03  0.60875643144E+01 -0.29018728308E+03  0.35205284467E+03  0.17148218563E+03 0.  0.
        -24    2    5    5    0    0  0.59329997659E+01  0.23301712531E+02 -0.20736649147E+03  0.22438685812E+03  0.82282622828E+02 0.  0.
          5    1    3    3  502    0 -0.44887828720E+02 -0.57282151931E+02 -0.11663469112E+03  0.13755690920E+03  0.47000000000E+01 0. -1.
        -13    1    4    4    0    0 -0.62161880667E+02  0.48396354865E+02 -0.22336750271E+03  0.23685300893E+03  0.00000000000E+00 0.  1.
         14    1    4    4    0    0  0.56132871654E+01  0.27982327516E+01 -0.22516992672E+03  0.22525726403E+03  0.00000000000E+00 0. -1.
         -5    1    5    5    0  501  0.95503422455E+02 -0.17214148217E+02 -0.82820791611E+02  0.12766598655E+03  0.47000000000E+01 0.  1.
         11    1    6    6    0    0 -0.13140749332E+02 -0.11198201246E+02 -0.46601625599E+01  0.17882844272E+02  0.00000000000E+00 0. -1.
        -12    1    6    6    0    0  0.19073749098E+02  0.34499913777E+02 -0.20270632891E+03  0.20650401385E+03  0.00000000000E+00 0.  1.
</event>
<event>
12    1  0.2614920E-002  0.1976186E+03  0.7818608E-02  0.1151764E+00
          2   -1    0    0  502    0  0.00000000000E+00  0.00000000000E+00  0.11133938695E+04  0.11133938695E+04  0.00000000000E+00 0. -1.
         -2   -1    0    0    0  501 -0.00000000000E+00 -0.00000000000E+00 -0.37042502150E+02  0.37042502150E+02  0.00000000000E+00 0.  1.
          6    2    1    2  502    0  0.12369243910E+01 -0.97036750951E+02  0.66937550723E+03  0.69779126373E+03  0.17155587148E+03 0.  0.
         24    2    3    3    0    0  0.11096800905E+02 -0.87651412437E+02  0.67243671628E+03  0.68306839904E+03  0.81273558259E+02 0.  0.
         -6    2    1    2    0  501 -0.12369243910E+01  0.97036750951E+02  0.40697586017E+03  0.45264510797E+03  0.17274426761E+03 0.  0.
        -24    2    5    5    0    0  0.64017937449E+01  0.13048959799E+03  0.26166670496E+03  0.30326544544E+03  0.80199424988E+02 0.  0.
          5    1    3    3  502    0 -0.98598765140E+01 -0.93853385136E+01 -0.30612090475E+01  0.14722864691E+02  0.47000000000E+01 0. -1.
        -13    1    4    4    0    0  0.39854348216E+02 -0.26296933017E+02  0.19056430620E+03  0.19645521768E+03  0.00000000000E+00 0.  1.
         14    1    4    4    0    0 -0.28757547311E+02 -0.61354479420E+02  0.48187241008E+03  0.48661318135E+03  0.00000000000E+00 0. -1.
         -5    1    5    5    0  501 -0.76387181358E+01 -0.33452847036E+02  0.14530915521E+03  0.14937966253E+03  0.47000000000E+01 0.  1.
         13    1    6    6    0    0 -0.32683612475E+00  0.38528625471E+02  0.16593452369E+03  0.17034913547E+03  0.00000000000E+00 0. -1.
        -14    1    6    6    0    0  0.67286298696E+01  0.91960972517E+02  0.95732181266E+02  0.13291630997E+03  0.00000000000E+00 0.  1.
</event>
<event>
12    1  0.2614920E-002  0.2664203E+03  0.7818608E-02  0.1103346E+00
         -2   -1    0    0    0  501 -0.00000000000E+00  0.00000000000E+00  0.17389611780E+03  0.17389611780E+03  0.00000000000E+00 0. -1.
          2   -1    0    0  502    0  0.00000000000E+00 -0.00000000000E+00 -0.93281030620E+03  0.93281030620E+03  0.00000000000E+00 0.  1.
          6    2    1    2  502    0  0.57385747220E+02  0.19443942368E+03 -0.79453141820E+03  0.83805377922E+03  0.17307266944E+03 0.  0.
         24    2    3    3    0    0 -0.72320927996E+01  0.29895726612E+02 -0.34427618634E+03  0.35431629122E+03  0.77896624465E+02 0.  0.
         -6    2    1    2    0  501 -0.57385747220E+02 -0.19443942368E+03  0.35617229791E+02  0.26865264478E+03  0.17264368806E+03 0.  0.
        -24    2    5    5    0    0 -0.20927367053E+02 -0.26296955314E+02  0.41694826621E+02  0.96431477861E+02  0.80194057167E+02 0.  0.
          5    1    3    3  502    0  0.64617840020E+02  0.16454369707E+03 -0.45025523185E+03  0.48373748801E+03  0.47000000000E+01 0. -1.
        -13    1    4    4    0    0  0.17950097311E+02 -0.32422482037E+01 -0.25676219452E+03  0.25740929024E+03  0.00000000000E+00 0.  1.
         14    1    4    4    0    0 -0.25182190111E+02  0.33137974816E+02 -0.87513991821E+02  0.96907000976E+02  0.00000000000E+00 0. -1.
         -5    1    5    5    0  501 -0.36458380167E+02 -0.16814246836E+03 -0.60775968305E+01  0.17222116692E+03  0.47000000000E+01 0.  1.
         13    1    6    6    0    0  0.53510719618E+01 -0.49801868455E+02  0.15248061549E+02  0.52358031416E+02  0.00000000000E+00 0. -1.
        -14    1    6    6    0    0 -0.26278439015E+02  0.23504913140E+02  0.26446765072E+02  0.44073446446E+02  0.00000000000E+00 0.  1.
</event>
<event>
12    1  0.2614920E-002  0.1745269E+03  0.7818608E-02  0.1173208E+00
         -2   -1    0    0    0  501 -0.00000000000E+00  0.00000000000E+00  0.57010878508E+02  0.57010878508E+02  0.00000000000E+00 0.  1.
          2   -1    0    0  502    0  0.00000000000E+00 -0.00000000000E+00 -0.56814553759E+03  0.56814553759E+03  0.00000000000E+00 0. -1.
          6    2    1    2  502    0 -0.85028659057E+01  0.32443010493E+02 -0.33353745232E+03  0.37701037373E+03  0.17252461314E+03 0.  0.
         24    2    3    3    0    0  0.48517441596E+02  0.41569914427E+02 -0.27981172046E+03  0.29799670335E+03  0.80158819690E+02 0.  0.
         -6    2    1    2    0  501  0.85028659057E+01 -0.32443010493E+02 -0.17759720676E+03  0.24814604237E+03  0.17003188770E+03 0.  0.
        -24    2    5    5    0    0 -0.52217555883E+02 -0.35309972525E+02 -0.71761052369E+02  0.12600444147E+03  0.82182743514E+02 0.  0.
          5    1    3    3  502    0 -0.57020307501E+02 -0.91269039347E+01 -0.53725731858E+02  0.79013670378E+02  0.47000000000E+01 0. -1.
        -13    1    4    4    0    0  0.37156991768E+02  0.26887625101E+02 -0.51624558393E+02  0.69055640248E+02  0.00000000000E+00 0.  1.
         14    1    4    4    0    0  0.11360449827E+02  0.14682289326E+02 -0.22818716207E+03  0.22894106310E+03  0.00000000000E+00 0. -1.
         -5    1    5    5    0  501  0.60720421789E+02  0.28669620324E+01 -0.10583615439E+03  0.12214160090E+03  0.47000000000E+01 0.  1.
         11    1    6    6    0    0 -0.37249093993E+02 -0.30517284388E+02 -0.89911677516E+02  0.10199465380E+03  0.00000000000E+00 0. -1.
        -12    1    6    6    0    0 -0.14968461890E+02 -0.47926881374E+01  0.18150625147E+02  0.24009787674E+02  0.00000000000E+00 0.  1.
</event>
<event>
12    1  0.2614920E-002  0.2080509E+03  0.7818608E-02  0.1143119E+00
         -1   -1    0    0    0  501 -0.00000000000E+00  0.00000000000E+00  0.11740784612E+03  0.11740784612E+03  0.00000000000E+00 0.  1.
          1   -1    0    0  502    0  0.00000000000E+00 -0.00000000000E+00 -0.50843152389E+03  0.50843152389E+03  0.00000000000E+00 0. -1.
          6    2    1    2  502    0 -0.86463438050E+02  0.77984343597E+02 -0.30167400223E+02  0.20833732783E+03  0.17010845413E+03 0.  0.
         24    2    3    3    0    0 -0.55863046711E+02  0.59149812162E+02  0.46673022307E+02  0.12338049138E+03  0.80156062630E+02 0.  0.
         -6    2    1    2    0  501  0.86463438050E+02 -0.77984343597E+02 -0.36085627755E+03  0.41750204219E+03  0.17473756957E+03 0.  0.
        -24    2    5    5    0    0 -0.20398254376E+02 -0.87567905390E+01 -0.15666988224E+03  0.17682373108E+03  0.78920274384E+02 0.  0.
          5    1    3    3  502    0 -0.30600391338E+02  0.18834531435E+02 -0.76840422530E+02  0.84956836447E+02  0.47000000000E+01 0. -1.
        -11    1    4    4    0    0 -0.15477318357E+02 -0.16602571395E+02  0.27067453652E+02  0.35324776116E+02  0.00000000000E+00 0.  1.
         12    1    4    4    0    0 -0.40385728355E+02  0.75752383556E+02  0.19605568655E+02  0.88055715269E+02  0.00000000000E+00 0. -1.
         -5    1    5    5    0  501  0.10686169243E+03 -0.69227553058E+02 -0.20418639530E+03  0.24067831111E+03  0.47000000000E+01 0.  1.
         11    1    6    6    0    0 -0.74363329591E+01 -0.20418313743E+02 -0.15785892482E+03  0.15934756581E+03  0.00000000000E+00 0. -1.
        -12    1    6    6    0    0 -0.12961921416E+02  0.11661523204E+02  0.11890425794E+01  0.17476165269E+02  0.00000000000E+00 0.  1.
</event>
<event>
12    1  0.2614920E-002  0.3031743E+03  0.7818608E-02  0.1083664E+00
          2   -1    0    0  502    0  0.00000000000E+00  0.00000000000E+00  0.17367695029E+04  0.17367695029E+04  0.00000000000E+00 0. -1.
         -2   -1    0    0    0  501 -0.00000000000E+00 -0.00000000000E+00 -0.59319847673E+02  0.59319847673E+02  0.00000000000E+00 0.  1.
          6    2    1    2  502    0 -0.19759708114E+03  0.15076644155E+03  0.54148131385E+03  0.62011431394E+03  0.17194366150E+03 0.  0.
         24    2    3    3    0    0 -0.18220988639E+03  0.57556897946E+02  0.34056873412E+03  0.39804959482E+03  0.77092010498E+02 0.  0.
         -6    2    1    2    0  501  0.19759708114E+03 -0.15076644155E+03  0.11359683414E+04  0.11759750367E+04  0.17526576336E+03 0.  0.
        -24    2    5    5    0    0  0.16064201822E+03 -0.18107344888E+03  0.99483289433E+03  0.10268928587E+04  0.78886016988E+02 0.  0.
          5    1    3    3  502    0 -0.15387194757E+02  0.93209543599E+02  0.20091257973E+03  0.22206471912E+03  0.47000000000E+01 0. -1.
        -13    1    4    4    0    0 -0.55406120064E+02 -0.13102803914E+02  0.63707589652E+02  0.85441082567E+02  0.00000000000E+00 0.  1.
         14    1    4    4    0    0 -0.12680376632E+03  0.70659701861E+02  0.27686114446E+03  0.31260851226E+03  0.00000000000E+00 0. -1.
         -5    1    5    5    0  501  0.36955062923E+02  0.30307007329E+02  0.14113544707E+03  0.14908217797E+03  0.47000000000E+01 0.  1.
         11    1    6    6    0    0  0.11802403994E+03 -0.17125665082E+03  0.87345188584E+03  0.89787343837E+03  0.00000000000E+00 0. -1.
        -12    1    6    6    0    0  0.42617978279E+02 -0.98167980511E+01  0.12138100849E+03  0.12901942032E+03  0.00000000000E+00 0.  1.
</event>
<event>
12    1  0.2614920E-002  0.1749673E+03  0.7818608E-02  0.1172765E+00
         -2   -1    0    0    0  501 -0.00000000000E+00  0.00000000000E+00  0.23152308928E+02  0.23152308928E+02  0.00000000000E+00 0. -1.
          2   -1    0    0  502    0  0.00000000000E+00 -0.00000000000E+00 -0.21722590165E+04  0.21722590165E+04  0.00000000000E+00 0.  1.
          6    2    1    2  502    0  0.27697524603E+02  0.16588374935E+02 -0.38759316295E+03  0.42522141312E+03  0.17187921096E+03 0.  0.
         24    2    3    3    0    0  0.23065932873E+01 -0.53307136153E+02 -0.16475660530E+03  0.19025694073E+03  0.78778127464E+02 0.  0.
         -6    2    1    2    0  501 -0.27697524603E+02 -0.16588374935E+02 -0.17615135446E+04  0.17701899123E+04  0.17204659453E+03 0.  0.
        -24    2    5    5    0    0 -0.32378602690E+02 -0.34472402984E+02 -0.50663422499E+03  0.51516563055E+03  0.80502599279E+02 0.  0.
          5    1    3    3  502    0  0.25390931316E+02  0.69895511088E+02 -0.22283655764E+03  0.23496447239E+03  0.47000000000E+01 0. -1.
        -13    1    4    4    0    0 -0.14474172739E+02  0.16449196281E+02 -0.54191450644E+02  0.58453323752E+02  0.00000000000E+00 0.  1.
         14    1    4    4    0    0  0.16780766027E+02 -0.69756332434E+02 -0.11056515466E+03  0.13180361698E+03  0.00000000000E+00 0. -1.
         -5    1    5    5    0  501  0.46810780870E+01  0.17884028050E+02 -0.12548793196E+04  0.12550242817E+04  0.47000000000E+01 0.  1.
         13    1    6    6    0    0  0.19207252642E+02 -0.42970694537E+01 -0.38571081594E+02  0.43302559916E+02  0.00000000000E+00 0. -1.
        -14    1    6    6    0    0 -0.51585855332E+02 -0.30175333531E+02 -0.46806314339E+03  0.47186307063E+03  0.00000000000E+00 0.  1.
</event>
<event>
12    1  0.2614920E-002  0.2184035E+03  0.7818608E-02  0.1135079E+00
          3   -1    0    0  502    0  0.00000000000E+00  0.00000000000E+00  0.11794894974E+03  0.11794894974E+03  0.00000000000E+00 0.  1.
         -3   -1    0    0    0  501 -0.00000000000E+00 -0.00000000000E+00 -0.56739590163E+03  0.56739590163E+03  0.00000000000E+00 0. -1.
          6    2    1    2  502    0  0.12571732993E+03  0.58610294467E+02 -0.42831100924E+02  0.22489175938E+03  0.17176084119E+03 0.  0.
         24    2    3    3    0    0  0.14120089856E+03  0.29330466334E+02 -0.72328359444E+02  0.18029100273E+03  0.80470392541E+02 0.  0.
         -6    2    1    2    0  501 -0.12571732993E+03 -0.58610294467E+02 -0.40661585097E+03  0.46045309199E+03  0.16565200271E+03 0.  0.
        -24    2    5    5    0    0 -0.15114179045E+03 -0.46651172297E+02 -0.38755328676E+03  0.42617634841E+03  0.80053464478E+02 0.  0.
          5    1    3    3  502    0 -0.15483568632E+02  0.29279828133E+02  0.29497258520E+02  0.44600756645E+02  0.47000000000E+01 0. -1.
        -13    1    4    4    0    0  0.42651739997E+02  0.33224938853E+02 -0.60212526172E+02  0.80923518179E+02  0.00000000000E+00 0.  1.
         14    1    4    4    0    0  0.98549158566E+02 -0.38944725192E+01 -0.12115833272E+02  0.99367484551E+02  0.00000000000E+00 0. -1.
         -5    1    5    5    0  501  0.25424460520E+02 -0.11959122170E+02 -0.19062564210E+02  0.34276743575E+02  0.47000000000E+01 0.  1.
         13    1    6    6    0    0 -0.16028973281E+02 -0.11122730544E+02 -0.14467240189E+03  0.14598200912E+03  0.00000000000E+00 0. -1.
        -14    1    6    6    0    0 -0.13511281717E+03 -0.35528441753E+02 -0.24288088486E+03  0.28019433929E+03  0.00000000000E+00 0.  1.
</event>
<event>
12    1  0.2614920E-002  0.1787514E+03  0.7818608E-02  0.1169017E+00
          2   -1    0    0  502    0  0.00000000000E+00  0.00000000000E+00  0.13844084493E+04  0.13844084493E+04  0.00000000000E+00 0. -1.
         -2   -1    0    0    0  501 -0.00000000000E+00 -0.00000000000E+00 -0.24364670971E+02  0.24364670971E+02  0.00000000000E+00 0.  1.
          6    2    1    2  502    0  0.10202569353E+02  0.40070126430E+02  0.85012069566E+03  0.86920913052E+03  0.17637915958E+03 0.  0.
         24    2    3    3    0    0  0.63044081797E+02 -0.10813935585E+02  0.59268857961E+03  0.60148763795E+03  0.80100741344E+02 0.  0.
         -6    2    1    2    0  501 -0.10202569353E+02 -0.40070126430E+02  0.50992308266E+03  0.53956398974E+03  0.17145857035E+03 0.  0.
        -24    2    5    5    0    0  0.40772999871E+02 -0.68693361672E+02  0.27465580276E+03  0.29709629861E+03  0.80306819142E+02 0.  0.
          5    1    3    3  502    0 -0.52841512444E+02  0.50884062015E+02  0.25743211606E+03  0.26772149257E+03  0.47000000000E+01 0. -1.
        -11    1    4    4    0    0  0.19522500895E+02  0.33531177524E+02  0.17882452300E+03  0.18298545826E+03  0.00000000000E+00 0.  1.
         12    1    4    4    0    0  0.43521580902E+02 -0.44345113109E+02  0.41386405660E+03  0.41850217969E+03  0.00000000000E+00 0. -1.
         -5    1    5    5    0  501 -0.50975569224E+02  0.28623235241E+02  0.23526727989E+03  0.24246769113E+03  0.47000000000E+01 0.  1.
         11    1    6    6    0    0 -0.62579157180E+01 -0.65300967856E+02  0.17359278330E+03  0.18557433100E+03  0.00000000000E+00 0. -1.
        -12    1    6    6    0    0  0.47030915589E+02 -0.33923938158E+01  0.10106301946E+03  0.11152196761E+03  0.00000000000E+00 0.  1.
</event>
<event>
12    1  0.2614920E-002  0.2140273E+03  0.7818608E-02  0.1138416E+00
          4   -1    0    0  502    0  0.00000000000E+00  0.00000000000E+00  0.38528740925E+03  0.38528740925E+03  0.00000000000E+00 0.  1.
         -4   -1    0    0    0  501 -0.00000000000E+00 -0.00000000000E+00 -0.19740106705E+03  0.19740106705E+03  0.00000000000E+00 0. -1.
          6    2    1    2  502    0 -0.11855059157E+03  0.45900069424E+02 -0.89701663769E+02  0.23237662533E+03  0.17260199415E+03 0.  0.
         24    2    3    3    0    0 -0.70229138587E+02  0.89178311486E+02 -0.25505851465E+02  0.14099193640E+03  0.79644676690E+02 0.  0.
         -6    2    1    2    0  501  0.11855059157E+03 -0.45900069424E+02  0.27758800597E+03  0.35031185097E+03  0.17176214000E+03 0.  0.
        -24    2    5    5    0    0  0.12637250417E+02 -0.67257877288E+02  0.12547089929E+03  0.16366915506E+03  0.79757906159E+02 0.  0.
          5    1    3    3  502    0 -0.48321452980E+02 -0.43278242062E+02 -0.64195812304E+02  0.91384688933E+02  0.47000000000E+01 0. -1.
        -11    1    4    4    0    0 -0.55455189381E+02  0.24662369136E+02  0.16130392313E+02  0.62798885634E+02  0.00000000000E+00 0.  1.
         12    1    4    4    0    0 -0.14773949206E+02  0.64515942350E+02 -0.41636243778E+02  0.78193050768E+02  0.00000000000E+00 0. -1.
         -5    1    5    5    0  501  0.10591334115E+03  0.21357807864E+02  0.15211710669E+03  0.18664269591E+03  0.47000000000E+01 0.  1.
         13    1    6    6    0    0  0.44136662268E+02 -0.55213233661E+02  0.93379935142E+02  0.11711685794E+03  0.00000000000E+00 0. -1.
        -14    1    6    6    0    0 -0.31499411851E+02 -0.12044643627E+02  0.32090964144E+02  0.46552297116E+02  0.00000000000E+00 0.  1.
</event>
<event>
12    1  0.2614920E-002  0.2498797E+03  0.7818608E-02  0.1113381E+00
          1   -1    0    0  502    0  0.00000000000E+00  0.00000000000E+00  0.11496894548E+04  0.11496894548E+04  0.00000000000E+00 0.  1.
         -1   -1    0    0    0  501 -0.00000000000E+00 -0.00000000000E+00 -0.61371995917E+02  0.61371995917E+02  0.00000000000E+00 0. -1.
          6    2    1    2  502    0 -0.17913407589E+03  0.36540096695E+02  0.33718014111E+03  0.41919065220E+03  0.16913355527E+03 0.  0.
         24    2    3    3    0    0 -0.79249180226E+02  0.58732017272E+02  0.26583332758E+03  0.29436304498E+03  0.79071877313E+02 0.  0.
         -6    2    1    2    0  501  0.17913407589E+03 -0.36540096695E+02  0.75113731775E+03  0.79187079850E+03  0.17154560788E+03 0.  0.
        -24    2    5    5    0    0  0.41886491500E+02 -0.37305567423E+02  0.17863994122E+03  0.20313246826E+03  0.78767934645E+02 0.  0.
          5    1    3    3  502    0 -0.99884895667E+02 -0.22191920577E+02  0.71346813534E+02  0.12482760721E+03  0.47000000000E+01 0. -1.
        -13    1    4    4    0    0 -0.68291863551E+01  0.41616155610E+02  0.46626239159E+02  0.62869295941E+02  0.00000000000E+00 0.  1.
         14    1    4    4    0    0 -0.72419993871E+02  0.17115861662E+02  0.21920708842E+03  0.23149374904E+03  0.00000000000E+00 0. -1.
         -5    1    5    5    0  501  0.13724758439E+03  0.76547072759E+00  0.57249737652E+03  0.58873833024E+03  0.47000000000E+01 0.  1.
         11    1    6    6    0    0 -0.18322468412E+02  0.63166952707E+01  0.60642162297E+02  0.63663846380E+02  0.00000000000E+00 0. -1.
        -12    1    6    6    0    0  0.60208959912E+02 -0.43622262693E+02  0.11799777893E+03  0.13946862188E+03  0.00000000000E+00 0.  1.
</event>
<event>
12    1  0.2614920E-002  0.2082465E+03  0.7818608E-02  0.1142962E+00
          1   -1    0    0  502    0  0.00000000000E+00  0.00000000000E+00  0.26675280061E+03  0.26675280061E+03  0.00000000000E+00 0. -1.
         -1   -1    0    0    0  501 -0.00000000000E+00 -0.00000000000E+00 -0.19815686639E+03  0.19815686639E+03  0.00000000000E+00 0.  1.
          6    2    1    2  502    0  0.23308003730E+02 -0.11232939443E+03  0.13284923993E+03  0.24729722346E+03  0.17420057488E+03 0.  0.
         24    2    3    3    0    0  0.26361825378E+01 -0.89468771811E+02  0.10397716770E+02  0.12093901129E+03  0.80663011046E+02 0.  0.
         -6    2    1    2    0  501 -0.23308003730E+02  0.11232939443E+03 -0.64253305714E+02  0.21761244354E+03  0.17339415329E+03 0.  0.
        -24    2    5    5    0    0  0.53968653870E+02  0.53442294763E+02 -0.47564025844E+02  0.11892103368E+03  0.78174044456E+02 0.  0.
          5    1    3    3  502    0  0.20671821192E+02 -0.22860622623E+02  0.12245152316E+03  0.12635821217E+03  0.47000000000E+01 0. -1.
        -13    1    4    4    0    0  0.32364122902E+02 -0.14016693469E+02 -0.11218594949E+02  0.37010282620E+02  0.00000000000E+00 0.  1.
         14    1    4    4    0    0 -0.29727940364E+02 -0.75452078342E+02  0.21616311719E+02  0.83928728674E+02  0.00000000000E+00 0. -1.
         -5    1    5    5    0  501 -0.77276657600E+02  0.58887099671E+02 -0.16689279870E+02  0.98691409860E+02  0.47000000000E+01 0.  1.
         11    1    6    6    0    0  0.48548715381E+02  0.64076932689E+02 -0.11844045174E+02  0.81259537742E+02  0.00000000000E+00 0. -1.
        -12    1    6    6    0    0  0.54199384889E+01 -0.10634637926E+02 -0.35719980671E+02  0.37661495936E+02  0.00000000000E+00 0.  1.
</event>
<event>
12    1  0.2614920E-002  0.4172793E+03  0.7818608E-02  0.1037955E+00
         -2   -1    0    0    0  501 -0.00000000000E+00  0.00000000000E+00  0.13061024199E+03  0.13061024199E+03  0.00000000000E+00 0.  1.
          2   -1    0    0  502    0  0.00000000000E+00 -0.00000000000E+00 -0.17663866964E+04  0.17663866964E+04  0.00000000000E+00 0. -1.
          6    2    1    2  502    0  0.37689396459E+03 -0.47404459058E+02 -0.34779630431E+03  0.54303534728E+03  0.17213040353E+03 0.  0.
         24    2    3    3    0    0  0.37015026372E+03 -0.31010166933E+02 -0.27867214840E+03  0.47151968993E+03  0.81852327496E+02 0.  0.
         -6    2    1    2    0  501 -0.37689396459E+03  0.47404459058E+02 -0.12879801501E+04  0.13539615911E+04  0.17327111665E+03 0.  0.
        -24    2    5    5    0    0 -0.84361779448E+02  0.69581136472E+01 -0.47347894973E+03  0.48756371391E+03  0.79816878625E+02 0.  0.
          5    1    3    3  502    0  0.67437008743E+01 -0.16394292125E+02 -0.69124155911E+02  0.71515657350E+02  0.47000000000E+01 0. -1.
        -13    1    4    4    0    0  0.22675064822E+03  0.19047923648E+02 -0.18307810074E+03  0.29205525305E+03  0.00000000000E+00 0.  1.
         14    1    4    4    0    0  0.14339961550E+03 -0.50058090581E+02 -0.95594047661E+02  0.17946443688E+03  0.00000000000E+00 0. -1.
         -5    1    5    5    0  501 -0.29253218514E+03  0.40446345411E+02 -0.81450120041E+03  0.86639787723E+03  0.47000000000E+01 0.  1.
         13    1    6    6    0    0 -0.84025873384E+02  0.93492233472E+01 -0.47636018766E+03  0.48380448919E+03  0.00000000000E+00 0. -1.
        -14    1    6    6    0    0 -0.33590606429E+00 -0.23911097000E+01  0.28812379328E+01  0.37592247215E+01  0.00000000000E+00 0.  1.
</event>
<event>
12    1  0.2614920E-002  0.1727101E+03  0.7818608E-02  0.1175051E+00
         -1   -1    0    0    0  501 -0.00000000000E+00  0.00000000000E+00  0.12985206483E+03  0.12985206483E+03  0.00000000000E+00 0.  1.
          1   -1    0    0  502    0  0.00000000000E+00 -0.00000000000E+00 -0.86140905144E+03  0.86140905144E+03  0.00000000000E+00 0. -1.
          6    2    1    2  502    0  0.10119384687E+01 -0.11612940751E+01 -0.79005829890E+03  0.80865857210E+03  0.17243606916E+03 0.  0.
         24    2    3    3    0    0  0.65001032322E+01  0.22027311769E+02 -0.76991086952E+03  0.77710163461E+03  0.10294051530E+03 0.  0.
         -6    2    1    2    0  501 -0.10119384687E+01  0.11612940751E+01  0.58501312292E+02  0.18260254417E+03  0.17297084429E+03 0.  0.
        -24    2    5    5    0    0 -0.40074338913E+02 -0.41588533148E+02 -0.16046690090E+01  0.99006863392E+02  0.80400406139E+02 0.  0.
          5    1    3    3  502    0 -0.54881647634E+01 -0.23188605844E+02 -0.20147429375E+02  0.31556937492E+02  0.47000000000E+01 0. -1.
        -13    1    4    4    0    0  0.60263679428E+01 -0.17127663380E+01  0.53694687454E+00  0.62880037418E+01  0.00000000000E+00 0.  1.
         14    1    4    4    0    0  0.47373528935E+00  0.23740078107E+02 -0.77044781640E+03  0.77081363086E+03  0.00000000000E+00 0. -1.
         -5    1    5    5    0  501  0.39062400444E+02  0.42749827223E+02  0.60105981301E+02  0.83595680775E+02  0.47000000000E+01 0.  1.
         11    1    6    6    0    0 -0.43950638743E+02 -0.44462307643E+01 -0.28866860591E+02  0.52770477108E+02  0.00000000000E+00 0. -1.
        -12    1    6    6    0    0  0.38762998294E+01 -0.37142302384E+02  0.27262191582E+02  0.46236386284E+02  0.00000000000E+00 0.  1.
</event>
<event>
12    1  0.2614920E-002  0.2332201E+03  0.7818608E-02  0.1124394E+00
          2   -1    0    0  502    0  0.00000000000E+00  0.00000000000E+00  0.21504991667E+04  0.21504991667E+04  0.00000000000E+00 0.  1.
         -2   -1    0    0    0  501 -0.00000000000E+00 -0.00000000000E+00 -0.27779420137E+02  0.27779420137E+02  0.00000000000E+00 0. -1.
          6    2    1    2  502    0  0.11729419743E+03  0.10299325366E+03  0.13849088847E+04  0.14043163352E+04  0.17252887125E+03 0.  0.
         24    2    3    3    0    0  0.47540256760E+02  0.61215735585E+01  0.90418760804E+03  0.90897325162E+03  0.79872347846E+02 0.  0.
         -6    2    1    2    0  501 -0.11729419743E+03 -0.10299325366E+03  0.73781086183E+03  0.77396225158E+03  0.17403206595E+03 0.  0.
        -24    2    5    5    0    0 -0.69237413732E+02  0.11606223417E+02  0.40547135784E+03  0.41911844013E+03  0.79528114207E+02 0.  0.
          5    1    3    3  502    0  0.69753940671E+02  0.96871680103E+02  0.48072127665E+03  0.49534308360E+03  0.47000000000E+01 0. -1.
        -11    1    4    4    0    0  0.68969227656E+02  0.13011920505E+02  0.64377576679E+03  0.64759038160E+03  0.00000000000E+00 0.  1.
         12    1    4    4    0    0 -0.21428970895E+02 -0.68903469467E+01  0.26041184125E+03  0.26138287002E+03  0.00000000000E+00 0. -1.
         -5    1    5    5    0  501 -0.48056783699E+02 -0.11459947708E+03  0.33233950399E+03  0.35484381144E+03  0.47000000000E+01 0.  1.
         13    1    6    6    0    0 -0.16951869618E+02 -0.23275570993E+02  0.24644818768E+03  0.24812462050E+03  0.00000000000E+00 0. -1.
        -14    1    6    6    0    0 -0.52285544114E+02  0.34881794409E+02  0.15902317016E+03  0.17099381963E+03  0.00000000000E+00 0.  1.
</event>
<event>
12    1  0.2614920E-002  0.2941601E+03  0.7818608E-02  0.1088197E+00
         -2   -1    0    0    0  501 -0.00000000000E+00  0.00000000000E+00  0.76492969616E+02  0.76492969616E+02  0.00000000000E+00 0.  1.
          2   -1    0    0  502    0  0.00000000000E+00 -0.00000000000E+00 -0.15904698446E+04  0.15904698446E+04  0.00000000000E+00 0. -1.
          6    2    1    2  502    0 -0.21723021275E+03 -0.99813192103E+02 -0.30884694280E+03  0.42641725037E+03  0.17115372823E+03 0.  0.
         24    2    3    3    0    0 -0.12730624639E+03 -0.10700204746E+03 -0.27289287802E+03  0.32919182087E+03  0.78996288032E+02 0.  0.
         -6    2    1    2    0  501  0.21723021275E+03  0.99813192103E+02 -0.12051299322E+04  0.12405455639E+04  0.17164936318E+03 0.  0.
        -24    2    5    5    0    0  0.11129021592E+03  0.11518866567E+03 -0.90919305306E+03  0.92580691902E+03  0.69516204791E+02 0.  0.
          5    1    3    3  502    0 -0.89923966362E+02  0.71888553544E+01 -0.35954064777E+02  0.97225429500E+02  0.47000000000E+01 0. -1.
        -13    1    4    4    0    0 -0.37941152152E+02 -0.19438469000E+02 -0.20099303874E+02  0.47131381477E+02  0.00000000000E+00 0.  1.
         14    1    4    4    0    0 -0.89365094236E+02 -0.87563578457E+02 -0.25279357414E+03  0.28206043939E+03  0.00000000000E+00 0. -1.
         -5    1    5    5    0  501  0.10593999683E+03 -0.15375473570E+02 -0.29593687917E+03  0.31473864486E+03  0.47000000000E+01 0.  1.
         11    1    6    6    0    0  0.91970429338E+02  0.64824630652E+02 -0.46839458218E+03  0.48172012334E+03  0.00000000000E+00 0. -1.
        -12    1    6    6    0    0  0.19319786579E+02  0.50364035021E+02 -0.44079847088E+03  0.44408679569E+03  0.00000000000E+00 0.  1.
</event>
<event>
12    1  0.2614920E-002  0.2142272E+03  0.7818608E-02  0.1138262E+00
          2   -1    0    0  502    0  0.00000000000E+00  0.00000000000E+00  0.69897421295E+03  0.69897421295E+03  0.00000000000E+00 0.  1.
         -2   -1    0    0    0  501 -0.00000000000E+00 -0.00000000000E+00 -0.92327272633E+02  0.92327272633E+02  0.00000000000E+00 0. -1.
          6    2    1    2  502    0  0.12669006411E+03 -0.16860224520E+02  0.51553324658E+03  0.55810777087E+03  0.17139170359E+03 0.  0.
         24    2    3    3    0    0  0.90606389260E+02 -0.13769490879E+02  0.16260017448E+03  0.20329031413E+03  0.80554443851E+02 0.  0.
         -6    2    1    2    0  501 -0.12669006411E+03  0.16860224520E+02  0.91113693740E+02  0.23319371472E+03  0.17246148521E+03 0.  0.
        -24    2    5    5    0    0 -0.23665718951E+02  0.60129171318E+02  0.39602243857E+02  0.11006070971E+03  0.79808762718E+02 0.  0.
          5    1    3    3  502    0  0.36083674852E+02 -0.30907336418E+01  0.35293307210E+03  0.35481745674E+03  0.47000000000E+01 0. -1.
        -11    1    4    4    0    0  0.65297932929E+02  0.25124144648E+02  0.66276894060E+02  0.96372555094E+02  0.00000000000E+00 0.  1.
         12    1    4    4    0    0  0.25308456331E+02 -0.38893635527E+02  0.96323280423E+02  0.10691775904E+03  0.00000000000E+00 0. -1.
         -5    1    5    5    0  501 -0.10302434516E+03 -0.43268946798E+02  0.51511449883E+02  0.12313300501E+03  0.47000000000E+01 0.  1.
         11    1    6    6    0    0  0.22130358220E+02  0.35967226727E+02 -0.39311408193E+01  0.42412828502E+02  0.00000000000E+00 0. -1.
        -12    1    6    6    0    0 -0.45796077171E+02  0.24161944591E+02  0.43533384676E+02  0.67647881209E+02  0.00000000000E+00 0.  1.
</event>
<event>
12    1  0.2614920E-002  0.2606091E+03  0.7818608E-02  0.1106778E+00
          2   -1    0    0  502    0  0.00000000000E+00  0.00000000000E+00  0.91719598166E+03  0.91719598166E+03  0.00000000000E+00 0. -1.
         -2   -1    0    0    0  501 -0.00000000000E+00 -0.00000000000E+00 -0.84341002626E+02  0.84341002626E+02  0.00000000000E+00 0.  1.
          6    2    1    2  502    0 -0.16984746846E+03 -0.95253770332E+02  0.24281388979E+03  0.35688209312E+03  0.17459896909E+03 0.  0.
         24    2    3    3    0    0 -0.98664298259E+02  0.12875375817E+02  0.14962328723E+03  0.19730285145E+03  0.81491521359E+02 0.  0.
         -6    2    1    2    0  501  0.16984746846E+03  0.95253770332E+02  0.59004108925E+03  0.64465489117E+03  0.17178474439E+03 0.  0.
        -24    2    5    5    0    0  0.11576761245E+03  0.95446497030E+02  0.26391205446E+03  0.31403894282E+03  0.80366107492E+02 0.  0.
          5    1    3    3  502    0 -0.71183170204E+02 -0.10812914615E+03  0.93190602556E+02  0.15957924167E+03  0.47000000000E+01 0. -1.
        -13    1    4    4    0    0 -0.47996255234E+02  0.10607339545E+02  0.11952613291E+02  0.50586768361E+02  0.00000000000E+00 0.  1.
         14    1    4    4    0    0 -0.50668043025E+02  0.22680362721E+01  0.13767067394E+03  0.14671608309E+03  0.00000000000E+00 0. -1.
         -5    1    5    5    0  501  0.54079856010E+02 -0.19272669784E+00  0.32612903479E+03  0.33061594835E+03  0.47000000000E+01 0.  1.
         13    1    6    6    0    0  0.83740245572E+02  0.76412624220E+02  0.24958259976E+03  0.27412185606E+03  0.00000000000E+00 0. -1.
        -14    1    6    6    0    0  0.32027366880E+02  0.19033872810E+02  0.14329454696E+02  0.39917086759E+02  0.00000000000E+00 0.  1.
</event>
<event>
12    1  0.2614920E-002  0.2073476E+03  0.7818608E-02  0.1143684E+00
         -2   -1    0    0    0  501 -0.00000000000E+00  0.00000000000E+00  0.15743016168E+02  0.15743016168E+02  0.00000000000E+00 0. -1.
          2   -1    0    0  502    0  0.00000000000E+00 -0.00000000000E+00 -0.28138138513E+04  0.28138138513E+04  0.00000000000E+00 0.  1.
          6    2    1    2  502    0  0.68234934945E+02 -0.92142497538E+02 -0.16390010322E+04  0.16520103754E+04  0.17224299908E+03 0.  0.
         24    2    3    3    0    0  0.89120021920E+02 -0.73888333200E+02 -0.15801948672E+04  0.15868209866E+04  0.87081347530E+02 0.  0.
         -6    2    1    2    0  501 -0.68234934945E+02  0.92142497538E+02 -0.11590698029E+04  0.11775464920E+04  0.17328210143E+03 0.  0.
        -24    2    5    5    0    0 -0.29785000537E+02  0.11739999263E+03 -0.64639952391E+03  0.66279485921E+03  0.82430433493E+02 0.  0.
          5    1    3    3  502    0 -0.20885086975E+02 -0.18254164338E+02 -0.58806165069E+02  0.65189388889E+02  0.47000000000E+01 0. -1.
        -11    1    4    4    0    0  0.78374136335E+02 -0.82717478907E+02 -0.10019500867E+04  0.10084089760E+04  0.00000000000E+00 0.  1.
         12    1    4    4    0    0  0.10745885585E+02  0.88291457072E+01 -0.57824478042E+03  0.57841201056E+03  0.00000000000E+00 0. -1.
         -5    1    5    5    0  501 -0.38449934408E+02 -0.25257495094E+02 -0.51267027898E+03  0.51475163279E+03  0.47000000000E+01 0.  1.
         13    1    6    6    0    0 -0.17234263352E+02  0.65869707050E+02 -0.53610293381E+03  0.54040928358E+03  0.00000000000E+00 0. -1.
        -14    1    6    6    0    0 -0.12550737185E+02  0.51530285581E+02 -0.11029659010E+03  0.12238557563E+03  0.00000000000E+00 0.  1.
</event>
<event>
12    1  0.2614920E-002  0.2524107E+03  0.7818608E-02  0.1111791E+00
          1   -1    0    0  502    0  0.00000000000E+00  0.00000000000E+00  0.43984522481E+03  0.43984522481E+03  0.00000000000E+00 0. -1.
         -1   -1    0    0    0  501 -0.00000000000E+00 -0.00000000000E+00 -0.20887103572E+03  0.20887103572E+03  0.00000000000E+00 0.  1.
          6    2    1    2  502    0 -0.14922042701E+03  0.10549185508E+03  0.29524003713E+03  0.38879395952E+03  0.17492511571E+03 0.  0.
         24    2    3    3    0    0 -0.11090337698E+03  0.25197297084E+02  0.87787979863E+02  0.16302004953E+03  0.77034695651E+02 0.  0.
         -6    2    1    2    0  501  0.14922042701E+03 -0.10549185508E+03 -0.64265848048E+02  0.25992230101E+03  0.17330388343E+03 0.  0.
        -24    2    5    5    0    0  0.10888170467E+03 -0.16768825567E+02  0.11806117475E+02  0.13619670776E+03  0.79206942069E+02 0.  0.
          5    1    3    3  502    0 -0.38317050028E+02  0.80294557996E+02  0.20745205727E+03  0.22577390999E+03  0.47000000000E+01 0. -1.
        -11    1    4    4    0    0 -0.41414814366E+02  0.46715008367E+02  0.26194435570E+02  0.67702491169E+02  0.00000000000E+00 0.  1.
         12    1    4    4    0    0 -0.69488562611E+02 -0.21517711283E+02  0.61593544293E+02  0.95317558358E+02  0.00000000000E+00 0. -1.
         -5    1    5    5    0  501  0.40338722335E+02 -0.88723029513E+02 -0.76071965523E+02  0.12372559325E+03  0.47000000000E+01 0.  1.
         11    1    6    6    0    0  0.93008739175E+02 -0.17584205577E+01 -0.22330535568E+02  0.95668021954E+02  0.00000000000E+00 0. -1.
        -12    1    6    6    0    0  0.15872965496E+02 -0.15010405009E+02  0.34136653043E+02  0.40528685806E+02  0.00000000000E+00 0.  1.
</event>
<event>
12    1  0.2614920E-002  0.4461165E+03  0.7818608E-02  0.1028887E+00
         -1   -1    0    0    0  501 -0.00000000000E+00  0.00000000000E+00  0.15672727590E+03  0.15672727590E+03  0.00000000000E+00 0.  1.
          1   -1    0    0  502    0  0.00000000000E+00 -0.00000000000E+00 -0.33233477122E+04  0.33233477122E+04  0.00000000000E+00 0. -1.
          6    2    1    2  502    0  0.37059756345E+03 -0.17934152630E+03 -0.21469501927E+03  0.49453800800E+03  0.17019974433E+03 0.  0.
         24    2    3    3    0    0  0.30329269835E+03 -0.13841913517E+03 -0.10317304767E+03  0.35792238990E+03  0.79482334939E+02 0.  0.
         -6    2    1    2    0  501 -0.37059756345E+03  0.17934152630E+03 -0.29519254171E+04  0.29855369801E+04  0.17338239446E+03 0.  0.
        -24    2    5    5    0    0 -0.24007214090E+03  0.40905684386E+02 -0.16360236018E+04  0.16559426639E+04  0.79151580620E+02 0.  0.
          5    1    3    3  502    0  0.67304865094E+02 -0.40922391131E+02 -0.11152197160E+03  0.13661561811E+03  0.47000000000E+01 0. -1.
        -13    1    4    4    0    0  0.12511954998E+03 -0.10069635910E+03 -0.48380351720E+02  0.16773585471E+03  0.00000000000E+00 0.  1.
         14    1    4    4    0    0  0.17817314838E+03 -0.37722776067E+02 -0.54792695951E+02  0.19018653519E+03  0.00000000000E+00 0. -1.
         -5    1    5    5    0  501 -0.13052542255E+03  0.13843584191E+03 -0.13159018153E+04  0.13295943162E+04  0.47000000000E+01 0.  1.
         13    1    6    6    0    0 -0.19787379814E+03  0.46888096680E+02 -0.14904407211E+04  0.15042493399E+04  0.00000000000E+00 0. -1.
        -14    1    6    6    0    0 -0.42198342763E+02 -0.59824122936E+01 -0.14558288068E+03  0.15169332397E+03  0.00000000000E+00 0.  1.
</event>
<event>
12    1  0.2614920E-002  0.3081671E+03  0.7818608E-02  0.1081228E+00
         -2   -1    0    0    0  501 -0.00000000000E+00  0.00000000000E+00  0.17825034595E+03  0.17825034595E+03  0.00000000000E+00 0. -1.
          2   -1    0    0  502    0  0.00000000000E+00 -0.00000000000E+00 -0.71822123423E+03  0.71822123423E+03  0.00000000000E+00 0.  1.
          6    2    1    2  502    0 -0.47464259747E+02  0.25145150076E+03 -0.49763852377E+03  0.58523848479E+03  0.17140382302E+03 0.  0.
         24    2    3    3    0    0 -0.69190852772E+02  0.21776254653E+03 -0.30982059445E+03  0.39313264142E+03  0.79728114389E+02 0.  0.
         -6    2    1    2    0  501  0.47464259747E+02 -0.25145150076E+03 -0.42332364513E+02  0.31123309539E+03  0.17202702518E+03 0.  0.
        -24    2    5    5    0    0 -0.42654681285E+01 -0.24285726037E+03 -0.29086713993E+02  0.25694347418E+03  0.78587968907E+02 0.  0.
          5    1    3    3  502    0  0.21726593025E+02  0.33688954228E+02 -0.18781792932E+03  0.19210584337E+03  0.47000000000E+01 0. -1.
        -11    1    4    4    0    0 -0.90170681993E+01  0.61877833238E+02 -0.14735841435E+03  0.16007709407E+03  0.00000000000E+00 0.  1.
         12    1    4    4    0    0 -0.60173784573E+02  0.15588471330E+03 -0.16246218010E+03  0.23305554735E+03  0.00000000000E+00 0. -1.
         -5    1    5    5    0  501  0.51729727875E+02 -0.85942403883E+01 -0.13245650520E+02  0.54289621215E+02  0.47000000000E+01 0.  1.
         13    1    6    6    0    0  0.21533645340E+02 -0.72434874865E+02  0.19150741953E+02  0.77956782231E+02  0.00000000000E+00 0. -1.
        -14    1    6    6    0    0 -0.25799113468E+02 -0.17042238551E+03 -0.48237455945E+02  0.17898669195E+03  0.00000000000E+00 0.  1.
</event>
<event>
12    1  0.2614920E-002  0.2347140E+03  0.7818608E-02  0.1123365E+00
          2   -1    0    0  502    0  0.00000000000E+00  0.00000000000E+00  0.82757462499E+03  0.82757462499E+03  0.00000000000E+00 0.  1.
         -2   -1    0    0    0  501 -0.00000000000E+00 -0.00000000000E+00 -0.16397671040E+03  0.16397671040E+03  0.00000000000E+00 0. -1.
          6    2    1    2  502    0 -0.54614343733E+02 -0.15119686236E+03 -0.49713056253E+02  0.24093985102E+03  0.17244537140E+03 0.  0.
         24    2    3    3    0    0 -0.68314651656E+02 -0.12944535507E+03  0.15810798264E+02  0.17039701285E+03  0.85803083084E+02 0.  0.
         -6    2    1    2    0  501  0.54614343733E+02  0.15119686236E+03  0.71331097083E+03  0.75061148437E+03  0.16959316503E+03 0.  0.
        -24    2    5    5    0    0  0.78456259982E+02  0.46295734674E+02  0.30414336707E+03  0.32751232161E+03  0.80389385443E+02 0.  0.
          5    1    3    3  502    0  0.13700307923E+02 -0.21751507296E+02 -0.65523854517E+02  0.70542838174E+02  0.47000000000E+01 0. -1.
        -11    1    4    4    0    0 -0.27255736221E+02  0.40233971294E+01 -0.81134869630E+01  0.28720925335E+02  0.00000000000E+00 0.  1.
         12    1    4    4    0    0 -0.41058915435E+02 -0.13346875220E+03  0.23924285227E+02  0.14167608751E+03  0.00000000000E+00 0. -1.
         -5    1    5    5    0  501 -0.23841916249E+02  0.10490112769E+03  0.40916760376E+03  0.42309916276E+03  0.47000000000E+01 0.  1.
         13    1    6    6    0    0 -0.65156059880E+01 -0.94659686122E+01  0.69710756902E+01  0.13440743262E+02  0.00000000000E+00 0. -1.
        -14    1    6    6    0    0  0.84971865970E+02  0.55761703286E+02  0.29717229138E+03  0.31407157834E+03  0.00000000000E+00 0.  1.
</event>
<event>
12    1  0.2614920E-002  0.2103397E+03  0.7818608E-02  0.1141297E+00
         -1   -1    0    0    0  501 -0.00000000000E+00  0.00000000000E+00  0.11014725396E+03  0.11014725396E+03  0.00000000000E+00 0.  1.
          1   -1    0    0  502    0  0.00000000000E+00 -0.00000000000E+00 -0.49223783589E+03  0.49223783589E+03  0.00000000000E+00 0. -1.
          6    2    1    2  502    0  0.10247432027E+03  0.51604801604E+02 -0.58819662164E+02  0.21433424385E+03  0.17121732846E+03 0.  0.
         24    2    3    3    0    0  0.38839092407E+02  0.82074075735E+02  0.19009614292E+01  0.12113068694E+03  0.80152359020E+02 0.  0.
         -6    2    1    2    0  501 -0.10247432027E+03 -0.51604801604E+02 -0.32327091976E+03  0.38805084600E+03  0.18142582411E+03 0.  0.
        -24    2    5    5    0    0 -0.10554979752E+03 -0.56665335236E+02 -0.33955694666E+03  0.37009556173E+03  0.85557494188E+02 0.  0.
          5    1    3    3  502    0  0.63635227865E+02 -0.30469274131E+02 -0.60720623594E+02  0.93203556912E+02  0.47000000000E+01 0. -1.
        -13    1    4    4    0    0  0.49356826821E+02  0.32446615534E+02  0.26514780478E+02  0.64744982796E+02  0.00000000000E+00 0.  1.
         14    1    4    4    0    0 -0.10517734414E+02  0.49627460201E+02 -0.24613819049E+02  0.56385704140E+02  0.00000000000E+00 0. -1.
         -5    1    5    5    0  501  0.30754772465E+01  0.50605336315E+01  0.16286026903E+02  0.17955284270E+02  0.47000000000E+01 0.  1.
         11    1    6    6    0    0  0.65232270388E+01  0.12703541023E+02 -0.49052017960E+02  0.51088481202E+02  0.00000000000E+00 0. -1.
        -12    1    6    6    0    0 -0.11207302456E+03 -0.69368876258E+02 -0.29050492870E+03  0.31900708053E+03  0.00000000000E+00 0.  1.
</event>
<event>
12    1  0.2614920E-002  0.2110956E+03  0.7818608E-02  0.1140701E+00
         -1   -1    0    0    0  501 -0.00000000000E+00  0.00000000000E+00  0.16998454034E+02  0.16998454034E+02  0.00000000000E+00 0.  1.
          1   -1    0    0  502    0  0.00000000000E+00 -0.00000000000E+00 -0.26375087796E+04  0.26375087796E+04  0.00000000000E+00 0. -1.
          6    2    1    2  502    0  0.88352254979E+01  0.12662953247E+03 -0.12310325343E+04  0.12496073832E+04  0.17310231611E+03 0.  0.
         24    2    3    3    0    0  0.46362661653E+02  0.12366199019E+03 -0.67860162033E+03  0.69587539069E+03  0.79376419966E+02 0.  0.
         -6    2    1    2    0  501 -0.88352254979E+01 -0.12662953247E+03 -0.13894777913E+04  0.14048998505E+04  0.16426185720E+03 0.  0.
        -24    2    5    5    0    0  0.24613594492E+02 -0.18735841622E+02 -0.81029337070E+03  0.81478413715E+03  0.79630287924E+02 0.  0.
          5    1    3    3  502    0 -0.37527436155E+02  0.29675422806E+01 -0.55243091398E+03  0.55373199248E+03  0.47000000000E+01 0. -1.
        -13    1    4    4    0    0  0.34589284444E+02  0.12893809219E+02 -0.98812126179E+02  0.10548225061E+03  0.00000000000E+00 0.  1.
         14    1    4    4    0    0  0.11773377209E+02  0.11076818097E+03 -0.57978949415E+03  0.59039314008E+03  0.00000000000E+00 0. -1.
         -5    1    5    5    0  501 -0.33448819990E+02 -0.10789369085E+03 -0.57918442056E+03  0.59011571332E+03  0.47000000000E+01 0.  1.
         13    1    6    6    0    0  0.19676684955E+01  0.25651187129E+02 -0.48641707233E+03  0.48709693427E+03  0.00000000000E+00 0. -1.
        -14    1    6    6    0    0  0.22645925997E+02 -0.44387028750E+02 -0.32387629836E+03  0.32768720288E+03  0.00000000000E+00 0.  1.
</event>
<event>
12    1  0.2614920E-002  0.2187737E+03  0.7818608E-02  0.1134801E+00
         -2   -1    0    0    0  501 -0.00000000000E+00  0.00000000000E+00  0.26770307838E+02  0.26770307838E+02  0.00000000000E+00 0.  1.
          2   -1    0    0  502    0  0.00000000000E+00 -0.00000000000E+00 -0.17978166568E+04  0.17978166568E+04  0.00000000000E+00 0. -1.
          6    2    1    2  502    0  0.11328593886E+01 -0.13224280988E+03 -0.96143401121E+03  0.98649295334E+03  0.17698458955E+03 0.  0.
         24    2    3    3    0    0  0.54559172837E+02 -0.99231704237E+02 -0.44612391150E+03  0.46734876053E+03  0.81022744271E+02 0.  0.
         -6    2    1    2    0  501 -0.11328593886E+01  0.13224280988E+03 -0.80961233776E+03  0.83809401131E+03  0.17158085617E+03 0.  0.
        -24    2    5    5    0    0 -0.57375551784E+02  0.88394626648E+02 -0.66706081970E+03  0.67862950453E+03  0.66800473654E+02 0.  0.
          5    1    3    3  502    0 -0.53426313448E+02 -0.33011105638E+02 -0.51531009971E+03  0.51914419281E+03  0.47000000000E+01 0. -1.
        -11    1    4    4    0    0 -0.88364337980E+01 -0.67795354777E+02 -0.20989390169E+03  0.22074814304E+03  0.00000000000E+00 0.  1.
         12    1    4    4    0    0  0.63395606635E+02 -0.31436349460E+02 -0.23623000981E+03  0.24660061749E+03  0.00000000000E+00 0. -1.
         -5    1    5    5    0  501  0.56242692395E+02  0.43848183227E+02 -0.14255151807E+03  0.15946450678E+03  0.47000000000E+01 0.  1.
         13    1    6    6    0    0 -0.26377367188E+01  0.40848781932E+02 -0.39350812753E+03  0.39563142832E+03  0.00000000000E+00 0. -1.
        -14    1    6    6    0    0 -0.54737815065E+02  0.47545844717E+02 -0.27355269217E+03  0.28299807621E+03  0.00000000000E+00 0.  1.
</event>
<event>
12    1  0.2614920E-002  0.2025578E+03  0.7818608E-02  0.1147599E+00
          1   -1    0    0  502    0  0.00000000000E+00  0.00000000000E+00  0.29860481663E+03  0.29860481663E+03  0.00000000000E+00 0. -1.
         -1   -1    0    0    0  501 -0.00000000000E+00 -0.00000000000E+00 -0.70804458443E+03  0.70804458443E+03  0.00000000000E+00 0.  1.
          6    2    1    2  502    0  0.17252735459E+02  0.10629470998E+03 -0.65652969334E+03  0.68699929106E+03  0.17129087957E+03 0.  0.
         24    2    3    3    0    0  0.33323875781E+02  0.90148349286E+02 -0.23741630617E+03  0.26724089886E+03  0.76249524664E+02 0.  0.
         -6    2    1    2    0  501 -0.17252735459E+02 -0.10629470998E+03  0.24708992554E+03  0.31965011000E+03  0.17183288179E+03 0.  0.
        -24    2    5    5    0    0 -0.55002417778E+02 -0.12243289663E+03  0.16158350561E+03  0.22468212890E+03  0.79735497880E+02 0.  0.
          5    1    3    3  502    0 -0.16071140322E+02  0.16146360692E+02 -0.41911338718E+03  0.41975839220E+03  0.47000000000E+01 0. -1.
        -13    1    4    4    0    0 -0.77577557510E+01  0.78820764320E+02 -0.13872361289E+03  0.15974084148E+03  0.00000000000E+00 0.  1.
         14    1    4    4    0    0  0.41081631532E+02  0.11327584967E+02 -0.98692693274E+02  0.10750005738E+03  0.00000000000E+00 0. -1.
         -5    1    5    5    0  501  0.37749682319E+02  0.16138186655E+02  0.85506419938E+02  0.94967981101E+02  0.47000000000E+01 0.  1.
         11    1    6    6    0    0 -0.50358549809E+02 -0.43695422467E+02  0.11541591199E+03  0.13328955782E+03  0.00000000000E+00 0. -1.
        -12    1    6    6    0    0 -0.46438679697E+01 -0.78737474166E+02  0.46167593617E+02  0.91392571078E+02  0.00000000000E+00 0.  1.
</event>
<event>
12    1  0.2614920E-002  0.1932963E+03  0.7818608E-02  0.1155521E+00
         -3   -1    0    0    0  501 -0.00000000000E+00  0.00000000000E+00  0.12914536683E+04  0.12914536683E+04  0.00000000000E+00 0.  1.
          3   -1    0    0  502    0  0.00000000000E+00 -0.00000000000E+00 -0.35295725371E+02  0.35295725371E+02  0.00000000000E+00 0. -1.
          6    2    1    2  502    0  0.67715614141E+02  0.66813350281E+02  0.91760131291E+03  0.93836912881E+03  0.17174115487E+03 0.  0.
         24    2    3    3    0    0  0.91652943347E+02  0.64209462798E+02  0.45903091442E+03  0.47914295760E+03  0.79658497855E+02 0.  0.
         -6    2    1    2    0  501 -0.67715614141E+02 -0.66813350281E+02  0.33855663005E+03  0.38838026489E+03  0.16483085340E+03 0.  0.
        -24    2    5    5    0    0 -0.71282910821E+02 -0.10138515544E+03  0.23785506350E+03  0.28174616705E+03  0.86288285967E+02 0.  0.
          5    1    3    3  502    0 -0.23937329206E+02  0.26038874829E+01  0.45857039848E+03  0.45922617121E+03  0.47000000000E+01 0. -1.
        -11    1    4    4    0    0  0.57814963214E+02 -0.22436131258E+01  0.26574060754E+03  0.27196631091E+03  0.00000000000E+00 0.  1.
         12    1    4    4    0    0  0.33837980134E+02  0.66453075924E+02  0.19329030688E+03  0.20717664669E+03  0.00000000000E+00 0. -1.
         -5    1    5    5    0  501  0.35672966795E+01  0.34571805157E+02  0.10070156655E+03  0.10663409784E+03  0.47000000000E+01 0.  1.
         13    1    6    6    0    0  0.10523627288E+02 -0.56463928210E+02  0.98599484684E+02  0.11410863377E+03  0.00000000000E+00 0. -1.
        -14    1    6    6    0    0 -0.81806538109E+02 -0.44921227228E+02  0.13925557882E+03  0.16763753328E+03  0.00000000000E+00 0.  1.
</event>
<event>
12    1  0.2614920E-002  0.3610110E+03  0.7818608E-02  0.1058184E+00
         -1   -1    0    0    0  501 -0.00000000000E+00  0.00000000000E+00  0.10286661966E+03  0.10286661966E+03  0.00000000000E+00 0.  1.
          1   -1    0    0  502    0  0.00000000000E+00 -0.00000000000E+00 -0.15472036835E+04  0.15472036835E+04  0.00000000000E+00 0. -1.
          6    2    1    2  502    0 -0.29150443186E+03  0.12724095828E+03 -0.10727796522E+04  0.11317950992E+04  0.17011428322E+03 0.  0.
         24    2    3    3    0    0 -0.19673996005E+03  0.15133916665E+03 -0.82721299013E+03  0.86743529848E+03  0.80947580388E+02 0.  0.
         -6    2    1    2    0  501  0.29150443186E+03 -0.12724095828E+03 -0.37155741169E+03  0.51827520391E+03  0.17143273186E+03 0.  0.
        -24    2    5    5    0    0  0.22167336658E+03 -0.98147122468E+02 -0.36267033554E+03  0.44196072899E+03  0.70905391835E+02 0.  0.
          5    1    3    3  502    0 -0.94764471809E+02 -0.24098208377E+02 -0.24556666202E+03  0.26435980077E+03  0.47000000000E+01 0. -1.
        -13    1    4    4    0    0  0.73149295087E+01  0.39919250236E+01 -0.15534503274E+02  0.17628512447E+02  0.00000000000E+00 0.  1.
         14    1    4    4    0    0 -0.20405488956E+03  0.14734724163E+03 -0.81167848686E+03  0.84980678604E+03  0.00000000000E+00 0. -1.
         -5    1    5    5    0  501  0.69831065277E+02 -0.29093835807E+02 -0.88870761485E+01  0.76314474919E+02  0.47000000000E+01 0.  1.
         11    1    6    6    0    0  0.16933047559E+03 -0.45567373450E+02 -0.28440507182E+03  0.33411890154E+03  0.00000000000E+00 0. -1.
        -12    1    6    6    0    0  0.52342890987E+02 -0.52579749018E+02 -0.78265263719E+02  0.10784182745E+03  0.00000000000E+00 0.  1.
</event>
<event>
12    1  0.2614920E-002  0.1987429E+03  0.7818608E-02  0.1150804E+00
          1   -1    0    0  502    0  0.00000000000E+00  0.00000000000E+00  0.14246847818E+02  0.14246847818E+02  0.00000000000E+00 0.  1.
         -1   -1    0    0    0  501 -0.00000000000E+00 -0.00000000000E+00 -0.28782581254E+04  0.28782581254E+04  0.00000000000E+00 0. -1.
          6    2    1    2  502    0  0.39406489792E+02 -0.94686935921E+02 -0.11708165165E+04  0.11879454809E+04  0.17287181118E+03 0.  0.
         24    2    3    3    0    0 -0.12615993518E+02 -0.65167590071E+01 -0.74927675732E+03  0.75412734227E+03  0.84206637872E+02 0.  0.
         -6    2    1    2    0  501 -0.39406489792E+02  0.94686935921E+02 -0.16931947611E+04  0.17045594923E+04  0.16761884288E+03 0.  0.
        -24    2    5    5    0    0 -0.10952885468E+02  0.11678360162E+03 -0.94085905296E+03  0.95134705349E+03  0.78019762464E+02 0.  0.
          5    1    3    3  502    0  0.52022483310E+02 -0.88170176914E+02 -0.42153975918E+03  0.43381813866E+03  0.47000000000E+01 0. -1.
        -13    1    4    4    0    0  0.14921051357E+02 -0.10965730128E+02 -0.37680527749E+02  0.41984606492E+02  0.00000000000E+00 0.  1.
         14    1    4    4    0    0 -0.27537044875E+02  0.44489711214E+01 -0.71159622957E+03  0.71214273578E+03  0.00000000000E+00 0. -1.
         -5    1    5    5    0  501 -0.28453604323E+02 -0.22096665698E+02 -0.75233570815E+03  0.75321243882E+03  0.47000000000E+01 0.  1.
         13    1    6    6    0    0 -0.30694446109E+02  0.18271792734E+02 -0.15338467612E+03  0.15748925773E+03  0.00000000000E+00 0. -1.
        -14    1    6    6    0    0  0.19741560641E+02  0.98511808885E+02 -0.78747437684E+03  0.79385779576E+03  0.00000000000E+00 0.  1.
</event>
<event>
12    1  0.2614920E-002  0.3772342E+03  0.7818608E-02  0.1051961E+00
         -2   -1    0    0    0  501 -0.00000000000E+00  0.00000000000E+00  0.49531715737E+02  0.49531715737E+02  0.00000000000E+00 0.  1.
          2   -1    0    0  502    0  0.00000000000E+00 -0.00000000000E+00 -0.31027170969E+04  0.31027170969E+04  0.00000000000E+00 0. -1.
          6    2    1    2  502    0  0.25789176786E+03 -0.21461716620E+03 -0.10968410042E+04  0.11598199986E+04  0.17191145597E+03 0.  0.
         24    2    3    3    0    0  0.24572013171E+03 -0.23574123023E+03 -0.98827769141E+03  0.10484536765E+04  0.81301941667E+02 0.  0.
         -6    2    1    2    0  501 -0.25789176786E+03  0.21461716620E+03 -0.19563443769E+04  0.19924288140E+04  0.17297562198E+03 0.  0.
        -24    2    5    5    0    0 -0.25899720338E+03  0.22762790269E+03 -0.17399829972E+04  0.17756228227E+04  0.80009776429E+02 0.  0.
          5    1    3    3  502    0  0.12171636144E+02  0.21124064030E+02 -0.10856331283E+03  0.11136632211E+03  0.47000000000E+01 0. -1.
        -13    1    4    4    0    0  0.11659786485E+03 -0.15967422529E+03 -0.62329775539E+03  0.65390443659E+03  0.00000000000E+00 0.  1.
         14    1    4    4    0    0  0.12912226686E+03 -0.76067004939E+02 -0.36497993602E+03  0.39454923994E+03  0.00000000000E+00 0. -1.
         -5    1    5    5    0  501  0.11054355203E+01 -0.13010736493E+02 -0.21636137972E+03  0.21680599136E+03  0.47000000000E+01 0.  1.
         13    1    6    6    0    0 -0.16801245498E+03  0.14003121325E+03 -0.89982803408E+03  0.92602776234E+03  0.00000000000E+00 0. -1.
        -14    1    6    6    0    0 -0.90984748401E+02  0.87596689447E+02 -0.84015496313E+03  0.84959506032E+03  0.00000000000E+00 0.  1.
</event>
<event>
12    1  0.2614920E-002  0.3290990E+03  0.7818608E-02  0.1071536E+00
         -2   -1    0    0    0  501 -0.00000000000E+00  0.00000000000E+00  0.73125622059E+02  0.73125622059E+02  0.00000000000E+00 0. -1.
          2   -1    0    0  502    0  0.00000000000E+00 -0.00000000000E+00 -0.14948914386E+04  0.14948914386E+04  0.00000000000E+00 0.  1.
          6    2    1    2  502    0  0.12814128828E+03  0.24931086647E+03 -0.78757147465E+03  0.85381713089E+03  0.17366279806E+03 0.  0.
         24    2    3    3    0    0  0.12616830846E+03  0.26667670658E+03 -0.77104172422E+03  0.82930615985E+03  0.78793771295E+02 0.  0.
         -6    2    1    2    0  501 -0.12814128828E+03 -0.24931086647E+03 -0.63419434190E+03  0.71419992977E+03  0.17118112771E+03 0.  0.
        -24    2    5    5    0    0 -0.88497865505E+02 -0.97734516358E+02 -0.19907987426E+03  0.25171351826E+03  0.79642897063E+02 0.  0.
          5    1    3    3  502    0  0.19729798269E+01 -0.17365840111E+02 -0.16529750431E+02  0.24510971042E+02  0.47000000000E+01 0. -1.
        -11    1    4    4    0    0 -0.10033179634E+02  0.36458066974E+02 -0.90494208472E+02  0.98076791893E+02  0.00000000000E+00 0.  1.
         12    1    4    4    0    0  0.13620148809E+03  0.23021863961E+03 -0.68054751574E+03  0.73122936796E+03  0.00000000000E+00 0. -1.
         -5    1    5    5    0  501 -0.39643422777E+02 -0.15157635011E+03 -0.43511446763E+03  0.46248641151E+03  0.47000000000E+01 0.  1.
         11    1    6    6    0    0 -0.36153303403E+02 -0.82880501482E+02 -0.79760678048E+02  0.12057364818E+03  0.00000000000E+00 0. -1.
        -12    1    6    6    0    0 -0.52344562102E+02 -0.14854014875E+02 -0.11931919621E+03  0.13113987008E+03  0.00000000000E+00 0.  1.
</event>
<event>
12    1  0.2614920E-002  0.1860638E+03  0.7818608E-02  0.1162060E+00
          2   -1    0    0  502    0  0.00000000000E+00  0.00000000000E+00  0.11559565000E+04  0.11559565000E+04  0.00000000000E+00 0.  1.
         -2   -1    0    0    0  501 -0.00000000000E+00 -0.00000000000E+00 -0.33144443871E+02  0.33144443871E+02  0.00000000000E+00 0. -1.
          6    2    1    2  502    0  0.23926641767E+02  0.65954419411E+02  0.74697977467E+03  0.76989032878E+03  0.17271324486E+03 0.  0.
         24    2    3    3    0    0  0.43726771177E+02 -0.39412923416E+01  0.58963941237E+03  0.59652500568E+03  0.78992920376E+02 0.  0.
         -6    2    1    2    0  501 -0.23926641767E+02 -0.65954419411E+02  0.37583228142E+03  0.41921061506E+03  0.17194524243E+03 0.  0.
        -24    2    5    5    0    0 -0.41985223467E+02 -0.57747456475E+01  0.32838843130E+03  0.34033910929E+03  0.78712393089E+02 0.  0.
          5    1    3    3  502    0 -0.19800129410E+02  0.69895711753E+02  0.15734036230E+03  0.17336532310E+03  0.47000000000E+01 0. -1.
        -13    1    4    4    0    0  0.26279490693E+00  0.30862759751E+02  0.29987889308E+03  0.30146298200E+03  0.00000000000E+00 0.  1.
         14    1    4    4    0    0  0.43463976270E+02 -0.34804052092E+02  0.28976051929E+03  0.29506202368E+03  0.00000000000E+00 0. -1.
         -5    1    5    5    0  501  0.18058581700E+02 -0.60179673764E+02  0.47443850122E+02  0.78871505765E+02  0.47000000000E+01 0.  1.
         13    1    6    6    0    0 -0.17541738973E+01  0.23879105950E+02  0.33106765409E+02  0.40857639957E+02  0.00000000000E+00 0. -1.
        -14    1    6    6    0    0 -0.40231049570E+02 -0.29653851598E+02  0.29528166589E+03  0.29948146933E+03  0.00000000000E+00 0.  1.
</event>
<event>
12    1  0.2614920E-002  0.1821289E+03  0.7818608E-02  0.1165758E+00
         -2   -1    0    0    0  501 -0.00000000000E+00  0.00000000000E+00  0.53144921886E+02  0.53144921886E+02  0.00000000000E+00 0. -1.
          2   -1    0    0  502    0  0.00000000000E+00 -0.00000000000E+00 -0.67378622645E+03  0.67378622645E+03  0.00000000000E+00 0.  1.
          6    2    1    2  502    0  0.58733126323E+02 -0.15275868903E+02 -0.40848225556E+03  0.44712254257E+03  0.17139977441E+03 0.  0.
         24    2    3    3    0    0  0.10020398449E+03 -0.34483393112E+02 -0.29673351534E+03  0.32629774378E+03  0.84790893133E+02 0.  0.
         -6    2    1    2    0  501 -0.58733126323E+02  0.15275868903E+02 -0.21215904900E+03  0.27980860576E+03  0.17204203407E+03 0.  0.
        -24    2    5    5    0    0  0.22078942112E+02  0.35518892020E+02 -0.15502447398E+03  0.17868086450E+03  0.78391277771E+02 0.  0.
          5    1    3    3  502    0 -0.41470858167E+02  0.19207524209E+02 -0.11174874022E+03  0.12082479879E+03  0.47000000000E+01 0. -1.
        -13    1    4    4    0    0  0.62775171281E+02 -0.34939941727E+01 -0.25374722255E+03  0.26142031879E+03  0.00000000000E+00 0.  1.
         14    1    4    4    0    0  0.37428813209E+02 -0.30989398939E+02 -0.42986292792E+02  0.64877424986E+02  0.00000000000E+00 0. -1.
         -5    1    5    5    0  501 -0.80812068435E+02 -0.20243023117E+02 -0.57134575015E+02  0.10112774126E+03  0.47000000000E+01 0.  1.
         11    1    6    6    0    0  0.27044386002E+02 -0.17301576045E+02 -0.35231369174E+02  0.47665424804E+02  0.00000000000E+00 0. -1.
        -12    1    6    6    0    0 -0.49654438898E+01  0.52820468065E+02 -0.11979310481E+03  0.13101543970E+03  0.00000000000E+00 0.  1.
</event>
<event>
12    1  0.2614920E-002  0.1792821E+03  0.7818608E-02  0.1168500E+00
          2   -1    0    0  502    0  0.00000000000E+00  0.00000000000E+00  0.13710854347E+04  0.13710854347E+04  0.00000000000E+00 0. -1.
         -2   -1    0    0    0  501 -0.00000000000E+00 -0.00000000000E+00 -0.24153415596E+02  0.24153415596E+02  0.00000000000E+00 0.  1.
          6    2    1    2  502    0 -0.54666096905E+02  0.25625956567E+02  0.54477616167E+03  0.57271861315E+03  0.16607369368E+03 0.  0.
         24    2    3    3    0    0 -0.43958158402E+02 -0.24663161471E+02  0.47022129047E+03  0.48203138054E+03  0.93303797304E+02 0.  0.
         -6    2    1    2    0  501  0.54666096905E+02 -0.25625956567E+02  0.80215585744E+03  0.82252023715E+03  0.17158219338E+03 0.  0.
        -24    2    5    5    0    0  0.46941778233E+02 -0.50858180781E+01  0.20931081507E+03  0.22925057109E+03  0.80718095578E+02 0.  0.
          5    1    3    3  502    0 -0.10707938503E+02  0.50289118038E+02  0.74554871201E+02  0.90687232618E+02  0.47000000000E+01 0. -1.
        -11    1    4    4    0    0 -0.47594629963E+02  0.26423020641E+02  0.22144706536E+03  0.22803996925E+03  0.00000000000E+00 0.  1.
         12    1    4    4    0    0  0.36364715616E+01 -0.51086182112E+02  0.24877422511E+03  0.25399141128E+03  0.00000000000E+00 0. -1.
         -5    1    5    5    0  501  0.77243186712E+01 -0.20540138489E+02  0.59284504238E+03  0.59326966605E+03  0.47000000000E+01 0.  1.
         11    1    6    6    0    0  0.14447195028E+02 -0.41147947923E+02  0.11867165480E+03  0.12643115405E+03  0.00000000000E+00 0. -1.
        -12    1    6    6    0    0  0.32494583205E+02  0.36062129844E+02  0.90639160270E+02  0.10281941704E+03  0.00000000000E+00 0.  1.
</event>
<event>
12    1  0.2614920E-002  0.2728284E+03  0.7818608E-02  0.1099672E+00
          2   -1    0    0  502    0  0.00000000000E+00  0.00000000000E+00  0.23546143839E+03  0.23546143839E+03  0.00000000000E+00 0. -1.
         -2   -1    0    0    0  501 -0.00000000000E+00 -0.00000000000E+00 -0.31666015213E+03  0.31666015213E+03  0.00000000000E+00 0.  1.
          6    2    1    2  502    0  0.21005890255E+03  0.26388896466E+02 -0.29233522508E+02  0.27424031294E+03  0.17184886967E+03 0.  0.
         24    2    3    3    0    0  0.13910793652E+03  0.78662253115E+02 -0.46628365615E+02  0.18428913750E+03  0.79053865519E+02 0.  0.
         -6    2    1    2    0  501 -0.21005890255E+03 -0.26388896466E+02 -0.51965191230E+02  0.27788127758E+03  0.17232674468E+03 0.  0.
        -24    2    5    5    0    0 -0.89089335015E+02 -0.71028615388E+02 -0.52394605961E+02  0.14885176478E+03  0.80185281238E+02 0.  0.
          5    1    3    3  502    0  0.70950966034E+02 -0.52273356649E+02  0.17394843107E+02  0.89951175441E+02  0.47000000000E+01 0. -1.
        -11    1    4    4    0    0  0.32260496632E+02 -0.50870271220E+01 -0.35251398948E+02  0.48054954122E+02  0.00000000000E+00 0.  1.
         12    1    4    4    0    0  0.10684743989E+03  0.83749280237E+02 -0.11376966667E+02  0.13623418338E+03  0.00000000000E+00 0. -1.
         -5    1    5    5    0  501 -0.12096956754E+03  0.44639718922E+02  0.42941473109E+00  0.12902951280E+03  0.47000000000E+01 0.  1.
         11    1    6    6    0    0 -0.53654691572E+02 -0.34657283485E+02  0.13875223613E+02  0.65364172576E+02  0.00000000000E+00 0. -1.
        -12    1    6    6    0    0 -0.35434643443E+02 -0.36371331903E+02 -0.66269829574E+02  0.83487592205E+02  0.00000000000E+00 0.  1.
</event>
<event>
12    1  0.2614920E-002  0.2425964E+03  0.7818608E-02  0.1118075E+00
         -2   -1    0    0    0  501 -0.00000000000E+00  0.00000000000E+00  0.45995844937E+02  0.45995844937E+02  0.00000000000E+00 0. -1.
          2   -1    0    0  502    0  0.00000000000E+00 -0.00000000000E+00 -0.12962942152E+04  0.12962942152E+04  0.00000000000E+00 0.  1.
          6    2    1    2  502    0 -0.16974435268E+03  0.69398244713E+01 -0.54821943978E+03  0.59940126294E+03  0.17284679179E+03 0.  0.
         24    2    3    3    0    0 -0.16059981430E+03  0.50719756482E+01 -0.55734190453E+03  0.58552968031E+03  0.79981139566E+02 0.  0.
         -6    2    1    2    0  501  0.16974435268E+03 -0.69398244713E+01 -0.70207893045E+03  0.74288879716E+03  0.17351551497E+03 0.  0.
        -24    2    5    5    0    0  0.14329893395E+03 -0.34273908189E+02 -0.67621536056E+03  0.69665540499E+03  0.79701030010E+02 0.  0.
          5    1    3    3  502    0 -0.91445383856E+01  0.18678488231E+01  0.91224647538E+01  0.13871582631E+02  0.47000000000E+01 0. -1.
        -13    1    4    4    0    0 -0.15358632087E+03  0.23747029500E+02 -0.44321505814E+03  0.46967251051E+03  0.00000000000E+00 0.  1.
         14    1    4    4    0    0 -0.70134934333E+01 -0.18675053852E+02 -0.11412684639E+03  0.11585716980E+03  0.00000000000E+00 0. -1.
         -5    1    5    5    0  501  0.26445418733E+02  0.27334083718E+02 -0.25863569889E+02  0.46233392176E+02  0.47000000000E+01 0.  1.
         13    1    6    6    0    0  0.13210401018E+03 -0.35362030237E+02 -0.45385776436E+03  0.47401351559E+03  0.00000000000E+00 0. -1.
        -14    1    6    6    0    0  0.11194923772E+02  0.10881220481E+01 -0.22235759620E+03  0.22264188940E+03  0.00000000000E+00 0.  1.
</event>
<event>
12    1  0.2614920E-002  0.2323577E+03  0.7818608E-02  0.1124991E+00
         -2   -1    0    0    0  501 -0.00000000000E+00  0.00000000000E+00  0.72154688905E+02  0.72154688905E+02  0.00000000000E+00 0. -1.
          2   -1    0    0  502    0  0.00000000000E+00 -0.00000000000E+00 -0.78044765262E+03  0.78044765262E+03  0.00000000000E+00 0.  1.
          6    2    1    2  502    0  0.67731613626E+02 -0.14520902373E+03 -0.27200526179E+03  0.35965709698E+03  0.17231695479E+03 0.  0.
         24    2    3    3    0    0  0.83595368749E+02 -0.96125175175E+02 -0.10167593913E+03  0.18162605734E+03  0.80136091297E+02 0.  0.
         -6    2    1    2    0  501 -0.67731613626E+02  0.14520902373E+03 -0.43628770193E+03  0.49294524455E+03  0.16424013887E+03 0.  0.
        -24    2    5    5    0    0 -0.32016440292E+02  0.13888343151E+03 -0.22032119896E+03  0.27390367971E+03  0.78537475454E+02 0.  0.
          5    1    3    3  502    0 -0.15863755123E+02 -0.49083848556E+02 -0.17032932266E+03  0.17803103964E+03  0.47000000000E+01 0. -1.
        -11    1    4    4    0    0 -0.11985050617E+02 -0.96922367317E+01  0.28790509355E+01  0.15680236779E+02  0.00000000000E+00 0.  1.
         12    1    4    4    0    0  0.95580419366E+02 -0.86432938444E+02 -0.10455499006E+03  0.16594582056E+03  0.00000000000E+00 0. -1.
         -5    1    5    5    0  501 -0.35715173334E+02  0.63255922181E+01 -0.21596650297E+03  0.21904156484E+03  0.47000000000E+01 0.  1.
         11    1    6    6    0    0 -0.57800695697E+02  0.83527333154E+02 -0.13317080777E+03  0.16748790956E+03  0.00000000000E+00 0. -1.
        -12    1    6    6    0    0  0.25784255405E+02  0.55356098359E+02 -0.87150391185E+02  0.10641577015E+03  0.00000000000E+00 0.  1.
</event>
<event>
12    1  0.2614920E-002  0.1893934E+03  0.7818608E-02  0.1159010E+00
         -2   -1    0    0    0  501 -0.00000000000E+00  0.00000000000E+00  0.67495780624E+02  0.67495780624E+02  0.00000000000E+00 0.  1.
          2   -1    0    0  502    0  0.00000000000E+00 -0.00000000000E+00 -0.56185598090E+03  0.56185598090E+03  0.00000000000E+00 0. -1.
          6    2    1    2  502    0 -0.63751236704E+02 -0.41253918133E+02 -0.17574950944E+03  0.25941929502E+03  0.17505534729E+03 0.  0.
         24    2    3    3    0    0 -0.97180779674E+02 -0.44253035861E+02 -0.18117819397E+03  0.22509598419E+03  0.80251037433E+02 0.  0.
         -6    2    1    2    0  501  0.63751236704E+02  0.41253918133E+02 -0.31861069084E+03  0.36993246651E+03  0.17196264571E+03 0.  0.
        -24    2    5    5    0    0  0.14352097644E+02  0.70586507929E+02 -0.28183529598E+03  0.30155706574E+03  0.79480136047E+02 0.  0.
          5    1    3    3  502    0  0.33429542970E+02  0.29991177279E+01  0.54286845253E+01  0.34323310825E+02  0.47000000000E+01 0. -1.
        -13    1    4    4    0    0 -0.48778318991E+02 -0.30006193411E+02 -0.16077680575E+03  0.17067184101E+03  0.00000000000E+00 0.  1.
         14    1    4    4    0    0 -0.48402460684E+02 -0.14246842450E+02 -0.20401388220E+02  0.54424143184E+02  0.00000000000E+00 0. -1.
         -5    1    5    5    0  501  0.49399139061E+02 -0.29332589796E+02 -0.36775394854E+02  0.68375400772E+02  0.47000000000E+01 0.  1.
         11    1    6    6    0    0  0.41714678501E+02  0.66573943361E+02 -0.18866422862E+03  0.20436828398E+03  0.00000000000E+00 0. -1.
        -12    1    6    6    0    0 -0.27362580857E+02  0.40125645684E+01 -0.93171067362E+02  0.97188781755E+02  0.00000000000E+00 0.  1.
</event>
<event>
12    1  0.2614920E-002  0.2434582E+03  0.7818608E-02  0.1117510E+00
         -2   -1    0    0    0  501 -0.00000000000E+00  0.00000000000E+00  0.52632427185E+02  0.52632427185E+02  0.00000000000E+00 0.  1.
          2   -1    0    0  502    0  0.00000000000E+00 -0.00000000000E+00 -0.17005418955E+04  0.17005418955E+04  0.00000000000E+00 0. -1.
          6    2    1    2  502    0 -0.75292250666E+02  0.15534726245E+03 -0.13322556255E+04  0.13542256969E+04  0.17094002331E+03 0.  0.
         24    2    3    3    0    0 -0.10407900419E+03  0.61988844441E+02 -0.74701709012E+03  0.76087023459E+03  0.78828452980E+02 0.  0.
         -6    2    1    2    0  501  0.75292250666E+02 -0.15534726245E+03 -0.31565384282E+03  0.39894862576E+03  0.17239768720E+03 0.  0.
        -24    2    5    5    0    0 -0.20290287439E+02 -0.10524922610E+03 -0.15726577187E+03  0.20723345721E+03  0.82000533071E+02 0.  0.
          5    1    3    3  502    0  0.28786753526E+02  0.93358418011E+02 -0.58523853535E+03  0.59335546231E+03  0.47000000000E+01 0. -1.
        -13    1    4    4    0    0 -0.69777943153E+02  0.83688503480E+01 -0.53222778984E+03  0.53684766860E+03  0.00000000000E+00 0.  1.
         14    1    4    4    0    0 -0.34301061039E+02  0.53619994093E+02 -0.21478930029E+03  0.22402256599E+03  0.00000000000E+00 0. -1.
         -5    1    5    5    0  501  0.95582538105E+02 -0.50098036351E+02 -0.15838807094E+03  0.19171516855E+03  0.47000000000E+01 0.  1.
         13    1    6    6    0    0 -0.23387412772E+02 -0.88872373253E+02 -0.16499497601E+03  0.18886135632E+03  0.00000000000E+00 0. -1.
        -14    1    6    6    0    0  0.30971253333E+01 -0.16376852848E+02  0.77292041314E+01  0.18372100888E+02  0.00000000000E+00 0.  1.
</event>
<event>
12    1  0.2614920E-002  0.1811918E+03  0.7818608E-02  0.1166655E+00
         -1   -1    0    0    0  501 -0.00000000000E+00  0.00000000000E+00  0.66681480832E+02  0.66681480832E+02  0.00000000000E+00 0. -1.
          1   -1    0    0  502    0  0.00000000000E+00 -0.00000000000E+00 -0.49742191129E+03  0.49742191129E+03  0.00000000000E+00 0.  1.
          6    2    1    2  502    0 -0.11823840864E+02 -0.55515985285E+02 -0.18701413691E+03  0.26047091528E+03  0.17218879891E+03 0.  0.
         24    2    3    3    0    0  0.39677436351E+02  0.14160291054E+02 -0.11470699976E+03  0.14752147030E+03  0.82644271474E+02 0.  0.
         -6    2    1    2    0  501  0.11823840864E+02  0.55515985285E+02 -0.24372629356E+03  0.30363247684E+03  0.17195449104E+03 0.  0.
        -24    2    5    5    0    0  0.63931026867E+02  0.60012212019E+02 -0.12553848671E+03  0.17430412506E+03  0.83266887656E+02 0.  0.
          5    1    3    3  502    0 -0.51501277215E+02 -0.69676276339E+02 -0.72307137144E+02  0.11294944498E+03  0.47000000000E+01 0. -1.
        -13    1    4    4    0    0 -0.14470160397E+02 -0.17611342783E+02 -0.88568798975E+01  0.24453818884E+02  0.00000000000E+00 0.  1.
         14    1    4    4    0    0  0.54147596748E+02  0.31771633836E+02 -0.10585011986E+03  0.12306765142E+03  0.00000000000E+00 0. -1.
         -5    1    5    5    0  501 -0.52107186003E+02 -0.44962267337E+01 -0.11818780685E+03  0.12932835178E+03  0.47000000000E+01 0.  1.
         13    1    6    6    0    0  0.52109285946E+02  0.12145476088E+02 -0.18773000127E+02  0.56703754770E+02  0.00000000000E+00 0. -1.
        -14    1    6    6    0    0  0.11821740921E+02  0.47866735931E+02 -0.10676548658E+03  0.11760037029E+03  0.00000000000E+00 0.  1.
</event>
<event>
12    1  0.2614920E-002  0.2625078E+03  0.7818608E-02  0.1105646E+00
          2   -1    0    0  502    0  0.00000000000E+00  0.00000000000E+00  0.17557541438E+04  0.17557541438E+04  0.00000000000E+00 0. -1.
         -2   -1    0    0    0  501 -0.00000000000E+00 -0.00000000000E+00 -0.44475596487E+02  0.44475596487E+02  0.00000000000E+00 0.  1.
          6    2    1    2  502    0 -0.77064967176E+01 -0.19757328772E+03  0.54767873856E+03  0.60743433325E+03  0.17300252721E+03 0.  0.
         24    2    3    3    0    0  0.22771390324E+02 -0.70398001599E+02  0.37613183731E+03  0.39167315896E+03  0.80363484041E+02 0.  0.
         -6    2    1    2    0  501  0.77064967176E+01  0.19757328772E+03  0.11635998087E+04  0.11927954070E+04  0.17234202627E+03 0.  0.
        -24    2    5    5    0    0 -0.13419385103E+02  0.31679760487E+02  0.26600144381E+03  0.27973906705E+03  0.79457475430E+02 0.  0.
          5    1    3    3  502    0 -0.30477887041E+02 -0.12717528612E+03  0.17154690126E+03  0.21576117429E+03  0.47000000000E+01 0. -1.
        -13    1    4    4    0    0  0.14383798462E+02 -0.58723701008E+02  0.11307392135E+03  0.12822276868E+03  0.00000000000E+00 0.  1.
         14    1    4    4    0    0  0.83875918613E+01 -0.11674300590E+02  0.26305791595E+03  0.26345039028E+03  0.00000000000E+00 0. -1.
         -5    1    5    5    0  501  0.21125881821E+02  0.16589352723E+03  0.89759836490E+03  0.91305633996E+03  0.47000000000E+01 0.  1.
         13    1    6    6    0    0  0.16515282792E+02 -0.20373584889E+02  0.92170706002E+02  0.95829413918E+02  0.00000000000E+00 0. -1.
        -14    1    6    6    0    0 -0.29934667895E+02  0.52053345377E+02  0.17383073781E+03  0.18390965313E+03  0.00000000000E+00 0.  1.
</event>
<event>
12    1  0.2614920E-002  0.1842090E+03  0.7818608E-02  0.1163791E+00
          2   -1    0    0  502    0  0.00000000000E+00  0.00000000000E+00  0.23996349023E+04  0.23996349023E+04  0.00000000000E+00 0. -1.
         -2   -1    0    0    0  501 -0.00000000000E+00 -0.00000000000E+00 -0.14626504419E+02  0.14626504419E+02  0.00000000000E+00 0.  1.
          6    2    1    2  502    0  0.79850586545E+01 -0.66069974815E+02  0.14081237015E+04  0.14200330121E+04  0.17103331270E+03 0.  0.
         24    2    3    3    0    0  0.32627099597E+02 -0.53481340778E+02  0.45283054015E+03  0.46432760876E+03  0.81362452803E+02 0.  0.
         -6    2    1    2    0  501 -0.79850586545E+01  0.66069974815E+02  0.97688469642E+03  0.99422839464E+03  0.17250329813E+03 0.  0.
        -24    2    5    5    0    0 -0.48959952576E+02  0.24640358180E+02  0.84042317735E+03  0.84577236999E+03  0.77560045163E+02 0.  0.
          5    1    3    3  502    0 -0.24642040942E+02 -0.12588634037E+02  0.95529316132E+03  0.95570540333E+03  0.47000000000E+01 0. -1.
        -11    1    4    4    0    0  0.31947463898E+02  0.14163488641E+02  0.14503686987E+03  0.14918759493E+03  0.00000000000E+00 0.  1.
         12    1    4    4    0    0  0.67963569912E+00 -0.67644829419E+02  0.30779367028E+03  0.31514001383E+03  0.00000000000E+00 0. -1.
         -5    1    5    5    0  501  0.40974893921E+02  0.41429616635E+02  0.13646151907E+03  0.14845602464E+03  0.47000000000E+01 0.  1.
         11    1    6    6    0    0  0.52777571491E+01 -0.14968609730E+02  0.39457757123E+03  0.39489666207E+03  0.00000000000E+00 0. -1.
        -12    1    6    6    0    0 -0.54237709725E+02  0.39608967910E+02  0.44584560613E+03  0.45087570793E+03  0.00000000000E+00 0.  1.
</event>
<event>
12    1  0.2614920E-002  0.2191876E+03  0.7818608E-02  0.1134490E+00
          1   -1    0    0  502    0  0.00000000000E+00  0.00000000000E+00  0.78494467081E+02  0.78494467081E+02  0.00000000000E+00 0.  1.
         -1   -1    0    0    0  501 -0.00000000000E+00 -0.00000000000E+00 -0.72246731092E+03  0.72246731092E+03  0.00000000000E+00 0. -1.
          6    2    1    2  502    0 -0.38488595579E+02 -0.13201626256E+03 -0.47734689219E+03  0.52486822695E+03  0.16946071700E+03 0.  0.
         24    2    3    3    0    0  0.12859170445E+02 -0.14425418541E+03 -0.36346664878E+03  0.39926106286E+03  0.79540953402E+02 0.  0.
         -6    2    1    2    0  501  0.38488595579E+02  0.13201626256E+03 -0.16662595165E+03  0.27609355106E+03  0.17191211592E+03 0.  0.
        -24    2    5    5    0    0  0.84468096148E+02  0.89713262417E+02 -0.65684775919E+02  0.15728753584E+03  0.72398552622E+02 0.  0.
          5    1    3    3  502    0 -0.51347766024E+02  0.12237922845E+02 -0.11388024341E+03  0.12560716409E+03  0.47000000000E+01 0. -1.
        -13    1    4    4    0    0 -0.24485540255E+02 -0.10309579226E+03 -0.19594828116E+03  0.22276447866E+03  0.00000000000E+00 0.  1.
         14    1    4    4    0    0  0.37344710701E+02 -0.41158393149E+02 -0.16751836762E+03  0.17649658420E+03  0.00000000000E+00 0. -1.
         -5    1    5    5    0  501 -0.45979500569E+02  0.42303000146E+02 -0.10094117573E+03  0.11880601522E+03  0.47000000000E+01 0.  1.
         11    1    6    6    0    0 -0.36102487761E+01  0.35732876909E+02 -0.33429165032E+02  0.49065073761E+02  0.00000000000E+00 0. -1.
        -12    1    6    6    0    0  0.88078344924E+02  0.53980385508E+02 -0.32255610888E+02  0.10822246208E+03  0.00000000000E+00 0.  1.
</event>
<event>
12    1  0.2614920E-002  0.2523590E+03  0.7818608E-02  0.1111823E+00
          2   -1    0    0  502    0  0.00000000000E+00  0.00000000000E+00  0.13350740620E+04  0.13350740620E+04  0.00000000000E+00 0. -1.
         -2   -1    0    0    0  501 -0.00000000000E+00 -0.00000000000E+00 -0.55684205854E+02  0.55684205854E+02  0.00000000000E+00 0.  1.
          6    2    1    2  502    0 -0.32100910220E+02 -0.18176667658E+03  0.37705424726E+03  0.45387796203E+03  0.17252740621E+03 0.  0.
         24    2    3    3    0    0 -0.72296752983E+02 -0.76986026449E+02  0.26093302084E+03  0.29232017163E+03  0.78812261831E+02 0.  0.
         -6    2    1    2    0  501  0.32100910220E+02  0.18176667658E+03  0.90233560886E+03  0.93688030579E+03  0.17165536172E+03 0.  0.
        -24    2    5    5    0    0  0.60576113434E+02  0.14554955099E+03  0.47067027629E+03  0.50273797115E+03  0.79754757479E+02 0.  0.
          5    1    3    3  502    0  0.40195842763E+02 -0.10478065013E+03  0.11612122642E+03  0.16155779041E+03  0.47000000000E+01 0. -1.
        -11    1    4    4    0    0 -0.54591697001E+02 -0.87797856446E+02  0.24575226437E+03  0.26661375137E+03  0.00000000000E+00 0.  1.
         12    1    4    4    0    0 -0.17705055983E+02  0.10811829998E+02  0.15180756469E+02  0.25706420253E+02  0.00000000000E+00 0. -1.
         -5    1    5    5    0  501 -0.28475203214E+02  0.36217125590E+02  0.43166533257E+03  0.43414233464E+03  0.47000000000E+01 0.  1.
         13    1    6    6    0    0 -0.58140881345E+01 -0.56996364610E+00  0.82364235364E+02  0.82571155657E+02  0.00000000000E+00 0. -1.
        -14    1    6    6    0    0  0.66390201568E+02  0.14611951463E+03  0.38830604093E+03  0.42016681549E+03  0.00000000000E+00 0.  1.
</event>
<event>
12    1  0.2614920E-002  0.1774691E+03  0.7818608E-02  0.1170275E+00
          2   -1    0    0  502    0  0.00000000000E+00  0.00000000000E+00  0.90276465007E+03  0.90276465007E+03  0.00000000000E+00 0. -1.
         -2   -1    0    0    0  501 -0.00000000000E+00 -0.00000000000E+00 -0.37423517718E+02  0.37423517718E+02  0.00000000000E+00 0.  1.
          6    2    1    2  502    0 -0.43729577096E+02  0.31620566347E+01  0.55518974897E+03  0.58288423471E+03  0.17203516850E+03 0.  0.
         24    2    3    3    0    0 -0.87887621269E-01  0.22828350548E+02  0.67478643013E+02  0.92807125423E+02  0.59486586331E+02 0.  0.
         -6    2    1    2    0  501  0.43729577096E+02 -0.31620566347E+01  0.31015138338E+03  0.35730393307E+03  0.17190097574E+03 0.  0.
        -24    2    5    5    0    0  0.27859559371E+02 -0.44832106264E+02  0.89732308807E+02  0.13237081205E+03  0.81756173088E+02 0.  0.
          5    1    3    3  502    0 -0.43641689475E+02 -0.19666293914E+02  0.48771110596E+03  0.49007710929E+03  0.47000000000E+01 0. -1.
        -11    1    4    4    0    0 -0.20622800687E+02 -0.40052612144E+01  0.47221992578E+01  0.21532328982E+02  0.00000000000E+00 0.  1.
         12    1    4    4    0    0  0.20534913066E+02  0.26833611763E+02  0.62756443755E+02  0.71274796440E+02  0.00000000000E+00 0. -1.
         -5    1    5    5    0  501  0.15870017725E+02  0.41670049629E+02  0.22041907457E+03  0.22493312102E+03  0.47000000000E+01 0.  1.
         13    1    6    6    0    0  0.23426631459E+02 -0.35459984288E+02  0.10536458512E+03  0.11361299813E+03  0.00000000000E+00 0. -1.
        -14    1    6    6    0    0  0.44329279126E+01 -0.93721219756E+01 -0.15632276312E+02  0.18757813916E+02  0.00000000000E+00 0.  1.
</event>
<event>
12    1  0.2614920E-002  0.2211192E+03  0.7818608E-02  0.1133051E+00
         -1   -1    0    0    0  501 -0.00000000000E+00  0.00000000000E+00  0.17440854116E+03  0.17440854116E+03  0.00000000000E+00 0.  1.
          1   -1    0    0  502    0  0.00000000000E+00 -0.00000000000E+00 -0.71285051857E+03  0.71285051857E+03  0.00000000000E+00 0. -1.
          6    2    1    2  502    0  0.62025140368E+02 -0.12419994343E+03 -0.61522632408E+03  0.65407657425E+03  0.17332048682E+03 0.  0.
         24    2    3    3    0    0  0.60365008497E+02 -0.37620819140E+01 -0.27386384631E+03  0.29205659447E+03  0.81471225283E+02 0.  0.
         -6    2    1    2    0  501 -0.62025140368E+02  0.12419994343E+03  0.76784346672E+02  0.23318248548E+03  0.17089614290E+03 0.  0.
        -24    2    5    5    0    0  0.18552103158E+02  0.18337645902E+02  0.14087786614E+02  0.86034713311E+02  0.80765440468E+02 0.  0.
          5    1    3    3  502    0  0.16601318712E+01 -0.12043786152E+03 -0.34136247778E+03  0.36201997978E+03  0.47000000000E+01 0. -1.
        -13    1    4    4    0    0 -0.18847940574E+02  0.95231590774E+01 -0.59993341070E+02  0.63601386741E+02  0.00000000000E+00 0.  1.
         14    1    4    4    0    0  0.79212949071E+02 -0.13285240991E+02 -0.21387050524E+03  0.22845520773E+03  0.00000000000E+00 0. -1.
         -5    1    5    5    0  501 -0.80577243526E+02  0.10586229753E+03  0.62696560058E+02  0.14714777217E+03  0.47000000000E+01 0.  1.
         13    1    6    6    0    0 -0.29305140413E+02  0.21978667015E+02  0.93508642924E+01  0.37805974679E+02  0.00000000000E+00 0. -1.
        -14    1    6    6    0    0  0.47857243571E+02 -0.36410211128E+01  0.47369223217E+01  0.48228738632E+02  0.00000000000E+00 0.  1.
</event>
<event>
12    1  0.2614920E-002  0.2269724E+03  0.7818608E-02  0.1128789E+00
         -1   -1    0    0    0  501 -0.00000000000E+00  0.00000000000E+00  0.30184461113E+03  0.30184461113E+03  0.00000000000E+00 0.  1.
          1   -1    0    0  502    0  0.00000000000E+00 -0.00000000000E+00 -0.17510347402E+03  0.17510347402E+03  0.00000000000E+00 0. -1.
          6    2    1    2  502    0  0.15183065171E+03 -0.17055065302E+02  0.10061724147E+03  0.24621926349E+03  0.16479282260E+03 0.  0.
         24    2    3    3    0    0  0.16636945523E+03  0.85280508476E+01  0.11107407668E+03  0.21463907916E+03  0.77336669868E+02 0.  0.
         -6    2    1    2    0  501 -0.15183065171E+03  0.17055065302E+02  0.26123895643E+02  0.23072882166E+03  0.17090906697E+03 0.  0.
        -24    2    5    5    0    0 -0.90230835178E+02  0.10699284903E+02 -0.51184755427E+02  0.13156405538E+03  0.80206877299E+02 0.  0.
          5    1    3    3  502    0 -0.14538803524E+02 -0.25583116149E+02 -0.10456835210E+02  0.31580184332E+02  0.47000000000E+01 0. -1.
        -13    1    4    4    0    0  0.16241450110E+03 -0.11480537988E+02  0.93765560869E+02  0.18788893880E+03  0.00000000000E+00 0.  1.
         14    1    4    4    0    0  0.39549541316E+01  0.20008588836E+02  0.17308515809E+02  0.26750140352E+02  0.00000000000E+00 0. -1.
         -5    1    5    5    0  501 -0.61599816527E+02  0.63557803985E+01  0.77308651070E+02  0.99164766278E+02  0.47000000000E+01 0.  1.
         11    1    6    6    0    0 -0.23608567883E+02 -0.24120708729E+02 -0.44841189754E+02  0.56124017725E+02  0.00000000000E+00 0. -1.
        -12    1    6    6    0    0 -0.66622267296E+02  0.34819993633E+02 -0.63435656730E+01  0.75440037657E+02  0.00000000000E+00 0.  1.
</event>
<event>
12    1  0.2614920E-002  0.2044111E+03  0.7818608E-02  0.1146070E+00
          2   -1    0    0  502    0  0.00000000000E+00  0.00000000000E+00  0.36233747967E+03  0.36233747967E+03  0.00000000000E+00 0.  1.
         -2   -1    0    0    0  501 -0.00000000000E+00 -0.00000000000E+00 -0.11836944983E+03  0.11836944983E+03  0.00000000000E+00 0. -1.
          6    2    1    2  502    0  0.36527058732E+02 -0.10386003700E+03  0.83611186456E+02  0.22119756486E+03  0.17267425660E+03 0.  0.
         24    2    3    3    0    0  0.55467909743E+02 -0.12193710958E+03  0.10372792380E+03  0.18784626036E+03  0.81125752068E+02 0.  0.
         -6    2    1    2    0  501 -0.36527058732E+02  0.10386003700E+03  0.16035684339E+03  0.25950936464E+03  0.17178375887E+03 0.  0.
        -24    2    5    5    0    0 -0.63090269172E+02  0.63477816445E+02  0.17227593473E+03  0.20950453864E+03  0.78761277142E+02 0.  0.
          5    1    3    3  502    0 -0.18940851011E+02  0.18077072584E+02 -0.20116737349E+02  0.33351304499E+02  0.47000000000E+01 0. -1.
        -13    1    4    4    0    0  0.20026954078E+02 -0.66248172287E+02  0.10015295575E+03  0.12173953247E+03  0.00000000000E+00 0.  1.
         14    1    4    4    0    0  0.35440955665E+02 -0.55688937295E+02  0.35749680594E+01  0.66106727889E+02  0.00000000000E+00 0. -1.
         -5    1    5    5    0  501  0.26563210440E+02  0.40382220553E+02 -0.11919091342E+02  0.50004826008E+02  0.47000000000E+01 0.  1.
         11    1    6    6    0    0 -0.29530735427E+02 -0.11903810412E+01  0.92980710918E+01  0.30982825370E+02  0.00000000000E+00 0. -1.
        -12    1    6    6    0    0 -0.33559533746E+02  0.64668197487E+02  0.16297786364E+03  0.17852171327E+03  0.00000000000E+00 0.  1.
</event>
<event>
12    1  0.2614920E-002  0.2809369E+03  0.7818608E-02  0.1095178E+00
         -2   -1    0    0    0  501 -0.00000000000E+00  0.00000000000E+00  0.52842288830E+02  0.52842288830E+02  0.00000000000E+00 0. -1.
          2   -1    0    0  502    0  0.00000000000E+00 -0.00000000000E+00 -0.21165100675E+04  0.21165100675E+04  0.00000000000E+00 0.  1.
          6    2    1    2  502    0  0.19947302226E+03 -0.90501137732E+02 -0.16305019706E+04  0.16552198274E+04  0.18230759237E+03 0.  0.
         24    2    3    3    0    0  0.19918481907E+03 -0.38021436667E+02 -0.10516270937E+04  0.10739518898E+04  0.79579492950E+02 0.  0.
         -6    2    1    2    0  501 -0.19947302226E+03  0.90501137732E+02 -0.43316580804E+03  0.51413252893E+03  0.16946886887E+03 0.  0.
        -24    2    5    5    0    0 -0.19602512408E+03  0.31414436105E+02 -0.30668128610E+03  0.37440582926E+03  0.81936546630E+02 0.  0.
          5    1    3    3  502    0  0.28820318337E+00 -0.52479701065E+02 -0.57887487697E+03  0.58126793759E+03  0.47000000000E+01 0. -1.
        -13    1    4    4    0    0  0.71869785651E+02 -0.52284020132E+02 -0.47809871977E+03  0.48628928705E+03  0.00000000000E+00 0.  1.
         14    1    4    4    0    0  0.12731503342E+03  0.14262583466E+02 -0.57352837388E+03  0.58766260275E+03  0.00000000000E+00 0. -1.
         -5    1    5    5    0  501 -0.34478981707E+01  0.59086701627E+02 -0.12648452193E+03  0.13972669967E+03  0.47000000000E+01 0.  1.
         13    1    6    6    0    0 -0.11180889348E+03 -0.18202402516E+02 -0.12952848866E+03  0.17207610378E+03  0.00000000000E+00 0. -1.
        -14    1    6    6    0    0 -0.84216230605E+02  0.49616838621E+02 -0.17715279744E+03  0.20232972548E+03  0.00000000000E+00 0.  1.
</event>
<event>
12    1  0.2614920E-002  0.1844272E+03  0.7818608E-02  0.1163586E+00
         -2   -1    0    0    0  501 -0.00000000000E+00  0.00000000000E+00  0.70041807251E+03  0.70041807251E+03  0.00000000000E+00 0. -1.
          2   -1    0    0  502    0  0.00000000000E+00 -0.00000000000E+00 -0.55030999268E+02  0.55030999268E+02  0.00000000000E+00 0.  1.
          6    2    1    2  502    0  0.48029748935E+02  0.21790249894E+02  0.45413160682E+03  0.49063086059E+03  0.17804901934E+03 0.  0.
         24    2    3    3    0    0  0.19856349733E+02 -0.53340732157E+02  0.31212626439E+03  0.32745607037E+03  0.81025704381E+02 0.  0.
         -6    2    1    2    0  501 -0.48029748935E+02 -0.21790249894E+02  0.19125546643E+03  0.26481821118E+03  0.17540912109E+03 0.  0.
        -24    2    5    5    0    0  0.19664763853E+02 -0.43929166797E+02  0.16379355693E+03  0.18833994514E+03  0.79543265033E+02 0.  0.
          5    1    3    3  502    0  0.28173399202E+02  0.75130982052E+02  0.14200534243E+03  0.16317479022E+03  0.47000000000E+01 0. -1.
        -13    1    4    4    0    0 -0.21851408216E+02  0.86042131570E+01  0.57679511019E+02  0.62277142809E+02  0.00000000000E+00 0.  1.
         14    1    4    4    0    0  0.41707757949E+02 -0.61944945315E+02  0.25444675337E+03  0.26517892756E+03  0.00000000000E+00 0. -1.
         -5    1    5    5    0  501 -0.67694512788E+02  0.22138916903E+02  0.27461909497E+02  0.76478266040E+02  0.47000000000E+01 0.  1.
         13    1    6    6    0    0  0.20035863767E+01  0.10107085892E+02  0.10865810907E+03  0.10914555516E+03  0.00000000000E+00 0. -1.
        -14    1    6    6    0    0  0.17661177477E+02 -0.54036252690E+02  0.55135447854E+02  0.79194389983E+02  0.00000000000E+00 0.  1.
</event>
<event>
12    1  0.2614920E-002  0.2357263E+03  0.7818608E-02  0.1122673E+00
         -2   -1    0    0    0  501 -0.00000000000E+00  0.00000000000E+00  0.39311515408E+02  0.39311515408E+02  0.00000000000E+00 0. -1.
          2   -1    0    0  502    0  0.00000000000E+00 -0.00000000000E+00 -0.15878866245E+04  0.15878866245E+04  0.00000000000E+00 0.  1.
          6    2    1    2  502    0  0.11628684052E+03 -0.11025693746E+03 -0.50700195059E+03  0.55945830463E+03  0.17396377548E+03 0.  0.
         24    2    3    3    0    0  0.42160546912E+02 -0.84379068335E+02 -0.14734218317E+03  0.19129854337E+03  0.77382652212E+02 0.  0.
         -6    2    1    2    0  501 -0.11628684052E+03  0.11025693746E+03 -0.10415731585E+04  0.10677398352E+04  0.17179781660E+03 0.  0.
        -24    2    5    5    0    0 -0.75723213204E+02  0.71827730712E+02 -0.35296571718E+03  0.37685307898E+03  0.80871612515E+02 0.  0.
          5    1    3    3  502    0  0.74126293608E+02 -0.25877869128E+02 -0.35965976742E+03  0.36815976126E+03  0.47000000000E+01 0. -1.
        -13    1    4    4    0    0  0.15660036909E+02 -0.14839662458E+01 -0.79254727990E+02  0.80800685768E+02  0.00000000000E+00 0.  1.
         14    1    4    4    0    0  0.26500510003E+02 -0.82895102089E+02 -0.68087455184E+02  0.11049785760E+03  0.00000000000E+00 0. -1.
         -5    1    5    5    0  501 -0.40563627315E+02  0.38429206750E+02 -0.68860744128E+03  0.69088675626E+03  0.47000000000E+01 0.  1.
         11    1    6    6    0    0 -0.55341668686E+02  0.86552829735E+02 -0.23896276723E+03  0.26011016272E+03  0.00000000000E+00 0. -1.
        -12    1    6    6    0    0 -0.20381544518E+02 -0.14725099023E+02 -0.11400294996E+03  0.11674291626E+03  0.00000000000E+00 0.  1.
</event>
<event>
12    1  0.2614920E-002  0.1724115E+03  0.7818608E-02  0.1175356E+00
         -1   -1    0    0    0  501 -0.00000000000E+00  0.00000000000E+00  0.33563796856E+02  0.33563796856E+02  0.00000000000E+00 0. -1.
          1   -1    0    0  502    0  0.00000000000E+00 -0.00000000000E+00 -0.91883578920E+03  0.91883578920E+03  0.00000000000E+00 0.  1.
          6    2    1    2  502    0 -0.19531098787E+01 -0.44656573857E+01 -0.35278721225E+03  0.39277885584E+03  0.17260549162E+03 0.  0.
         24    2    3    3    0    0  0.32472458744E+02  0.55974825861E+02 -0.21571457595E+03  0.23899599135E+03  0.79991648915E+02 0.  0.
         -6    2    1    2    0  501  0.19531098787E+01  0.44656573857E+01 -0.53248478009E+03  0.55962073021E+03  0.17208010902E+03 0.  0.
        -24    2    5    5    0    0  0.60694078930E+02  0.39231490245E+01 -0.22103420664E+03  0.24264384547E+03  0.79503162964E+02 0.  0.
          5    1    3    3  502    0 -0.34425568623E+02 -0.60440483246E+02 -0.13707263630E+03  0.15378286450E+03  0.47000000000E+01 0. -1.
        -13    1    4    4    0    0 -0.10378469546E+02  0.25819495123E+02 -0.16043033382E+03  0.16282583016E+03  0.00000000000E+00 0.  1.
         14    1    4    4    0    0  0.42850928290E+02  0.30155330738E+02 -0.55284242130E+02  0.76170161186E+02  0.00000000000E+00 0. -1.
         -5    1    5    5    0  501 -0.58740969052E+02  0.54250836120E+00 -0.31145057345E+03  0.31697688475E+03  0.47000000000E+01 0.  1.
         11    1    6    6    0    0 -0.14025892811E+02  0.73077763138E+01 -0.99148763464E+01  0.18666387887E+02  0.00000000000E+00 0. -1.
        -12    1    6    6    0    0  0.74719971741E+02 -0.33846272893E+01 -0.21111933030E+03  0.22397745758E+03  0.00000000000E+00 0.  1.
</event>
<event>
12    1  0.2614920E-002  0.1776935E+03  0.7818608E-02  0.1170054E+00
          1   -1    0    0  502    0  0.00000000000E+00  0.00000000000E+00  0.61156447752E+03  0.61156447752E+03  0.00000000000E+00 0.  1.
         -1   -1    0    0    0  501 -0.00000000000E+00 -0.00000000000E+00 -0.60855432509E+02  0.60855432509E+02  0.00000000000E+00 0. -1.
          6    2    1    2  502    0 -0.33515249075E+02 -0.29083873808E+02  0.40602634171E+03  0.44313585037E+03  0.17188033070E+03 0.  0.
         24    2    3    3    0    0 -0.18383984646E+02  0.48534780260E+02  0.17340735248E+03  0.19739758559E+03  0.78753419723E+02 0.  0.
         -6    2    1    2    0  501  0.33515249075E+02  0.29083873808E+02  0.14468270330E+03  0.22928405966E+03  0.17224677571E+03 0.  0.
        -24    2    5    5    0    0  0.23470682974E+02  0.71036288939E+02  0.14972287742E+03  0.18559891574E+03  0.80205923700E+02 0.  0.
          5    1    3    3  502    0 -0.15131264429E+02 -0.77618654068E+02  0.23261898924E+03  0.24573826478E+03  0.47000000000E+01 0. -1.
        -13    1    4    4    0    0  0.12257525893E+02 -0.41652790024E+01  0.10489462197E+03  0.10569048305E+03  0.00000000000E+00 0.  1.
         14    1    4    4    0    0 -0.30641510539E+02  0.52700059262E+02  0.68512730510E+02  0.91707102540E+02  0.00000000000E+00 0. -1.
         -5    1    5    5    0  501  0.10044566101E+02 -0.41952415130E+02 -0.50401741260E+01  0.43685143912E+02  0.47000000000E+01 0.  1.
         13    1    6    6    0    0 -0.29388762550E+02  0.17125577649E+02  0.41871845924E+02  0.53946605594E+02  0.00000000000E+00 0. -1.
        -14    1    6    6    0    0  0.52859445524E+02  0.53910711289E+02  0.10785103150E+03  0.13165231015E+03  0.00000000000E+00 0.  1.
</event>
<event>
12    1  0.2614920E-002  0.2464597E+03  0.7818608E-02  0.1115563E+00
         -2   -1    0    0    0  501 -0.00000000000E+00  0.00000000000E+00  0.10000307214E+03  0.10000307214E+03  0.00000000000E+00 0. -1.
          2   -1    0    0  502    0  0.00000000000E+00 -0.00000000000E+00 -0.63919103709E+03  0.63919103709E+03  0.00000000000E+00 0.  1.
          6    2    1    2  502    0 -0.15035825632E+03 -0.92348440121E+02 -0.18748298146E+03  0.30990005469E+03  0.17248865447E+03 0.  0.
         24    2    3    3    0    0 -0.17036025443E+03 -0.64039404323E+02 -0.11601505530E+03  0.23033099094E+03  0.80431403914E+02 0.  0.
         -6    2    1    2    0  501  0.15035825632E+03  0.92348440121E+02 -0.35170498349E+03  0.42929405454E+03  0.17164250702E+03 0.  0.
        -24    2    5    5    0    0  0.13441408642E+03  0.40209969216E+02 -0.33476128382E+03  0.37200692107E+03  0.81486464695E+02 0.  0.
          5    1    3    3  502    0  0.20001998108E+02 -0.28309035798E+02 -0.71467926161E+02  0.79569063749E+02  0.47000000000E+01 0. -1.
        -11    1    4    4    0    0 -0.17960269769E+02 -0.21590284475E+02 -0.53117429503E+02  0.60084715118E+02  0.00000000000E+00 0.  1.
         12    1    4    4    0    0 -0.15239998466E+03 -0.42449119848E+02 -0.62897625801E+02  0.17024627582E+03  0.00000000000E+00 0. -1.
         -5    1    5    5    0  501  0.15944169901E+02  0.52138470905E+02 -0.16943699666E+02  0.57287133464E+02  0.47000000000E+01 0.  1.
         11    1    6    6    0    0  0.52926367736E+02 -0.22706371169E+02 -0.95254276995E+02  0.11131108201E+03  0.00000000000E+00 0. -1.
        -12    1    6    6    0    0  0.81487718681E+02  0.62916340385E+02 -0.23950700683E+03  0.26069583906E+03  0.00000000000E+00 0.  1.
</event>
<event>
12    1  0.2614920E-002  0.1830608E+03  0.7818608E-02  0.1164873E+00
         -1   -1    0    0    0  501 -0.00000000000E+00  0.00000000000E+00  0.18294832396E+02  0.18294832396E+02  0.00000000000E+00 0. -1.
          1   -1    0    0  502    0  0.00000000000E+00 -0.00000000000E+00 -0.18528130330E+04  0.18528130330E+04  0.00000000000E+00 0.  1.
          6    2    1    2  502    0 -0.46476816143E+02  0.30768053437E+02 -0.10013930560E+04  0.10174689192E+04  0.17131310941E+03 0.  0.
         24    2    3    3    0    0 -0.31008768751E+02 -0.24780707993E+02 -0.28577747976E+03  0.29951859481E+03  0.80417619157E+02 0.  0.
         -6    2    1    2    0  501  0.46476816143E+02 -0.30768053437E+02 -0.83312514459E+03  0.85363894614E+03  0.17746880367E+03 0.  0.
        -24    2    5    5    0    0  0.25068274145E+02 -0.89204568298E+02 -0.58929730691E+03  0.60195013756E+03  0.80540541362E+02 0.  0.
          5    1    3    3  502    0 -0.15468047392E+02  0.55548761430E+02 -0.71561557623E+03  0.71795032441E+03  0.47000000000E+01 0. -1.
        -11    1    4    4    0    0  0.84608911482E+01 -0.18821370921E+02 -0.23002958546E+03  0.23095333050E+03  0.00000000000E+00 0.  1.
         12    1    4    4    0    0 -0.39469659899E+02 -0.59593370719E+01 -0.55747894298E+02  0.68565264307E+02  0.00000000000E+00 0. -1.
         -5    1    5    5    0  501  0.21408541998E+02  0.58436514861E+02 -0.24382783768E+03  0.25168880858E+03  0.47000000000E+01 0.  1.
         13    1    6    6    0    0  0.35937943029E+02 -0.20392337721E+02 -0.10795688673E+03  0.11559443143E+03  0.00000000000E+00 0. -1.
        -14    1    6    6    0    0 -0.10869668884E+02 -0.68812230578E+02 -0.48134042018E+03  0.48635570612E+03  0.00000000000E+00 0.  1.
</event>
<event>
12    1  0.2614920E-002  0.1874100E+03  0.7818608E-02  0.1160818E+00
          1   -1    0    0  502    0  0.00000000000E+00  0.00000000000E+00  0.43737415365E+02  0.43737415365E+02  0.00000000000E+00 0. -1.
         -1   -1    0    0    0  501 -0.00000000000E+00 -0.00000000000E+00 -0.82618596048E+03  0.82618596048E+03  0.00000000000E+00 0.  1.
          6    2    1    2  502    0  0.80371314337E+02  0.14607903686E+00 -0.31208417706E+03  0.36235032960E+03  0.16565523923E+03 0.  0.
         24    2    3    3    0    0  0.10356340304E+03 -0.81673747609E+01 -0.15550558063E+03  0.20377563631E+03  0.80934787867E+02 0.  0.
         -6    2    1    2    0  501 -0.80371314337E+02 -0.14607903686E+00 -0.47036436805E+03  0.50757304624E+03  0.17299765614E+03 0.  0.
        -24    2    5    5    0    0 -0.47934230874E+02 -0.59540546824E+02 -0.37070406120E+03  0.38701545026E+03  0.80726021476E+02 0.  0.
          5    1    3    3  502    0 -0.23192088699E+02  0.83134537977E+01 -0.15657859643E+03  0.15857469330E+03  0.47000000000E+01 0. -1.
        -13    1    4    4    0    0  0.55575810664E+01 -0.19411668756E+01 -0.79181702617E+02  0.79400232150E+02  0.00000000000E+00 0.  1.
         14    1    4    4    0    0  0.98005821970E+02 -0.62262078853E+01 -0.76323878008E+02  0.12437540416E+03  0.00000000000E+00 0. -1.
         -5    1    5    5    0  501 -0.32437083463E+02  0.59394467787E+02 -0.99660306855E+02  0.12055759598E+03  0.47000000000E+01 0.  1.
         11    1    6    6    0    0 -0.38001468165E+02 -0.63441347335E+01 -0.57782829939E+02  0.69449370508E+02  0.00000000000E+00 0. -1.
        -12    1    6    6    0    0 -0.99327627093E+01 -0.53196412090E+02 -0.31292123126E+03  0.31756607975E+03  0.00000000000E+00 0.  1.
</event>
<event>
12    1  0.2614920E-002  0.1881397E+03  0.7818608E-02  0.1160150E+00
         -1   -1    0    0    0  501 -0.00000000000E+00  0.00000000000E+00  0.65812743755E+02  0.65812743755E+02  0.00000000000E+00 0. -1.
          1   -1    0    0  502    0  0.00000000000E+00 -0.00000000000E+00 -0.56992675122E+03  0.56992675122E+03  0.00000000000E+00 0.  1.
          6    2    1    2  502    0 -0.44966201886E+02  0.61735092727E+02 -0.17684643678E+03  0.25833161452E+03  0.17212605808E+03 0.  0.
         24    2    3    3    0    0 -0.44515465304E+02 -0.96824644657E+01 -0.30148518211E+02  0.95104656111E+02  0.77849763611E+02 0.  0.
         -6    2    1    2    0  501  0.44966201886E+02 -0.61735092727E+02 -0.32726757069E+03  0.37740788046E+03  0.17175408124E+03 0.  0.
        -24    2    5    5    0    0  0.58489912899E+00  0.16079563345E+02 -0.78152172332E+02  0.11263365129E+03  0.79496433243E+02 0.  0.
          5    1    3    3  502    0 -0.45073658289E+00  0.71417557193E+02 -0.14669791857E+03  0.16322695841E+03  0.47000000000E+01 0. -1.
        -13    1    4    4    0    0 -0.43358249987E+02  0.21320932085E+02 -0.39815756791E+02  0.62608421764E+02  0.00000000000E+00 0.  1.
         14    1    4    4    0    0 -0.11572153164E+01 -0.31003396551E+02  0.96672385801E+01  0.32496234347E+02  0.00000000000E+00 0. -1.
         -5    1    5    5    0  501  0.44381302757E+02 -0.77814656072E+02 -0.24911539836E+03  0.26477422917E+03  0.47000000000E+01 0.  1.
         13    1    6    6    0    0 -0.21290607574E+02 -0.25047495804E+02 -0.21460121836E+02  0.39258169164E+02  0.00000000000E+00 0. -1.
        -14    1    6    6    0    0  0.21875506703E+02  0.41127059148E+02 -0.56692050497E+02  0.73375482126E+02  0.00000000000E+00 0.  1.
</event>
<event>
12    1  0.2614920E-002  0.1746493E+03  0.7818608E-02  0.1173084E+00
         -2   -1    0    0    0  501 -0.00000000000E+00  0.00000000000E+00  0.14892921661E+03  0.14892921661E+03  0.00000000000E+00 0. -1.
          2   -1    0    0  502    0  0.00000000000E+00 -0.00000000000E+00 -0.23990546944E+03  0.23990546944E+03  0.00000000000E+00 0.  1.
          6    2    1    2  502    0  0.15184392670E+02 -0.46453789693E+02  0.29632772025E+02  0.17323000420E+03  0.16352985299E+03 0.  0.
         24    2    3    3    0    0 -0.21266787595E+02 -0.41047236640E+02 -0.35123796599E+02  0.98574645797E+02  0.79662587305E+02 0.  0.
         -6    2    1    2    0  501 -0.15184392670E+02  0.46453789693E+02 -0.12060902485E+03  0.21560468185E+03  0.17190206980E+03 0.  0.
        -24    2    5    5    0    0  0.36676771669E+02 -0.10206747863E+02 -0.23036768547E+02  0.91337099256E+02  0.79764714714E+02 0.  0.
          5    1    3    3  502    0  0.36451180265E+02 -0.54065530529E+01  0.64756568623E+02  0.74655358404E+02  0.47000000000E+01 0. -1.
        -11    1    4    4    0    0 -0.15898864657E+02  0.20682880709E+02 -0.24342334438E+02  0.35680592732E+02  0.00000000000E+00 0.  1.
         12    1    4    4    0    0 -0.53679229373E+01 -0.61730117349E+02 -0.10781462160E+02  0.62894053064E+02  0.00000000000E+00 0. -1.
         -5    1    5    5    0  501 -0.51861164339E+02  0.56660537556E+02 -0.97572256305E+02  0.12426758259E+03  0.47000000000E+01 0.  1.
         11    1    6    6    0    0  0.34734476534E+02  0.12650006885E+02 -0.45910131193E+02  0.58942740693E+02  0.00000000000E+00 0. -1.
        -12    1    6    6    0    0  0.19422951353E+01 -0.22856754748E+02  0.22873362646E+02  0.32394358563E+02  0.00000000000E+00 0.  1.
</event>
<event>
12    1  0.2614920E-002  0.2070026E+03  0.7818608E-02  0.1143962E+00
          1   -1    0    0  502    0  0.00000000000E+00  0.00000000000E+00  0.76454788825E+02  0.76454788825E+02  0.00000000000E+00 0. -1.
         -1   -1    0    0    0  501 -0.00000000000E+00 -0.00000000000E+00 -0.72793771145E+03  0.72793771145E+03  0.00000000000E+00 0.  1.
          6    2    1    2  502    0  0.86619271787E+02 -0.84066292683E+02 -0.12978205745E+03  0.24216816691E+03  0.16502120717E+03 0.  0.
         24    2    3    3    0    0  0.37875924469E+02 -0.75753799713E+02 -0.14899204306E+03  0.18891288553E+03  0.79474685273E+02 0.  0.
         -6    2    1    2    0  501 -0.86619271787E+02  0.84066292683E+02 -0.52170086518E+03  0.56222433337E+03  0.17133116615E+03 0.  0.
        -24    2    5    5    0    0 -0.29101030717E+02  0.11393522566E+03 -0.31760424086E+03  0.34803277595E+03  0.80163917611E+02 0.  0.
          5    1    3    3  502    0  0.48743347318E+02 -0.83124929700E+01  0.19209985612E+02  0.53255281375E+02  0.47000000000E+01 0. -1.
        -11    1    4    4    0    0  0.49880543656E+02 -0.35327704369E+02 -0.42701480050E+02  0.74562267467E+02  0.00000000000E+00 0.  1.
         12    1    4    4    0    0 -0.12004619187E+02 -0.40426095345E+02 -0.10629056301E+03  0.11435061807E+03  0.00000000000E+00 0. -1.
         -5    1    5    5    0  501 -0.57518241070E+02 -0.29868932976E+02 -0.20409662432E+03  0.21419155742E+03  0.47000000000E+01 0.  1.
         11    1    6    6    0    0  0.24033379043E+02  0.25685373780E+02 -0.12189574800E+03  0.12686967768E+03  0.00000000000E+00 0. -1.
        -12    1    6    6    0    0 -0.53134409759E+02  0.88249851879E+02 -0.19570849286E+03  0.22116309826E+03  0.00000000000E+00 0.  1.
</event>
<event>
12    1  0.2614920E-002  0.1843415E+03  0.7818608E-02  0.1163666E+00
         -2   -1    0    0    0  501 -0.00000000000E+00  0.00000000000E+00  0.30362421747E+03  0.30362421747E+03  0.00000000000E+00 0. -1.
          2   -1    0    0  502    0  0.00000000000E+00 -0.00000000000E+00 -0.11215162498E+03  0.11215162498E+03  0.00000000000E+00 0.  1.
          6    2    1    2  502    0 -0.56809129119E+02 -0.36439998923E+02  0.10500031694E+03  0.21187156012E+03  0.17119971016E+03 0.  0.
         24    2    3    3    0    0 -0.65778566903E+02 -0.32413835056E+02  0.13817361238E+03  0.17695425296E+03  0.82724747898E+02 0.  0.
         -6    2    1    2    0  501  0.56809129119E+02  0.36439998923E+02  0.86472275543E+02  0.20390428233E+03  0.17188470334E+03 0.  0.
        -24    2    5    5    0    0  0.13597260543E+02 -0.18716765080E+01 -0.23526838513E+02  0.79578319019E+02  0.74771706282E+02 0.  0.
          5    1    3    3  502    0  0.89694377846E+01 -0.40261638671E+01 -0.33173295436E+02  0.34917307166E+02  0.47000000000E+01 0. -1.
        -13    1    4    4    0    0 -0.50574074200E+02 -0.16890079196E+01  0.20857901975E+02  0.54732456584E+02  0.00000000000E+00 0.  1.
         14    1    4    4    0    0 -0.15204492704E+02 -0.30724827137E+02  0.11731571041E+03  0.12222179637E+03  0.00000000000E+00 0. -1.
         -5    1    5    5    0  501  0.43211868576E+02  0.38311675431E+02  0.10999911406E+03  0.12432596331E+03  0.47000000000E+01 0.  1.
         11    1    6    6    0    0 -0.57878031033E+01  0.48220102554E+01  0.25417864303E+02  0.26510719971E+02  0.00000000000E+00 0. -1.
        -12    1    6    6    0    0  0.19385063646E+02 -0.66936867634E+01 -0.48944702816E+02  0.53067599048E+02  0.00000000000E+00 0.  1.
</event>
<event>
12    1  0.2614920E-002  0.2284651E+03  0.7818608E-02  0.1127725E+00
          1   -1    0    0  502    0  0.00000000000E+00  0.00000000000E+00  0.11122597720E+04  0.11122597720E+04  0.00000000000E+00 0. -1.
         -1   -1    0    0    0  501 -0.00000000000E+00 -0.00000000000E+00 -0.51153351099E+02  0.51153351099E+02  0.00000000000E+00 0.  1.
          6    2    1    2  502    0 -0.11286203226E+02  0.15136316783E+03  0.36516904638E+03  0.43119471469E+03  0.17187862747E+03 0.  0.
         24    2    3    3    0    0  0.34699835906E+02  0.14221861859E+03  0.20608253471E+03  0.26527622032E+03  0.80444066726E+02 0.  0.
         -6    2    1    2    0  501  0.11286203226E+02 -0.15136316783E+03  0.69593737453E+03  0.73221840842E+03  0.16963720524E+03 0.  0.
        -24    2    5    5    0    0  0.63872378138E+02 -0.54061487807E+02  0.37831156523E+03  0.39585377374E+03  0.81106378589E+02 0.  0.
          5    1    3    3  502    0 -0.45986039132E+02  0.91445492353E+01  0.15908651167E+03  0.16591849436E+03  0.47000000000E+01 0. -1.
        -13    1    4    4    0    0  0.61005962665E+02  0.10460951883E+03  0.14674781783E+03  0.19026245281E+03  0.00000000000E+00 0.  1.
         14    1    4    4    0    0 -0.26306126759E+02  0.37609099766E+02  0.59334716875E+02  0.75013767516E+02  0.00000000000E+00 0. -1.
         -5    1    5    5    0  501 -0.52586174913E+02 -0.97301680023E+02  0.31762580930E+03  0.33636463467E+03  0.47000000000E+01 0.  1.
         13    1    6    6    0    0  0.81335834629E+01 -0.44076187877E+02  0.26938005447E+03  0.27308328265E+03  0.00000000000E+00 0. -1.
        -14    1    6    6    0    0  0.55738794675E+02 -0.99852999310E+01  0.10893151076E+03  0.12277049109E+03  0.00000000000E+00 0.  1.
</event>
<event>
12    1  0.2614920E-002  0.2048893E+03  0.7818608E-02  0.1145678E+00
         -2   -1    0    0    0  501 -0.00000000000E+00  0.00000000000E+00  0.35933162105E+02  0.35933162105E+02  0.00000000000E+00 0. -1.
          2   -1    0    0  502    0  0.00000000000E+00 -0.00000000000E+00 -0.16386261817E+04  0.16386261817E+04  0.00000000000E+00 0.  1.
          6    2    1    2  502    0  0.27572654433E+02 -0.10657624703E+03 -0.35832691214E+03  0.41375546389E+03  0.17514753848E+03 0.  0.
         24    2    3    3    0    0  0.23267593895E+02 -0.81095978700E+02 -0.36798932251E+03  0.38576922094E+03  0.79270496718E+02 0.  0.
         -6    2    1    2    0  501 -0.27572654433E+02  0.10657624703E+03 -0.12443661074E+04  0.12608038799E+04  0.17047189360E+03 0.  0.
        -24    2    5    5    0    0 -0.46029779648E+02  0.13519816335E+03 -0.11175353323E+04  0.11293960601E+04  0.79075645933E+02 0.  0.
          5    1    3    3  502    0  0.43050605378E+01 -0.25480268331E+02  0.96624103777E+01  0.27986242956E+02  0.47000000000E+01 0. -1.
        -11    1    4    4    0    0  0.48617722395E+02 -0.37735605794E+02 -0.25135440210E+03  0.25877923860E+03  0.00000000000E+00 0.  1.
         12    1    4    4    0    0 -0.25350128500E+02 -0.43360372906E+02 -0.11663492042E+03  0.12698998234E+03  0.00000000000E+00 0. -1.
         -5    1    5    5    0  501  0.18457125215E+02 -0.28621916319E+02 -0.12683077518E+03  0.13140781977E+03  0.47000000000E+01 0.  1.
         13    1    6    6    0    0  0.12056220474E+02  0.24009071821E+02 -0.81977875089E+02  0.86267954572E+02  0.00000000000E+00 0. -1.
        -14    1    6    6    0    0 -0.58086000122E+02  0.11118909153E+03 -0.10355574572E+04  0.10431281055E+04  0.00000000000E+00 0.  1.
</event>
<event>
12    1  0.2614920E-002  0.2152904E+03  0.7818608E-02  0.1137444E+00
          2   -1    0    0  502    0  0.00000000000E+00  0.00000000000E+00  0.18249175894E+04  0.18249175894E+04  0.00000000000E+00 0.  1.
         -2   -1    0    0    0  501 -0.00000000000E+00 -0.00000000000E+00 -0.28964039382E+02  0.28964039382E+02  0.00000000000E+00 0. -1.
          6    2    1    2  502    0  0.13201214175E+02 -0.12971063327E+03  0.12220077809E+04  0.12407708500E+04  0.17090981652E+03 0.  0.
         24    2    3    3    0    0 -0.78845343505E+01 -0.10365165338E+03  0.46545417837E+03  0.48346039674E+03  0.79249807126E+02 0.  0.
         -6    2    1    2    0  501 -0.13201214175E+02  0.12971063327E+03  0.57394576921E+03  0.61311077879E+03  0.17173223530E+03 0.  0.
        -24    2    5    5    0    0  0.17524054745E+02  0.15516151680E+03  0.46439685445E+03  0.49642811364E+03  0.79964021916E+02 0.  0.
          5    1    3    3  502    0  0.21085748525E+02 -0.26058979889E+02  0.75655360249E+03  0.75731045329E+03  0.47000000000E+01 0. -1.
        -11    1    4    4    0    0  0.60550790483E+01 -0.11022525888E+03  0.44057453849E+03  0.45419400661E+03  0.00000000000E+00 0.  1.
         12    1    4    4    0    0 -0.13939613399E+02  0.65736054948E+01  0.24879639876E+02  0.29266390131E+02  0.00000000000E+00 0. -1.
         -5    1    5    5    0  501 -0.30725268919E+02 -0.25450883522E+02  0.10954891476E+03  0.11668266516E+03  0.47000000000E+01 0.  1.
         11    1    6    6    0    0 -0.58760164833E+01  0.62483302339E+02  0.88018227202E+02  0.10810133654E+03  0.00000000000E+00 0. -1.
        -12    1    6    6    0    0  0.23400071228E+02  0.92678214457E+02  0.37637862724E+03  0.38832677710E+03  0.00000000000E+00 0.  1.
</event>
<event>
12    1  0.2614920E-002  0.2351390E+03  0.7818608E-02  0.1123074E+00
         -2   -1    0    0    0  501 -0.00000000000E+00  0.00000000000E+00  0.43858417840E+02  0.43858417840E+02  0.00000000000E+00 0. -1.
          2   -1    0    0  502    0  0.00000000000E+00 -0.00000000000E+00 -0.13164930451E+04  0.13164930451E+04  0.00000000000E+00 0.  1.
          6    2    1    2  502    0 -0.41812728932E+02 -0.15502021980E+03 -0.77532694542E+03  0.81007982208E+03  0.17122462735E+03 0.  0.
         24    2    3    3    0    0  0.10434209795E+02 -0.26151739588E+02 -0.37946137707E+03  0.39047469104E+03  0.87674177698E+02 0.  0.
         -6    2    1    2    0  501  0.41812728932E+02  0.15502021980E+03 -0.49730768183E+03  0.55027164084E+03  0.17234957342E+03 0.  0.
        -24    2    5    5    0    0 -0.34525708541E+02  0.37422498717E+02 -0.19592692735E+03  0.21784235481E+03  0.80470259899E+02 0.  0.
          5    1    3    3  502    0 -0.52246938727E+02 -0.12886848021E+03 -0.39586556834E+03  0.41960513105E+03  0.47000000000E+01 0. -1.
        -13    1    4    4    0    0 -0.38663404335E+02 -0.14003885015E+02 -0.15258812403E+03  0.15803196900E+03  0.00000000000E+00 0.  1.
         14    1    4    4    0    0  0.49097614130E+02 -0.12147854573E+02 -0.22687325304E+03  0.23244272204E+03  0.00000000000E+00 0. -1.
         -5    1    5    5    0  501  0.76338437473E+02  0.11759772108E+03 -0.30138075448E+03  0.33242928603E+03  0.47000000000E+01 0.  1.
         13    1    6    6    0    0 -0.12209134691E+01 -0.23537619321E+02 -0.31477569589E+02  0.39323625726E+02  0.00000000000E+00 0. -1.
        -14    1    6    6    0    0 -0.33304795072E+02  0.60960118039E+02 -0.16444935776E+03  0.17851872908E+03  0.00000000000E+00 0.  1.
</event>
<event>
12    1  0.2614920E-002  0.1803665E+03  0.7818608E-02  0.1167449E+00
          2   -1    0    0  502    0  0.00000000000E+00  0.00000000000E+00  0.15140483460E+04  0.15140483460E+04  0.00000000000E+00 0.  1.
         -2   -1    0    0    0  501 -0.00000000000E+00 -0.00000000000E+00 -0.35905147465E+02  0.35905147465E+02  0.00000000000E+00 0. -1.
          6    2    1    2  502    0  0.43072745878E+02  0.34025362360E+02  0.24723336965E+03  0.30585526190E+03  0.17149377668E+03 0.  0.
         24    2    3    3    0    0 -0.18931211179E+01  0.78218483264E+02  0.18677877427E+03  0.21838064139E+03  0.81743984397E+02 0.  0.
         -6    2    1    2    0  501 -0.43072745878E+02 -0.34025362360E+02  0.12309098289E+04  0.12440982316E+04  0.17212906851E+03 0.  0.
        -24    2    5    5    0    0 -0.42858526385E+02  0.37555864506E+02  0.90891744106E+03  0.91421172722E+03  0.80030439797E+02 0.  0.
          5    1    3    3  502    0  0.44965866996E+02 -0.44193120904E+02  0.60454595383E+02  0.87474620507E+02  0.47000000000E+01 0. -1.
        -13    1    4    4    0    0  0.14481004481E+02  0.74285394005E+02  0.18679042307E+03  0.20154076859E+03  0.00000000000E+00 0.  1.
         14    1    4    4    0    0 -0.16374125598E+02  0.39330892596E+01 -0.11648801462E-01  0.16839872800E+02  0.00000000000E+00 0. -1.
         -5    1    5    5    0  501 -0.21421949335E+00 -0.71581226866E+02  0.32199238787E+03  0.32988650438E+03  0.47000000000E+01 0.  1.
         11    1    6    6    0    0 -0.71403302604E+01  0.33935409861E+02  0.13244408804E+03  0.13690884856E+03  0.00000000000E+00 0. -1.
        -12    1    6    6    0    0 -0.35718196125E+02  0.36204546441E+01  0.77647335302E+03  0.77730287866E+03  0.00000000000E+00 0.  1.
</event>
<event>
12    1  0.2614920E-002  0.1829509E+03  0.7818608E-02  0.1164977E+00
          1   -1    0    0  502    0  0.00000000000E+00  0.00000000000E+00  0.73372139645E+03  0.73372139645E+03  0.00000000000E+00 0.  1.
         -1   -1    0    0    0  501 -0.00000000000E+00 -0.00000000000E+00 -0.10144390348E+03  0.10144390348E+03  0.00000000000E+00 0. -1.
          6    2    1    2  502    0 -0.21804540813E+02  0.53746350391E+02  0.62475748514E+03  0.65058338263E+03  0.17196718972E+03 0.  0.
         24    2    3    3    0    0 -0.32899593405E+02  0.69321197281E+02  0.62154953587E+03  0.63063201711E+03  0.74061486790E+02 0.  0.
         -6    2    1    2    0  501  0.21804540813E+02 -0.53746350391E+02  0.75200078234E+01  0.18458191729E+03  0.17507091561E+03 0.  0.
        -24    2    5    5    0    0 -0.54357984213E+02 -0.44920024167E+02  0.16486945744E+02  0.10724415014E+03  0.79100501514E+02 0.  0.
          5    1    3    3  502    0  0.11095052591E+02 -0.15574846890E+02  0.32079492669E+01  0.19951365521E+02  0.47000000000E+01 0. -1.
        -11    1    4    4    0    0 -0.26734345416E+02  0.43298513737E+02  0.57257249450E+03  0.57482932073E+03  0.00000000000E+00 0.  1.
         12    1    4    4    0    0 -0.61652479892E+01  0.26022683544E+02  0.48977041372E+02  0.55802696379E+02  0.00000000000E+00 0. -1.
         -5    1    5    5    0  501  0.76162525027E+02 -0.88263262243E+01 -0.89669379206E+01  0.77337767156E+02  0.47000000000E+01 0.  1.
         13    1    6    6    0    0 -0.10094876963E+02  0.56582203308E+01 -0.25495021586E+02  0.27998537888E+02  0.00000000000E+00 0. -1.
        -14    1    6    6    0    0 -0.44263107250E+02 -0.50578244498E+02  0.41981967330E+02  0.79245612250E+02  0.00000000000E+00 0.  1.
</event>
<event>
12    1  0.2614920E-002  0.1799858E+03  0.7818608E-02  0.1167817E+00
         -2   -1    0    0    0  501 -0.00000000000E+00  0.00000000000E+00  0.47299338740E+02  0.47299338740E+02  0.00000000000E+00 0. -1.
          2   -1    0    0  502    0  0.00000000000E+00 -0.00000000000E+00 -0.83374698462E+03  0.83374698462E+03  0.00000000000E+00 0.  1.
          6    2    1    2  502    0  0.40604347837E+02  0.40444464506E+02 -0.20333712784E+03  0.27015523237E+03  0.16838466156E+03 0.  0.
         24    2    3    3    0    0  0.42197006726E+02 -0.39963399276E+02 -0.14717770418E+03  0.17195170909E+03  0.67293781218E+02 0.  0.
         -6    2    1    2    0  501 -0.40604347837E+02 -0.40444464506E+02 -0.58311051804E+03  0.61089109099E+03  0.17287446609E+03 0.  0.
        -24    2    5    5    0    0  0.12485193339E+02  0.89883204096E+01 -0.46492884228E+03  0.47214276454E+03  0.80766897719E+02 0.  0.
          5    1    3    3  502    0 -0.15926588893E+01  0.80407863782E+02 -0.56159423657E+02  0.98203523286E+02  0.47000000000E+01 0. -1.
        -13    1    4    4    0    0 -0.13285759282E+02  0.39459264529E+01 -0.49078923411E+02  0.50998259367E+02  0.00000000000E+00 0.  1.
         14    1    4    4    0    0  0.55482766009E+02 -0.43909325729E+02 -0.98098780772E+02  0.12095344972E+03  0.00000000000E+00 0. -1.
         -5    1    5    5    0  501 -0.53089541176E+02 -0.49432784916E+02 -0.11818167577E+03  0.13874832646E+03  0.47000000000E+01 0.  1.
         11    1    6    6    0    0 -0.29598434204E+02 -0.11328840095E+02 -0.12220678680E+03  0.12624939075E+03  0.00000000000E+00 0. -1.
        -12    1    6    6    0    0  0.42083627543E+02  0.20317160505E+02 -0.34272205548E+03  0.34589337379E+03  0.00000000000E+00 0.  1.
</event>
<event>
12    1  0.2614920E-002  0.1975601E+03  0.7818608E-02  0.1151814E+00
          2   -1    0    0  502    0  0.00000000000E+00  0.00000000000E+00  0.25422127803E+04  0.25422127803E+04  0.00000000000E+00 0. -1.
         -2   -1    0    0    0  501 -0.00000000000E+00 -0.00000000000E+00 -0.15957981536E+02  0.15957981536E+02  0.00000000000E+00 0.  1.
          6    2    1    2  502    0 -0.78515816149E+02  0.59479049678E+02  0.15182527459E+04  0.15311812318E+04  0.17240090899E+03 0.  0.
         24    2    3    3    0    0 -0.69008665594E+02  0.10654901077E+03  0.10856010553E+04  0.10958474030E+04  0.78974626777E+02 0.  0.
         -6    2    1    2    0  501  0.78515816149E+02 -0.59479049678E+02  0.10080020529E+04  0.10269895301E+04  0.17010839341E+03 0.  0.
        -24    2    5    5    0    0  0.10512969057E+03 -0.78393935956E+02  0.67111988499E+03  0.68849616782E+03  0.80169894888E+02 0.  0.
          5    1    3    3  502    0 -0.95071505552E+01 -0.47069961095E+02  0.43265169053E+03  0.43533382877E+03  0.47000000000E+01 0. -1.
        -13    1    4    4    0    0 -0.75516802962E+02  0.51053958325E+02  0.76524663451E+03  0.77065667182E+03  0.00000000000E+00 0.  1.
         14    1    4    4    0    0  0.65081373683E+01  0.55495052448E+02  0.32035442082E+03  0.32519073116E+03  0.00000000000E+00 0. -1.
         -5    1    5    5    0  501 -0.26613874426E+02  0.18914886279E+02  0.33688216793E+03  0.33849336228E+03  0.47000000000E+01 0.  1.
         11    1    6    6    0    0  0.63718445280E+02 -0.52449260470E+02  0.22410162234E+03  0.23881478666E+03  0.00000000000E+00 0. -1.
        -12    1    6    6    0    0  0.41411245295E+02 -0.25944675486E+02  0.44701826265E+03  0.44968138116E+03  0.00000000000E+00 0.  1.
</event>
<event>
12    1  0.2614920E-002  0.1752334E+03  0.7818608E-02  0.1172498E+00
          1   -1    0    0  502    0  0.00000000000E+00  0.00000000000E+00  0.54506250509E+03  0.54506250509E+03  0.00000000000E+00 0. -1.
         -1   -1    0    0    0  501 -0.00000000000E+00 -0.00000000000E+00 -0.57224167934E+02  0.57224167934E+02  0.00000000000E+00 0.  1.
          6    2    1    2  502    0  0.60142921991E+01 -0.31078034341E+02  0.28307630786E+03  0.33358377079E+03  0.17362004530E+03 0.  0.
         24    2    3    3    0    0 -0.12401726827E+02 -0.37414185940E+02  0.29631727457E+03  0.30956898839E+03  0.80469915063E+02 0.  0.
         -6    2    1    2    0  501 -0.60142921991E+01  0.31078034341E+02  0.20476202930E+03  0.26870290224E+03  0.17108987434E+03 0.  0.
        -24    2    5    5    0    0  0.37279525087E+02 -0.22063076747E+02  0.16415063536E+03  0.18889245417E+03  0.82815371810E+02 0.  0.
          5    1    3    3  502    0  0.18416019026E+02  0.63361515988E+01 -0.13240966710E+02  0.24014782391E+02  0.47000000000E+01 0. -1.
        -13    1    4    4    0    0  0.14143591291E+02  0.63726641999E+01  0.94436705221E+01  0.18161358334E+02  0.00000000000E+00 0.  1.
         14    1    4    4    0    0 -0.26545318118E+02 -0.43786850140E+02  0.28687360405E+03  0.29140763006E+03  0.00000000000E+00 0. -1.
         -5    1    5    5    0  501 -0.43293817286E+02  0.53141111088E+02  0.40611393937E+02  0.79810448065E+02  0.47000000000E+01 0.  1.
         11    1    6    6    0    0  0.63698835263E+02 -0.11888801136E+02  0.12153018114E+03  0.13772606919E+03  0.00000000000E+00 0. -1.
        -12    1    6    6    0    0 -0.26419310176E+02 -0.10174275611E+02  0.42620454216E+02  0.51166384980E+02  0.00000000000E+00 0.  1.
</event>
<event>
12    1  0.2614920E-002  0.3473732E+03  0.7818608E-02  0.1063698E+00
          1   -1    0    0  502    0  0.00000000000E+00  0.00000000000E+00  0.38943164321E+04  0.38943164321E+04  0.00000000000E+00 0.  1.
         -1   -1    0    0    0  501 -0.00000000000E+00 -0.00000000000E+00 -0.39017350730E+02  0.39017350730E+02  0.00000000000E+00 0. -1.
          6    2    1    2  502    0  0.13009626248E+03  0.27272327173E+03  0.10392723956E+04  0.10960706890E+04  0.17314971116E+03 0.  0.
         24    2    3    3    0    0  0.14273610448E+03  0.27307013245E+03  0.10335319943E+04  0.10814102618E+04  0.79491372372E+02 0.  0.
         -6    2    1    2    0  501 -0.13009626248E+03 -0.27272327173E+03  0.28160266858E+04  0.28372630939E+04  0.16956576440E+03 0.  0.
        -24    2    5    5    0    0 -0.75422095317E+02 -0.21058719051E+03  0.15051909070E+04  0.15238086082E+04  0.79734249359E+02 0.  0.
          5    1    3    3  502    0 -0.12639842003E+02 -0.34686072078E+00  0.57404013214E+01  0.14660427195E+02  0.47000000000E+01 0. -1.
        -13    1    4    4    0    0  0.58324835285E+02  0.72940768842E+02  0.42885564613E+03  0.43890694616E+03  0.00000000000E+00 0.  1.
         14    1    4    4    0    0  0.84411269199E+02  0.20012936361E+03  0.60467634817E+03  0.64250331562E+03  0.00000000000E+00 0. -1.
         -5    1    5    5    0  501 -0.54674167164E+02 -0.62136081213E+02  0.13108357788E+04  0.13134544857E+04  0.47000000000E+01 0.  1.
         13    1    6    6    0    0 -0.27156852716E+02 -0.50517173902E+02  0.20360220136E+03  0.21152620619E+03  0.00000000000E+00 0. -1.
        -14    1    6    6    0    0 -0.48265242600E+02 -0.16007001661E+03  0.13015887056E+04  0.13122824020E+04  0.00000000000E+00 0.  1.
</event>
<event>
12    1  0.2614920E-002  0.1797446E+03  0.7818608E-02  0.1168050E+00
         -2   -1    0    0    0  501 -0.00000000000E+00  0.00000000000E+00  0.11076597491E+03  0.11076597491E+03  0.00000000000E+00 0.  1.
          2   -1    0    0  502    0  0.00000000000E+00 -0.00000000000E+00 -0.32974704190E+03  0.32974704190E+03  0.00000000000E+00 0. -1.
          6    2    1    2  502    0  0.16092203491E+02  0.52204417239E+02 -0.34483828125E+02  0.18271239421E+03  0.17091057428E+03 0.  0.
         24    2    3    3    0    0  0.22528520819E+02  0.94629032631E+02  0.24872670492E+01  0.12587731657E+03  0.79854394130E+02 0.  0.
         -6    2    1    2    0  501 -0.16092203491E+02 -0.52204417239E+02 -0.18449723887E+03  0.25780062261E+03  0.17157409384E+03 0.  0.
        -24    2    5    5    0    0 -0.67972558539E+02 -0.17921262351E+02 -0.15355756496E+03  0.18818554256E+03  0.83020674008E+02 0.  0.
          5    1    3    3  502    0 -0.64363173275E+01 -0.42424615392E+02 -0.36971095174E+02  0.56835077639E+02  0.47000000000E+01 0. -1.
        -13    1    4    4    0    0  0.95921983347E+01  0.76101294102E+02 -0.33246039227E+02  0.83598542793E+02  0.00000000000E+00 0.  1.
         14    1    4    4    0    0  0.12936322484E+02  0.18527738529E+02  0.35733306276E+02  0.42278773774E+02  0.00000000000E+00 0. -1.
         -5    1    5    5    0  501  0.51880355048E+02 -0.34283154889E+02 -0.30939673903E+02  0.69615080049E+02  0.47000000000E+01 0.  1.
         11    1    6    6    0    0 -0.42906671476E+02 -0.12306973228E+02 -0.15611558244E+03  0.16237154655E+03  0.00000000000E+00 0. -1.
        -12    1    6    6    0    0 -0.25065887063E+02 -0.56142891229E+01  0.25580174805E+01  0.25813996011E+02  0.00000000000E+00 0.  1.
</event>
<event>
12    1  0.2614920E-002  0.2480101E+03  0.7818608E-02  0.1114569E+00
         -2   -1    0    0    0  501 -0.00000000000E+00  0.00000000000E+00  0.45668687058E+03  0.45668687058E+03  0.00000000000E+00 0.  1.
          2   -1    0    0  502    0  0.00000000000E+00 -0.00000000000E+00 -0.17030465828E+03  0.17030465828E+03  0.00000000000E+00 0. -1.
          6    2    1    2  502    0  0.85160405500E+02  0.15775946145E+03 -0.32050579462E+00  0.24770149435E+03  0.17092567167E+03 0.  0.
         24    2    3    3    0    0 -0.12997631713E+02  0.89056891546E+02  0.24811337962E+02  0.12519131946E+03  0.83409805264E+02 0.  0.
         -6    2    1    2    0  501 -0.85160405500E+02 -0.15775946145E+03  0.28670271810E+03  0.37929003450E+03  0.17182007847E+03 0.  0.
        -24    2    5    5    0    0 -0.12196083124E+03 -0.13418160917E+03  0.22902803677E+03  0.30677351694E+03  0.93685647120E+02 0.  0.
          5    1    3    3  502    0  0.98158037213E+02  0.68702569909E+02 -0.25131843757E+02  0.12251017489E+03  0.47000000000E+01 0. -1.
        -11    1    4    4    0    0 -0.32367607358E+01  0.10304806985E+03  0.29974040735E+02  0.10736770668E+03  0.00000000000E+00 0.  1.
         12    1    4    4    0    0 -0.97608709775E+01 -0.13991178303E+02 -0.51627027726E+01  0.17823612778E+02  0.00000000000E+00 0. -1.
         -5    1    5    5    0  501  0.36800425738E+02 -0.23577852287E+02  0.57674681325E+02  0.72516517559E+02  0.47000000000E+01 0.  1.
         13    1    6    6    0    0 -0.68612109155E+02 -0.13262559249E+03  0.18383435423E+03  0.23683800181E+03  0.00000000000E+00 0. -1.
        -14    1    6    6    0    0 -0.53348722083E+02 -0.15560166808E+01  0.45193682541E+02  0.69935515137E+02  0.00000000000E+00 0.  1.
</event>
<event>
12    1  0.2614920E-002  0.1952814E+03  0.7818608E-02  0.1153782E+00
          1   -1    0    0  502    0  0.00000000000E+00  0.00000000000E+00  0.30215909105E+03  0.30215909105E+03  0.00000000000E+00 0.  1.
         -1   -1    0    0    0  501 -0.00000000000E+00 -0.00000000000E+00 -0.12668466602E+03  0.12668466602E+03  0.00000000000E+00 0. -1.
          6    2    1    2  502    0  0.81698639915E+02  0.38406712509E+02  0.74753831307E+02  0.20944796106E+03  0.17358159398E+03 0.  0.
         24    2    3    3    0    0  0.11369024272E+03  0.16292204612E+00  0.79403625352E+02  0.15915123409E+03  0.78094057136E+02 0.  0.
         -6    2    1    2    0  501 -0.81698639915E+02 -0.38406712509E+02  0.10072059372E+03  0.21939579601E+03  0.17274297085E+03 0.  0.
        -24    2    5    5    0    0 -0.10620062949E+02 -0.74119352125E+02  0.33362504720E+02  0.11505616363E+03  0.80736608623E+02 0.  0.
          5    1    3    3  502    0 -0.31991602808E+02  0.38243790463E+02 -0.46497940450E+01  0.50296726970E+02  0.47000000000E+01 0. -1.
        -11    1    4    4    0    0  0.66324191510E+02  0.23494094709E+02  0.86857958311E+01  0.70896501429E+02  0.00000000000E+00 0.  1.
         12    1    4    4    0    0  0.47366051213E+02 -0.23331172663E+02  0.70717829521E+02  0.88254732663E+02  0.00000000000E+00 0. -1.
         -5    1    5    5    0  501 -0.71078576965E+02  0.35712639615E+02  0.67358088997E+02  0.10433963238E+03  0.47000000000E+01 0.  1.
         13    1    6    6    0    0  0.15530975819E+02  0.42299700361E+01  0.27983503618E+02  0.32282817894E+02  0.00000000000E+00 0. -1.
        -14    1    6    6    0    0 -0.26151038769E+02 -0.78349322161E+02  0.53790011017E+01  0.82773345737E+02  0.00000000000E+00 0.  1.
</event>
<event>
12    1  0.2614920E-002  0.1774491E+03  0.7818608E-02  0.1170295E+00
          1   -1    0    0  502    0  0.00000000000E+00  0.00000000000E+00  0.99287505109E+03  0.99287505109E+03  0.00000000000E+00 0. -1.
         -1   -1    0    0    0  501 -0.00000000000E+00 -0.00000000000E+00 -0.33432429038E+02  0.33432429038E+02  0.00000000000E+00 0.  1.
          6    2    1    2  502    0  0.87702265837E+01 -0.45432171253E+02  0.59243271157E+03  0.61804248262E+03  0.16987934991E+03 0.  0.
         24    2    3    3    0    0 -0.44096958607E+02  0.69106837814E+01  0.21399345403E+03  0.23233135316E+03  0.78691549634E+02 0.  0.
         -6    2    1    2    0  501 -0.87702265837E+01  0.45432171253E+02  0.36700991048E+03  0.40826499750E+03  0.17275136682E+03 0.  0.
        -24    2    5    5    0    0 -0.37952437063E+02 -0.15928189648E+02  0.29780233930E+03  0.31116467203E+03  0.80269079501E+02 0.  0.
          5    1    3    3  502    0  0.52867185191E+02 -0.52342855035E+02  0.37843925754E+03  0.38571112946E+03  0.47000000000E+01 0. -1.
        -11    1    4    4    0    0 -0.51803022095E+02 -0.24750387516E+02  0.14759859518E+03  0.15837133604E+03  0.00000000000E+00 0.  1.
         12    1    4    4    0    0  0.77060634882E+01  0.31661071297E+02  0.66394858844E+02  0.73960017112E+02  0.00000000000E+00 0. -1.
         -5    1    5    5    0  501  0.29182210479E+02  0.61360360902E+02  0.69207571176E+02  0.97100325471E+02  0.47000000000E+01 0.  1.
         11    1    6    6    0    0 -0.17806953722E+02  0.93199602272E+01  0.26268054997E+03  0.26344832623E+03  0.00000000000E+00 0. -1.
        -12    1    6    6    0    0 -0.20145483341E+02 -0.25248149876E+02  0.35121789329E+02  0.47716345804E+02  0.00000000000E+00 0.  1.
</event>
<event>
12    1  0.2614920E-002  0.1732570E+03  0.7818608E-02  0.1174493E+00
         -2   -1    0    0    0  501 -0.00000000000E+00  0.00000000000E+00  0.10973725975E+02  0.10973725975E+02  0.00000000000E+00 0. -1.
          2   -1    0    0  502    0  0.00000000000E+00 -0.00000000000E+00 -0.29064334611E+04  0.29064334611E+04  0.00000000000E+00 0.  1.
          6    2    1    2  502    0 -0.23238178713E+02  0.30989299312E+02 -0.17813127513E+04  0.17894807776E+04  0.16633095273E+03 0.  0.
         24    2    3    3    0    0  0.66026390202E+01 -0.39265454692E+02 -0.88404593933E+03  0.88896091290E+03  0.84432878891E+02 0.  0.
         -6    2    1    2    0  501  0.23238178713E+02 -0.30989299312E+02 -0.11141469839E+04  0.11279264095E+04  0.17144717555E+03 0.  0.
        -24    2    5    5    0    0 -0.14275556546E+02 -0.45107974482E+02 -0.41549794638E+03  0.42811273081E+03  0.91670311225E+02 0.  0.
          5    1    3    3  502    0 -0.29840817733E+02  0.70254754004E+02 -0.89726681193E+03  0.90051986466E+03  0.47000000000E+01 0. -1.
        -13    1    4    4    0    0  0.39442619511E+02 -0.22241214141E+02 -0.68581654760E+03  0.68730977645E+03  0.00000000000E+00 0.  1.
         14    1    4    4    0    0 -0.32839980491E+02 -0.17024240550E+02 -0.19822939173E+03  0.20165113645E+03  0.00000000000E+00 0. -1.
         -5    1    5    5    0  501  0.37513735259E+02  0.14118675169E+02 -0.69864903752E+03  0.69981367873E+03  0.47000000000E+01 0.  1.
         13    1    6    6    0    0  0.55763742505E+00 -0.64052768540E+02 -0.17394368582E+03  0.18536308681E+03  0.00000000000E+00 0. -1.
        -14    1    6    6    0    0 -0.14833193971E+02  0.18944794058E+02 -0.24155426056E+03  0.24274964400E+03  0.00000000000E+00 0.  1.
</event>
<event>
12    1  0.2614920E-002  0.2191663E+03  0.7818608E-02  0.1134506E+00
         -1   -1    0    0    0  501 -0.00000000000E+00  0.00000000000E+00  0.15749475862E+03  0.15749475862E+03  0.00000000000E+00 0. -1.
          1   -1    0    0  502    0  0.00000000000E+00 -0.00000000000E+00 -0.31236734119E+03  0.31236734119E+03  0.00000000000E+00 0.  1.
          6    2    1    2  502    0  0.76681342545E+02 -0.11646132341E+03 -0.11420114055E+03  0.24900633482E+03  0.17181090225E+03 0.  0.
         24    2    3    3    0    0 -0.16040644276E+02 -0.77971939206E+02 -0.23714754515E+02  0.11377070492E+03  0.77746113368E+02 0.  0.
         -6    2    1    2    0  501 -0.76681342545E+02  0.11646132341E+03 -0.40671442015E+02  0.22085576499E+03  0.16637257764E+03 0.  0.
        -24    2    5    5    0    0  0.15472053495E+02  0.20167662046E+02 -0.15652733108E+02  0.85162200612E+02  0.79758844823E+02 0.  0.
          5    1    3    3  502    0  0.92721986821E+02 -0.38489384200E+02 -0.90486386039E+02  0.13523562990E+03  0.47000000000E+01 0. -1.
        -13    1    4    4    0    0 -0.14336469022E+02 -0.84739324143E+02 -0.40931884018E+02  0.95192996220E+02  0.00000000000E+00 0.  1.
         14    1    4    4    0    0 -0.17041752543E+01  0.67673849369E+01  0.17217129503E+02  0.18577708699E+02  0.00000000000E+00 0. -1.
         -5    1    5    5    0  501 -0.92153396040E+02  0.96293661359E+02 -0.25018708907E+02  0.13569356438E+03  0.47000000000E+01 0.  1.
         13    1    6    6    0    0  0.15150309208E+01 -0.21779095484E+02 -0.31391115715E+02  0.38236454656E+02  0.00000000000E+00 0. -1.
        -14    1    6    6    0    0  0.13957022574E+02  0.41946757530E+02  0.15738382607E+02  0.46925745956E+02  0.00000000000E+00 0.  1.
</event>
<event>
12    1  0.2614920E-002  0.2050420E+03  0.7818608E-02  0.1145553E+00
         -4   -1    0    0    0  501 -0.00000000000E+00  0.00000000000E+00  0.16428800391E+03  0.16428800391E+03  0.00000000000E+00 0. -1.
          4   -1    0    0  502    0  0.00000000000E+00 -0.00000000000E+00 -0.25974957925E+03  0.25974957925E+03  0.00000000000E+00 0.  1.
          6    2    1    2  502    0 -0.10890759314E+03  0.81276607911E+01 -0.21747145167E+02  0.20528854517E+03  0.17246311414E+03 0.  0.
         24    2    3    3    0    0 -0.16653511387E+02 -0.38986354151E+02  0.26180278271E+02  0.91053375792E+02  0.76210465301E+02 0.  0.
         -6    2    1    2    0  501  0.10890759314E+03 -0.81276607911E+01 -0.73714430171E+02  0.21874903799E+03  0.17461500992E+03 0.  0.
        -24    2    5    5    0    0 -0.64939927577E+01  0.26750789940E+02 -0.18169959636E+02  0.85928442591E+02  0.79345907952E+02 0.  0.
          5    1    3    3  502    0 -0.92254081756E+02  0.47114014942E+02 -0.47927423438E+02  0.11423516937E+03  0.47000000000E+01 0. -1.
        -11    1    4    4    0    0 -0.12106002655E+02 -0.27083709913E+02 -0.24699480095E+02  0.38602421684E+02  0.00000000000E+00 0.  1.
         12    1    4    4    0    0 -0.45475087322E+01 -0.11902644238E+02  0.50879758366E+02  0.52450954108E+02  0.00000000000E+00 0. -1.
         -5    1    5    5    0  501  0.11540158590E+03 -0.34878450731E+02 -0.55544470536E+02  0.13282059539E+03  0.47000000000E+01 0.  1.
         13    1    6    6    0    0  0.20070290806E+02  0.30151388509E+02  0.18379954277E+02  0.40617059486E+02  0.00000000000E+00 0. -1.
        -14    1    6    6    0    0 -0.26564283564E+02 -0.34005985690E+01 -0.36549913913E+02  0.45311383105E+02  0.00000000000E+00 0.  1.
</event>
<event>
12    1  0.2614920E-002  0.1921061E+03  0.7818608E-02  0.1156575E+00
         -2   -1    0    0    0  501 -0.00000000000E+00  0.00000000000E+00  0.54194800604E+02  0.54194800604E+02  0.00000000000E+00 0. -1.
          2   -1    0    0  502    0  0.00000000000E+00 -0.00000000000E+00 -0.81537126485E+03  0.81537126485E+03  0.00000000000E+00 0.  1.
          6    2    1    2  502    0 -0.73167748305E+02  0.24322948410E+02 -0.54878696336E+03  0.57988085621E+03  0.17073239597E+03 0.  0.
         24    2    3    3    0    0 -0.20780420774E+02  0.25940894811E+02 -0.12219313535E+03  0.15005364217E+03  0.80499548380E+02 0.  0.
         -6    2    1    2    0  501  0.73167748305E+02 -0.24322948410E+02 -0.21238950088E+03  0.28968520924E+03  0.18128181143E+03 0.  0.
        -24    2    5    5    0    0  0.23724041232E+02 -0.10296009029E+02 -0.24495079983E+02  0.94831832050E+02  0.87887595782E+02 0.  0.
          5    1    3    3  502    0 -0.52387327531E+02 -0.16179464016E+01 -0.42659382801E+03  0.42982721404E+03  0.47000000000E+01 0. -1.
        -13    1    4    4    0    0  0.22041819234E+02  0.36657880426E+02 -0.55394903412E+02  0.69987408271E+02  0.00000000000E+00 0.  1.
         14    1    4    4    0    0 -0.42822240008E+02 -0.10716985615E+02 -0.66798231941E+02  0.80066233897E+02  0.00000000000E+00 0. -1.
         -5    1    5    5    0  501  0.49443707073E+02 -0.14026939381E+02 -0.18789442090E+03  0.19485337719E+03  0.47000000000E+01 0.  1.
         13    1    6    6    0    0  0.33470811822E+02  0.31958816340E+02 -0.28505126095E+01  0.46365791355E+02  0.00000000000E+00 0. -1.
        -14    1    6    6    0    0 -0.97467705900E+01 -0.42254825369E+02 -0.21644567373E+02  0.48466040695E+02  0.00000000000E+00 0.  1.
</event>
<event>
12    1  0.2614920E-002  0.1947690E+03  0.7818608E-02  0.1154229E+00
          2   -1    0    0  502    0  0.00000000000E+00  0.00000000000E+00  0.25707105980E+03  0.25707105980E+03  0.00000000000E+00 0.  1.
         -2   -1    0    0    0  501 -0.00000000000E+00 -0.00000000000E+00 -0.17248330595E+03  0.17248330595E+03  0.00000000000E+00 0. -1.
          6    2    1    2  502    0  0.42777606773E+02 -0.78544277239E+02  0.12392313348E+03  0.23083465011E+03  0.17299874437E+03 0.  0.
         24    2    3    3    0    0  0.33630341569E+02  0.60664752752E+01  0.11772575843E+03  0.14537618442E+03  0.78147800999E+02 0.  0.
         -6    2    1    2    0  501 -0.42777606773E+02  0.78544277239E+02 -0.39335379629E+02  0.19871971564E+03  0.17304082225E+03 0.  0.
        -24    2    5    5    0    0 -0.56460300418E+02 -0.16322076651E+02 -0.14594196992E+02  0.99618467799E+02  0.79099132937E+02 0.  0.
          5    1    3    3  502    0  0.91472652042E+01 -0.84610752514E+02  0.61973750465E+01  0.85458465696E+02  0.47000000000E+01 0. -1.
        -11    1    4    4    0    0  0.31374753784E+02  0.38381567317E+02  0.50568682421E+02  0.70814627914E+02  0.00000000000E+00 0.  1.
         12    1    4    4    0    0  0.22555877848E+01 -0.32315092042E+02  0.67157076010E+02  0.74561556503E+02  0.00000000000E+00 0. -1.
         -5    1    5    5    0  501  0.13682693645E+02  0.94866353890E+02 -0.24741182637E+02  0.99101247843E+02  0.47000000000E+01 0.  1.
         13    1    6    6    0    0  0.16101133422E+01  0.15667141095E+02 -0.27862105859E+02  0.32005448254E+02  0.00000000000E+00 0. -1.
        -14    1    6    6    0    0 -0.58070413761E+02 -0.31989217746E+02  0.13267908867E+02  0.67613019545E+02  0.00000000000E+00 0.  1.
</event>
<event>
12    1  0.2614920E-002  0.1869849E+03  0.7818608E-02  0.1161209E+00
          2   -1    0    0  502    0  0.00000000000E+00  0.00000000000E+00  0.10483718077E+04  0.10483718077E+04  0.00000000000E+00 0. -1.
         -2   -1    0    0    0  501 -0.00000000000E+00 -0.00000000000E+00 -0.39908904610E+02  0.39908904610E+02  0.00000000000E+00 0.  1.
          6    2    1    2  502    0  0.69613720316E+02 -0.12525905288E+02  0.72159341209E+03  0.74507375653E+03  0.17156596964E+03 0.  0.
         24    2    3    3    0    0  0.85897227610E+02 -0.42905767777E+02  0.33986684750E+03  0.36176533141E+03  0.78392871877E+02 0.  0.
         -6    2    1    2    0  501 -0.69613720316E+02  0.12525905288E+02  0.28686949095E+03  0.34320695573E+03  0.17462514499E+03 0.  0.
        -24    2    5    5    0    0 -0.57502424442E+02 -0.58337277433E+02  0.16975611120E+03  0.20570819985E+03  0.82395142086E+02 0.  0.
          5    1    3    3  502    0 -0.16283507294E+02  0.30379862488E+02  0.38172656459E+03  0.38330842512E+03  0.47000000000E+01 0. -1.
        -11    1    4    4    0    0  0.51729619284E+02  0.18914552035E+01  0.76021475785E+02  0.91971712469E+02  0.00000000000E+00 0.  1.
         12    1    4    4    0    0  0.34167608326E+02 -0.44797222980E+02  0.26384537172E+03  0.26979361895E+03  0.00000000000E+00 0. -1.
         -5    1    5    5    0  501 -0.12111295874E+02  0.70863182722E+02  0.11711337975E+03  0.13749875588E+03  0.47000000000E+01 0.  1.
         13    1    6    6    0    0  0.80271359100E+00 -0.41866707629E+02  0.12068078159E+03  0.12773925239E+03  0.00000000000E+00 0. -1.
        -14    1    6    6    0    0 -0.58305138033E+02 -0.16470569805E+02  0.49075329612E+02  0.77968947455E+02  0.00000000000E+00 0.  1.
</event>
<event>
12    1  0.2614920E-002  0.2438596E+03  0.7818608E-02  0.1117248E+00
          1   -1    0    0  502    0  0.00000000000E+00  0.00000000000E+00  0.14775095689E+03  0.14775095689E+03  0.00000000000E+00 0.  1.
         -1   -1    0    0    0  501 -0.00000000000E+00 -0.00000000000E+00 -0.44369490695E+03  0.44369490695E+03  0.00000000000E+00 0. -1.
          6    2    1    2  502    0  0.15062064592E+03 -0.82450310983E+02 -0.57531841455E+02  0.24999296372E+03  0.17234249729E+03 0.  0.
         24    2    3    3    0    0  0.16071902579E+03 -0.20455886002E+02 -0.40549624105E+02  0.18475668769E+03  0.79004513208E+02 0.  0.
         -6    2    1    2    0  501 -0.15062064592E+03  0.82450310983E+02 -0.23841210861E+03  0.34145290011E+03  0.17396872336E+03 0.  0.
        -24    2    5    5    0    0 -0.67461826924E+02  0.75260079955E+02 -0.51690934616E+02  0.13687045850E+03  0.76461702586E+02 0.  0.
          5    1    3    3  502    0 -0.10098379869E+02 -0.61994424981E+02 -0.16982217349E+02  0.65236276034E+02  0.47000000000E+01 0. -1.
        -13    1    4    4    0    0  0.78691199659E+02 -0.86430899156E+01  0.20557116890E+02  0.81789993042E+02  0.00000000000E+00 0.  1.
         14    1    4    4    0    0  0.82027826130E+02 -0.11812796086E+02 -0.61106740995E+02  0.10296669464E+03  0.00000000000E+00 0. -1.
         -5    1    5    5    0  501 -0.83158818996E+02  0.71902310274E+01 -0.18672117399E+03  0.20458244161E+03  0.47000000000E+01 0.  1.
         13    1    6    6    0    0 -0.21971471869E+02  0.53417799141E+02 -0.62669920410E+02  0.85227494186E+02  0.00000000000E+00 0. -1.
        -14    1    6    6    0    0 -0.45490355056E+02  0.21842280815E+02  0.10978985794E+02  0.51642964316E+02  0.00000000000E+00 0.  1.
</event>
<event>
12    1  0.2614920E-002  0.1730478E+03  0.7818608E-02  0.1174706E+00
         -2   -1    0    0    0  501 -0.00000000000E+00  0.00000000000E+00  0.41239287643E+02  0.41239287643E+02  0.00000000000E+00 0.  1.
          2   -1    0    0  502    0  0.00000000000E+00 -0.00000000000E+00 -0.76061000202E+03  0.76061000202E+03  0.00000000000E+00 0. -1.
          6    2    1    2  502    0  0.20502429282E+02  0.33642534245E+01 -0.27565610845E+03  0.32582273439E+03  0.17246012963E+03 0.  0.
         24    2    3    3    0    0 -0.44974179107E+02 -0.20868902393E+02 -0.91874506297E+02  0.12917025061E+03  0.76064714956E+02 0.  0.
         -6    2    1    2    0  501 -0.20502429282E+02 -0.33642534245E+01 -0.44371460593E+03  0.47602655527E+03  0.17113433906E+03 0.  0.
        -24    2    5    5    0    0 -0.26853407367E+02  0.51635670022E+02 -0.37828130076E+03  0.39018406040E+03  0.75891439417E+02 0.  0.
          5    1    3    3  502    0  0.65476608389E+02  0.24233155818E+02 -0.18378160215E+03  0.19665248378E+03  0.47000000000E+01 0. -1.
        -11    1    4    4    0    0  0.60978172654E+01 -0.32261757962E+02 -0.58565124483E+02  0.67140734341E+02  0.00000000000E+00 0.  1.
         12    1    4    4    0    0 -0.51071996372E+02  0.11392855569E+02 -0.33309381814E+02  0.62029516267E+02  0.00000000000E+00 0. -1.
         -5    1    5    5    0  501  0.63509780848E+01 -0.54999923447E+02 -0.65433305166E+02  0.85842494877E+02  0.47000000000E+01 0.  1.
         11    1    6    6    0    0 -0.90211898312E+01  0.27661497861E+02 -0.34176636858E+03  0.34300261081E+03  0.00000000000E+00 0. -1.
        -12    1    6    6    0    0 -0.17832217536E+02  0.23974172161E+02 -0.36514932183E+02  0.47181449589E+02  0.00000000000E+00 0.  1.
</event>
<event>
12    1  0.2614920E-002  0.2512360E+03  0.7818608E-02  0.1112526E+00
          2   -1    0    0  502    0  0.00000000000E+00  0.00000000000E+00  0.73866782812E+03  0.73866782812E+03  0.00000000000E+00 0.  1.
         -2   -1    0    0    0  501 -0.00000000000E+00 -0.00000000000E+00 -0.95136460897E+02  0.95136460897E+02  0.00000000000E+00 0. -1.
          6    2    1    2  502    0  0.18058651690E+03  0.40276247126E+02  0.45555125715E+03  0.52055905866E+03  0.17094185997E+03 0.  0.
         24    2    3    3    0    0  0.39989859700E+02  0.73610495246E+02  0.19515277220E+03  0.22272008693E+03  0.67096488255E+02 0.  0.
         -6    2    1    2    0  501 -0.18058651690E+03 -0.40276247126E+02  0.18798011007E+03  0.31324523036E+03  0.16897451403E+03 0.  0.
        -24    2    5    5    0    0 -0.87532011914E+02 -0.80899893103E+02  0.14121354481E+03  0.20135857728E+03  0.79983533263E+02 0.  0.
          5    1    3    3  502    0  0.14059665720E+03 -0.33334248120E+02  0.26039848495E+03  0.29783897172E+03  0.47000000000E+01 0. -1.
        -11    1    4    4    0    0  0.47257948698E+02  0.32588982388E+02  0.15317501987E+03  0.16357855055E+03  0.00000000000E+00 0.  1.
         12    1    4    4    0    0 -0.72680889978E+01  0.41021512858E+02  0.41977752334E+02  0.59141536384E+02  0.00000000000E+00 0. -1.
         -5    1    5    5    0  501 -0.93054504986E+02  0.40623645977E+02  0.46766565260E+02  0.11188665308E+03  0.47000000000E+01 0.  1.
         11    1    6    6    0    0  0.12968306034E+02 -0.37403108513E-01  0.22934921668E+02  0.26347466525E+02  0.00000000000E+00 0. -1.
        -12    1    6    6    0    0 -0.10050031795E+03 -0.80862489995E+02  0.11827862315E+03  0.17501111076E+03  0.00000000000E+00 0.  1.
</event>
<event>
12    1  0.2614920E-002  0.1878041E+03  0.7818608E-02  0.1160457E+00
          2   -1    0    0  502    0  0.00000000000E+00  0.00000000000E+00  0.22160949199E+04  0.22160949199E+04  0.00000000000E+00 0. -1.
         -2   -1    0    0    0  501 -0.00000000000E+00 -0.00000000000E+00 -0.33805161895E+02  0.33805161895E+02  0.00000000000E+00 0.  1.
          6    2    1    2  502    0  0.73809338582E+02 -0.16091658305E+02  0.19072210554E+04  0.19163643623E+04  0.17103641395E+03 0.  0.
         24    2    3    3    0    0  0.52306616361E+02  0.34165240535E+02  0.16604416043E+04  0.16635594762E+04  0.80377632122E+02 0.  0.
         -6    2    1    2    0  501 -0.73809338582E+02  0.16091658305E+02  0.27506870261E+03  0.33353571953E+03  0.17284827195E+03 0.  0.
        -24    2    5    5    0    0 -0.48078673133E+02 -0.32351494902E+02  0.25810255174E+03  0.27592715669E+03  0.78490066572E+02 0.  0.
          5    1    3    3  502    0  0.21502722221E+02 -0.50256898840E+02  0.24677945114E+03  0.25280488612E+03  0.47000000000E+01 0. -1.
        -11    1    4    4    0    0 -0.36143297428E+01  0.19193093592E+02  0.92014842532E+02  0.94064708936E+02  0.00000000000E+00 0.  1.
         12    1    4    4    0    0  0.55920946104E+02  0.14972146943E+02  0.15684267617E+04  0.15694947672E+04  0.00000000000E+00 0. -1.
         -5    1    5    5    0  501 -0.25730665450E+02  0.48443153207E+02  0.16966150869E+02  0.57608562839E+02  0.47000000000E+01 0.  1.
         11    1    6    6    0    0  0.24575961336E+01 -0.65185290011E+01  0.17588149048E+03  0.17601940147E+03  0.00000000000E+00 0. -1.
        -12    1    6    6    0    0 -0.50536269266E+02 -0.25832965901E+02  0.82221061258E+02  0.99907755220E+02  0.00000000000E+00 0.  1.
</event>
<event>
12    1  0.2614920E-002  0.3686170E+03  0.7818608E-02  0.1055223E+00
          2   -1    0    0  502    0  0.00000000000E+00  0.00000000000E+00  0.36551363592E+04  0.36551363592E+04  0.00000000000E+00 0. -1.
         -2   -1    0    0    0  501 -0.00000000000E+00 -0.00000000000E+00 -0.37880960574E+02  0.37880960574E+02  0.00000000000E+00 0.  1.
          6    2    1    2  502    0 -0.32537886714E+03  0.10796913163E+01  0.15535326814E+04  0.15965234027E+04  0.17190290944E+03 0.  0.
         24    2    3    3    0    0 -0.54540054328E+02 -0.18659871790E+02  0.46116582565E+03  0.47089879813E+03  0.75821837151E+02 0.  0.
         -6    2    1    2    0  501  0.32537886714E+03 -0.10796913163E+01  0.20637227172E+04  0.20964939170E+04  0.17453572074E+03 0.  0.
        -24    2    5    5    0    0  0.27938425019E+03 -0.44005125245E+02  0.18658337225E+04  0.18887916256E+04  0.78780165352E+02 0.  0.
          5    1    3    3  502    0 -0.27083881282E+03  0.19739563106E+02  0.10923668557E+04  0.11256246046E+04  0.47000000000E+01 0. -1.
        -11    1    4    4    0    0  0.57130910799E+01  0.20962619789E+02  0.14459156319E+03  0.14621487949E+03  0.00000000000E+00 0.  1.
         12    1    4    4    0    0 -0.60253145408E+02 -0.39622491579E+02  0.31657426246E+03  0.32468391864E+03  0.00000000000E+00 0. -1.
         -5    1    5    5    0  501  0.45994616953E+02  0.42925433929E+02  0.19788899466E+03  0.20770229145E+03  0.47000000000E+01 0.  1.
         11    1    6    6    0    0  0.59477662016E+01 -0.17568622245E+02  0.14194121843E+03  0.14314797205E+03  0.00000000000E+00 0. -1.
        -12    1    6    6    0    0  0.27343648399E+03 -0.26436503000E+02  0.17238925041E+04  0.17456436535E+04  0.00000000000E+00 0.  1.
</event>
<event>
12    1  0.2614920E-002  0.3353443E+03  0.7818608E-02  0.1068796E+00
          1   -1    0    0  502    0  0.00000000000E+00  0.00000000000E+00  0.65907986921E+03  0.65907986921E+03  0.00000000000E+00 0.  1.
         -1   -1    0    0    0  501 -0.00000000000E+00 -0.00000000000E+00 -0.56033418137E+03  0.56033418137E+03  0.00000000000E+00 0. -1.
          6    2    1    2  502    0 -0.26102906428E+03  0.11469682686E+03  0.55773975215E+03  0.64967273590E+03  0.17236443413E+03 0.  0.
         24    2    3    3    0    0 -0.76638640990E+02  0.68595594842E+02  0.31322010850E+03  0.33993559262E+03  0.82888683413E+02 0.  0.
         -6    2    1    2    0  501  0.26102906428E+03 -0.11469682686E+03 -0.45899406430E+03  0.56974131468E+03  0.18066012316E+03 0.  0.
        -24    2    5    5    0    0  0.27012575764E+03 -0.68434121697E+02 -0.38494732018E+03  0.48183228196E+03  0.79540899383E+02 0.  0.
          5    1    3    3  502    0 -0.18439042329E+03  0.46101232021E+02  0.24451964365E+03  0.30973714328E+03  0.47000000000E+01 0. -1.
        -11    1    4    4    0    0 -0.72406414918E+01  0.27869938595E+02  0.18027902388E+02  0.33973013276E+02  0.00000000000E+00 0.  1.
         12    1    4    4    0    0 -0.69397999498E+02  0.40725656247E+02  0.29519220611E+03  0.30596257934E+03  0.00000000000E+00 0. -1.
         -5    1    5    5    0  501 -0.90966933560E+01 -0.46262705165E+02 -0.74046744120E+02  0.87909032721E+02  0.47000000000E+01 0.  1.
         13    1    6    6    0    0  0.78420657184E+02 -0.16702741004E+02 -0.56705811401E+02  0.98205550132E+02  0.00000000000E+00 0. -1.
        -14    1    6    6    0    0  0.19170510046E+03 -0.51731380693E+02 -0.32824150878E+03  0.38362673183E+03  0.00000000000E+00 0.  1.
</event>
<event>
12    1  0.2614920E-002  0.5959761E+03  0.7818608E-02  0.9913790E-01
          1   -1    0    0  502    0  0.00000000000E+00  0.00000000000E+00  0.18698001016E+04  0.18698001016E+04  0.00000000000E+00 0. -1.
         -1   -1    0    0    0  501 -0.00000000000E+00 -0.00000000000E+00 -0.22560902313E+03  0.22560902313E+03  0.00000000000E+00 0.  1.
          6    2    1    2  502    0 -0.26079918793E+02 -0.56998157377E+03  0.12386356373E+04  0.13745827809E+04  0.17233810665E+03 0.  0.
         24    2    3    3    0    0  0.48935523780E+02 -0.28552642491E+03  0.67042209632E+03  0.73471500825E+03  0.80126969950E+02 0.  0.
         -6    2    1    2    0  501  0.26079918793E+02  0.56998157377E+03  0.40555544116E+03  0.72082634381E+03  0.17191929929E+03 0.  0.
        -24    2    5    5    0    0  0.69498563861E+01  0.52923575329E+03  0.31870890289E+03  0.62289477390E+03  0.79270117348E+02 0.  0.
          5    1    3    3  502    0 -0.75015442573E+02 -0.28445514886E+03  0.56821354100E+03  0.63986777268E+03  0.47000000000E+01 0. -1.
        -13    1    4    4    0    0 -0.85506958535E+01 -0.10243250426E+03  0.16875519729E+03  0.19759516426E+03  0.00000000000E+00 0.  1.
         14    1    4    4    0    0  0.57486219633E+02 -0.18309392065E+03  0.50166689903E+03  0.53711984399E+03  0.00000000000E+00 0. -1.
         -5    1    5    5    0  501  0.19130062407E+02  0.40745820479E+02  0.86846538277E+02  0.97931569909E+02  0.47000000000E+01 0.  1.
         11    1    6    6    0    0  0.13070458881E+02  0.24109903075E+02  0.31607152828E+02  0.41846582077E+02  0.00000000000E+00 0. -1.
        -12    1    6    6    0    0 -0.61206024947E+01  0.50512585022E+03  0.28710175006E+03  0.58104819182E+03  0.00000000000E+00 0.  1.
</event>
<event>
12    1  0.2614920E-002  0.3500610E+03  0.7818608E-02  0.1062590E+00
          2   -1    0    0  502    0  0.00000000000E+00  0.00000000000E+00  0.98693126763E+03  0.98693126763E+03  0.00000000000E+00 0. -1.
         -2   -1    0    0    0  501 -0.00000000000E+00 -0.00000000000E+00 -0.19271338619E+03  0.19271338619E+03  0.00000000000E+00 0.  1.
          6    2    1    2  502    0 -0.27432180212E+03  0.13325361087E+03  0.45442174804E+02  0.35314235153E+03  0.17214979891E+03 0.  0.
         24    2    3    3    0    0 -0.94585529159E+02 -0.42902325423E+01  0.10986562075E+02  0.12416043974E+03  0.79563068246E+02 0.  0.
         -6    2    1    2    0  501  0.27432180212E+03 -0.13325361087E+03  0.74877570663E+03  0.82650230228E+03  0.17155763143E+03 0.  0.
        -24    2    5    5    0    0  0.10026938906E+03 -0.36779492744E+02  0.18515079328E+03  0.22875935510E+03  0.81506716416E+02 0.  0.
          5    1    3    3  502    0 -0.17973627296E+03  0.13754384341E+03  0.34455612729E+02  0.22898191179E+03  0.47000000000E+01 0. -1.
        -11    1    4    4    0    0 -0.52317161049E+01  0.16027425720E+01  0.31765503811E+02  0.32233319244E+02  0.00000000000E+00 0.  1.
         12    1    4    4    0    0 -0.89353813054E+02 -0.58929751143E+01 -0.20778941735E+02  0.91927120496E+02  0.00000000000E+00 0. -1.
         -5    1    5    5    0  501  0.17405241306E+03 -0.96474118126E+02  0.56362491335E+03  0.59774294718E+03  0.47000000000E+01 0.  1.
         11    1    6    6    0    0 -0.47077506625E+01  0.24100687406E+01  0.62134359497E+02  0.62359040866E+02  0.00000000000E+00 0. -1.
        -12    1    6    6    0    0  0.10497713973E+03 -0.39189561485E+02  0.12301643379E+03  0.16640031423E+03  0.00000000000E+00 0.  1.
</event>
<event>
12    1  0.2614920E-002  0.2228258E+03  0.7818608E-02  0.1131794E+00
          1   -1    0    0  502    0  0.00000000000E+00  0.00000000000E+00  0.29451148487E+03  0.29451148487E+03  0.00000000000E+00 0. -1.
         -1   -1    0    0    0  501 -0.00000000000E+00 -0.00000000000E+00 -0.22651650974E+03  0.22651650974E+03  0.00000000000E+00 0.  1.
          6    2    1    2  502    0  0.11129201146E+03  0.89908288519E+02  0.16567259754E+03  0.27720592427E+03  0.17007734334E+03 0.  0.
         24    2    3    3    0    0  0.11832535821E+03  0.41419022224E+02  0.59063067436E+02  0.15978208163E+03  0.79532646622E+02 0.  0.
         -6    2    1    2    0  501 -0.11129201146E+03 -0.89908288519E+02 -0.97677622412E+02  0.24382207034E+03  0.17157759733E+03 0.  0.
        -24    2    5    5    0    0 -0.13600126296E+02 -0.76118078168E+02 -0.92316473437E+02  0.14490439625E+03  0.80597937480E+02 0.  0.
          5    1    3    3  502    0 -0.70333467486E+01  0.48489266295E+02  0.10660953010E+03  0.11742384264E+03  0.47000000000E+01 0. -1.
        -13    1    4    4    0    0  0.87819312019E+02  0.14644993471E+02  0.11226069339E+01  0.89039135461E+02  0.00000000000E+00 0.  1.
         14    1    4    4    0    0  0.30506046188E+02  0.26774028753E+02  0.57940460502E+02  0.70742946171E+02  0.00000000000E+00 0. -1.
         -5    1    5    5    0  501 -0.97691885163E+02 -0.13790210352E+02 -0.53611489755E+01  0.98917674086E+02  0.47000000000E+01 0.  1.
         11    1    6    6    0    0  0.28578914018E+02 -0.12510716535E+02 -0.10260611604E+02  0.32841323133E+02  0.00000000000E+00 0. -1.
        -12    1    6    6    0    0 -0.42179040314E+02 -0.63607361632E+02 -0.82055861833E+02  0.11206307312E+03  0.00000000000E+00 0.  1.
</event>
<event>
12    1  0.2614920E-002  0.1891709E+03  0.7818608E-02  0.1159211E+00
         -2   -1    0    0    0  501 -0.00000000000E+00  0.00000000000E+00  0.33476709898E+02  0.33476709898E+02  0.00000000000E+00 0.  1.
          2   -1    0    0  502    0  0.00000000000E+00 -0.00000000000E+00 -0.10842182102E+04  0.10842182102E+04  0.00000000000E+00 0. -1.
          6    2    1    2  502    0  0.78713750558E+02 -0.50225423041E+01 -0.59192708837E+03  0.62145217716E+03  0.17205827529E+03 0.  0.
         24    2    3    3    0    0  0.14038722061E+02 -0.62127173499E+02 -0.31767267354E+03  0.33390848958E+03  0.80759398800E+02 0.  0.
         -6    2    1    2    0  501 -0.78713750558E+02  0.50225423041E+01 -0.45881441191E+03  0.49624274291E+03  0.17182873700E+03 0.  0.
        -24    2    5    5    0    0 -0.12158919984E+03  0.18707493555E+02 -0.34735344458E+03  0.37594636192E+03  0.74480519249E+02 0.  0.
          5    1    3    3  502    0  0.64675028497E+02  0.57104631195E+02 -0.27425441482E+03  0.28754368758E+03  0.47000000000E+01 0. -1.
        -13    1    4    4    0    0  0.79744218881E+01 -0.15843263958E+02 -0.59473584151E+01  0.18707524941E+02  0.00000000000E+00 0.  1.
         14    1    4    4    0    0  0.60643001728E+01 -0.46283909542E+02 -0.31172531513E+03  0.31520096464E+03  0.00000000000E+00 0. -1.
         -5    1    5    5    0  501  0.42875449281E+02 -0.13684951250E+02 -0.11146096733E+03  0.12029638099E+03  0.47000000000E+01 0.  1.
         13    1    6    6    0    0  0.87065087983E+01 -0.67694020379E+01 -0.25088442610E+02  0.27405438365E+02  0.00000000000E+00 0. -1.
        -14    1    6    6    0    0 -0.13029570864E+03  0.25476895592E+02 -0.32226500197E+03  0.34854092356E+03  0.00000000000E+00 0.  1.
</event>
<event>
12    1  0.2614920E-002  0.1777872E+03  0.7818608E-02  0.1169962E+00
         -2   -1    0    0    0  501 -0.00000000000E+00  0.00000000000E+00  0.75134508329E+02  0.75134508329E+02  0.00000000000E+00 0. -1.
          2   -1    0    0  502    0  0.00000000000E+00 -0.00000000000E+00 -0.68502449852E+03  0.68502449852E+03  0.00000000000E+00 0.  1.
          6    2    1    2  502    0  0.18670504005E+02 -0.41451747300E+02 -0.68685825902E+02  0.19045425193E+03  0.17172141487E+03 0.  0.
         24    2    3    3    0    0  0.54673242307E+02 -0.53344737381E+02 -0.93543413875E+02  0.14487322454E+03  0.80019100714E+02 0.  0.
         -6    2    1    2    0  501 -0.18670504005E+02  0.41451747300E+02 -0.54120416429E+03  0.56970475491E+03  0.17203117524E+03 0.  0.
        -24    2    5    5    0    0  0.34929695522E+02  0.57583198844E+02 -0.21653412547E+03  0.24021131155E+03  0.79237227880E+02 0.  0.
          5    1    3    3  502    0 -0.36002738301E+02  0.11892990081E+02  0.24857587973E+02  0.45581027392E+02  0.47000000000E+01 0. -1.
        -11    1    4    4    0    0  0.41895770892E+02  0.10867263440E+02 -0.24550148418E+02  0.49760052459E+02  0.00000000000E+00 0.  1.
         12    1    4    4    0    0  0.12777471414E+02 -0.64212000821E+02 -0.68993265457E+02  0.95113172082E+02  0.00000000000E+00 0. -1.
         -5    1    5    5    0  501 -0.53600199527E+02 -0.16131451544E+02 -0.32467003881E+03  0.32949344337E+03  0.47000000000E+01 0.  1.
         11    1    6    6    0    0  0.12169980298E+01  0.62769405740E+02 -0.17801201736E+03  0.18875846393E+03  0.00000000000E+00 0. -1.
        -12    1    6    6    0    0  0.33712697492E+02 -0.51862068959E+01 -0.38522108110E+02  0.51452847612E+02  0.00000000000E+00 0.  1.
</event>
<event>
12    1  0.2614920E-002  0.1829582E+03  0.7818608E-02  0.1164970E+00
          3   -1    0    0  502    0  0.00000000000E+00  0.00000000000E+00  0.26572694142E+02  0.26572694142E+02  0.00000000000E+00 0. -1.
         -3   -1    0    0    0  501 -0.00000000000E+00 -0.00000000000E+00 -0.12730277605E+04  0.12730277605E+04  0.00000000000E+00 0.  1.
          6    2    1    2  502    0 -0.20890677135E+02 -0.59459163708E+02 -0.68860754046E+03  0.71241545824E+03  0.17141653312E+03 0.  0.
         24    2    3    3    0    0  0.35291306794E+02 -0.84132141610E+02 -0.48122183225E+03  0.49609141167E+03  0.78794310137E+02 0.  0.
         -6    2    1    2    0  501  0.20890677135E+02  0.59459163708E+02 -0.55784752586E+03  0.58718499636E+03  0.17210620355E+03 0.  0.
        -24    2    5    5    0    0 -0.43517349563E+02  0.27930725857E+02 -0.43168492280E+03  0.44199020063E+03  0.79558655844E+02 0.  0.
          5    1    3    3  502    0 -0.56181983929E+02  0.24672977902E+02 -0.20738570821E+03  0.21632404657E+03  0.47000000000E+01 0. -1.
        -11    1    4    4    0    0  0.54843444044E+02 -0.29055368013E+02 -0.24138482438E+03  0.24923613543E+03  0.00000000000E+00 0.  1.
         12    1    4    4    0    0 -0.19552137250E+02 -0.55076773597E+02 -0.23983700787E+03  0.24685527623E+03  0.00000000000E+00 0. -1.
         -5    1    5    5    0  501  0.64408026697E+02  0.31528437851E+02 -0.12616260306E+03  0.14519479573E+03  0.47000000000E+01 0.  1.
         11    1    6    6    0    0 -0.19491244218E+02 -0.27880848881E+02 -0.14510664150E+03  0.14904089285E+03  0.00000000000E+00 0. -1.
        -12    1    6    6    0    0 -0.24026105344E+02  0.55811574739E+02 -0.28657828130E+03  0.29294930778E+03  0.00000000000E+00 0.  1.
</event>
<event>
12    1  0.2614920E-002  0.1742381E+03  0.7818608E-02  0.1173499E+00
          2   -1    0    0  502    0  0.00000000000E+00  0.00000000000E+00  0.10236085342E+04  0.10236085342E+04  0.00000000000E+00 0.  1.
         -2   -1    0    0    0  501 -0.00000000000E+00 -0.00000000000E+00 -0.52258473164E+02  0.52258473164E+02  0.00000000000E+00 0. -1.
          6    2    1    2  502    0 -0.25068023784E+01 -0.31829912691E+02  0.13335963875E+03  0.22013725567E+03  0.17220972878E+03 0.  0.
         24    2    3    3    0    0  0.32885822608E+02 -0.62151620694E+02  0.37855841336E+02  0.11376475358E+03  0.81025015587E+02 0.  0.
         -6    2    1    2    0  501  0.25068023784E+01  0.31829912691E+02  0.83799042233E+03  0.85572975174E+03  0.17037028114E+03 0.  0.
        -24    2    5    5    0    0 -0.10037949071E+02  0.53885557426E+02  0.26357665830E+03  0.28073663477E+03  0.79598929524E+02 0.  0.
          5    1    3    3  502    0 -0.35392624986E+02  0.30321708003E+02  0.95503797410E+02  0.10637250208E+03  0.47000000000E+01 0. -1.
        -13    1    4    4    0    0 -0.24863724827E+02 -0.51360269926E+01  0.14855473454E+02  0.29415449633E+02  0.00000000000E+00 0.  1.
         14    1    4    4    0    0  0.57749547435E+02 -0.57015593701E+02  0.23000367882E+02  0.84349303950E+02  0.00000000000E+00 0. -1.
         -5    1    5    5    0  501  0.12544751449E+02 -0.22055644735E+02  0.57441376403E+03  0.57499311697E+03  0.47000000000E+01 0.  1.
         11    1    6    6    0    0 -0.25091831411E+02 -0.24141023166E+01  0.15928146476E+03  0.16126379913E+03  0.00000000000E+00 0. -1.
        -12    1    6    6    0    0  0.15053882340E+02  0.56299659743E+02  0.10429519354E+03  0.11947283564E+03  0.00000000000E+00 0.  1.
</event>
<event>
12    1  0.2614920E-002  0.1930518E+03  0.7818608E-02  0.1155737E+00
          1   -1    0    0  502    0  0.00000000000E+00  0.00000000000E+00  0.17338950203E+03  0.17338950203E+03  0.00000000000E+00 0.  1.
         -1   -1    0    0    0  501 -0.00000000000E+00 -0.00000000000E+00 -0.21818043964E+03  0.21818043964E+03  0.00000000000E+00 0. -1.
          6    2    1    2  502    0 -0.61931604870E+02  0.60751318260E+02  0.13829329375E+01  0.19359709263E+03  0.17306552348E+03 0.  0.
         24    2    3    3    0    0 -0.27602199849E+02  0.10100012048E+03 -0.25625666637E+02  0.13401497635E+03  0.79626837948E+02 0.  0.
         -6    2    1    2    0  501  0.61931604870E+02 -0.60751318260E+02 -0.46173870542E+02  0.19797284904E+03  0.17185743012E+03 0.  0.
        -24    2    5    5    0    0  0.80019695409E+02 -0.76718975155E+02 -0.78600446322E+02  0.15728233537E+03  0.79188067638E+02 0.  0.
          5    1    3    3  502    0 -0.34329405022E+02 -0.40248802220E+02  0.27008599575E+02  0.59582116279E+02  0.47000000000E+01 0. -1.
        -11    1    4    4    0    0  0.12398540873E+02  0.67030439742E+01  0.17846786971E+02  0.22741205321E+02  0.00000000000E+00 0.  1.
         12    1    4    4    0    0 -0.40000740722E+02  0.94297076506E+02 -0.43472453608E+02  0.11127377103E+03  0.00000000000E+00 0. -1.
         -5    1    5    5    0  501 -0.18088090539E+02  0.15967656895E+02  0.32426575780E+02  0.40690513671E+02  0.47000000000E+01 0.  1.
         13    1    6    6    0    0  0.45424353423E+02 -0.25932301442E+02  0.60770748009E+01  0.52657259519E+02  0.00000000000E+00 0. -1.
        -14    1    6    6    0    0  0.34595341987E+02 -0.50786673713E+02 -0.84677521123E+02  0.10462507585E+03  0.00000000000E+00 0.  1.
</event>
<event>
12    1  0.2614920E-002  0.2495031E+03  0.7818608E-02  0.1113619E+00
          2   -1    0    0  502    0  0.00000000000E+00  0.00000000000E+00  0.14197412523E+03  0.14197412523E+03  0.00000000000E+00 0.  1.
         -2   -1    0    0    0  501 -0.00000000000E+00 -0.00000000000E+00 -0.44329245782E+03  0.44329245782E+03  0.00000000000E+00 0. -1.
          6    2    1    2  502    0  0.17082065686E+03  0.54868430890E+02 -0.12057411834E+03  0.27773963936E+03  0.17438734970E+03 0.  0.
         24    2    3    3    0    0  0.16184056724E+03  0.18800097241E+02 -0.35246448671E+02  0.18454914675E+03  0.79184989484E+02 0.  0.
         -6    2    1    2    0  501 -0.17082065686E+03 -0.54868430890E+02 -0.18074421425E+03  0.30752694370E+03  0.17237780773E+03 0.  0.
        -24    2    5    5    0    0 -0.13094269269E+03 -0.97774139501E+02 -0.99847186192E+02  0.20753908940E+03  0.79982760117E+02 0.  0.
          5    1    3    3  502    0  0.89800896228E+01  0.36068333649E+02 -0.85327669667E+02  0.93190492609E+02  0.47000000000E+01 0. -1.
        -13    1    4    4    0    0  0.80061956766E+02  0.46754975243E+02 -0.45182397378E+01  0.92824345522E+02  0.00000000000E+00 0.  1.
         14    1    4    4    0    0  0.81778610476E+02 -0.27954878003E+02 -0.30728208934E+02  0.91724801225E+02  0.00000000000E+00 0. -1.
         -5    1    5    5    0  501 -0.39877964173E+02  0.42905708612E+02 -0.80897028059E+02  0.99987854297E+02  0.47000000000E+01 0.  1.
         13    1    6    6    0    0  0.94070805513E+00  0.10628373178E+02 -0.99948291234E+01  0.14619981439E+02  0.00000000000E+00 0. -1.
        -14    1    6    6    0    0 -0.13188340075E+03 -0.10840251268E+03 -0.89852357069E+02  0.19291910797E+03  0.00000000000E+00 0.  1.
</event>
<event>
12    1  0.2614920E-002  0.1826423E+03  0.7818608E-02  0.1165270E+00
         -2   -1    0    0    0  501 -0.00000000000E+00  0.00000000000E+00  0.32387807154E+02  0.32387807154E+02  0.00000000000E+00 0.  1.
          2   -1    0    0  502    0  0.00000000000E+00 -0.00000000000E+00 -0.10307443548E+04  0.10307443548E+04  0.00000000000E+00 0. -1.
          6    2    1    2  502    0  0.13084015611E+02  0.60590191822E+02 -0.51373059862E+03  0.54521999489E+03  0.17176539833E+03 0.  0.
         24    2    3    3    0    0  0.29946294259E+02  0.34076470417E+02 -0.50251484999E+03  0.51152731199E+03  0.84148856647E+02 0.  0.
         -6    2    1    2    0  501 -0.13084015611E+02 -0.60590191822E+02 -0.48462594907E+03  0.51791216710E+03  0.17183812009E+03 0.  0.
        -24    2    5    5    0    0  0.15893143336E+02 -0.26193780010E+02 -0.45722490797E+03  0.46503782607E+03  0.79163483351E+02 0.  0.
          5    1    3    3  502    0 -0.16862278649E+02  0.26513721405E+02 -0.11215748633E+02  0.33692682906E+02  0.47000000000E+01 0. -1.
        -11    1    4    4    0    0  0.15224182043E+02  0.22061710258E+02 -0.37342069212E+02  0.45966562972E+02  0.00000000000E+00 0.  1.
         12    1    4    4    0    0  0.14722112216E+02  0.12014760159E+02 -0.46517278078E+03  0.46556074902E+03  0.00000000000E+00 0. -1.
         -5    1    5    5    0  501 -0.28977158947E+02 -0.34396411812E+02 -0.27401041100E+02  0.52874341031E+02  0.47000000000E+01 0.  1.
         11    1    6    6    0    0 -0.41708936036E+01 -0.43623650963E+02 -0.39433585227E+03  0.39676338498E+03  0.00000000000E+00 0. -1.
        -12    1    6    6    0    0  0.20064036940E+02  0.17429870952E+02 -0.62889055696E+02  0.68274441089E+02  0.00000000000E+00 0.  1.
</event>
<event>
12    1  0.2614920E-002  0.2705902E+03  0.7818608E-02  0.1100942E+00
         -2   -1    0    0    0  501 -0.00000000000E+00  0.00000000000E+00  0.31188179595E+02  0.31188179595E+02  0.00000000000E+00 0.  1.
          2   -1    0    0  502    0  0.00000000000E+00 -0.00000000000E+00 -0.23919360173E+04  0.23919360173E+04  0.00000000000E+00 0. -1.
          6    2    1    2  502    0  0.16216544157E+03  0.13194369483E+03 -0.10159428183E+04  0.10513855999E+04  0.17194505087E+03 0.  0.
         24    2    3    3    0    0  0.76121202929E+02  0.33084955762E+01 -0.49339663927E+03  0.50638355885E+03  0.84727099331E+02 0.  0.
         -6    2    1    2    0  501 -0.16216544157E+03 -0.13194369483E+03 -0.13448050194E+04  0.13717385970E+04  0.17163761038E+03 0.  0.
        -24    2    5    5    0    0 -0.12102942108E+03 -0.79486240808E+02 -0.12106589743E+04  0.12218679592E+04  0.79372378178E+02 0.  0.
          5    1    3    3  502    0  0.86044238646E+02  0.12863519926E+03 -0.52254617906E+03  0.54500204104E+03  0.47000000000E+01 0. -1.
        -13    1    4    4    0    0 -0.48071769797E+00  0.46192441365E+01  0.20297769017E+01  0.50683824015E+01  0.00000000000E+00 0.  1.
         14    1    4    4    0    0  0.76601920627E+02 -0.13107485603E+01 -0.49542641617E+03  0.50131517645E+03  0.00000000000E+00 0. -1.
         -5    1    5    5    0  501 -0.41136020490E+02 -0.52457454023E+02 -0.13414604510E+03  0.14987063782E+03  0.47000000000E+01 0.  1.
         13    1    6    6    0    0 -0.44328191558E+01  0.14368053651E+02 -0.13790590611E+03  0.13872321288E+03  0.00000000000E+00 0. -1.
        -14    1    6    6    0    0 -0.11659660193E+03 -0.93854294459E+02 -0.10727530682E+04  0.10831447463E+04  0.00000000000E+00 0.  1.
</event>
<event>
12    1  0.2614920E-002  0.2063457E+03  0.7818608E-02  0.1144493E+00
          1   -1    0    0  502    0  0.00000000000E+00  0.00000000000E+00  0.13787863413E+04  0.13787863413E+04  0.00000000000E+00 0. -1.
         -1   -1    0    0    0  501 -0.00000000000E+00 -0.00000000000E+00 -0.33793398512E+02  0.33793398512E+02  0.00000000000E+00 0.  1.
          6    2    1    2  502    0  0.10671155507E+03  0.30340716233E+02  0.45841829633E+03  0.50177866380E+03  0.17125004522E+03 0.  0.
         24    2    3    3    0    0  0.96543377213E+02  0.80037933579E+02  0.28130732213E+03  0.31748652497E+03  0.77053160596E+02 0.  0.
         -6    2    1    2    0  501 -0.10671155507E+03 -0.30340716233E+02  0.88657464644E+03  0.91080107599E+03  0.17673732281E+03 0.  0.
        -24    2    5    5    0    0 -0.11585057725E+03 -0.52908033634E+02  0.86533257539E+03  0.87814956571E+03  0.78266068369E+02 0.  0.
          5    1    3    3  502    0  0.10168177857E+02 -0.49697217346E+02  0.17711097420E+03  0.18429213883E+03  0.47000000000E+01 0. -1.
        -11    1    4    4    0    0  0.56431891216E+02  0.16644652302E+01  0.81523166555E+02  0.99163276851E+02  0.00000000000E+00 0.  1.
         12    1    4    4    0    0  0.40111485997E+02  0.78373468349E+02  0.19978415558E+03  0.21832324812E+03  0.00000000000E+00 0. -1.
         -5    1    5    5    0  501  0.91390221814E+01  0.22567317402E+02  0.21242071048E+02  0.32651510280E+02  0.47000000000E+01 0.  1.
         11    1    6    6    0    0 -0.30063422592E+02  0.20608009415E+02  0.20058628804E+03  0.20387093560E+03  0.00000000000E+00 0. -1.
        -12    1    6    6    0    0 -0.85787154659E+02 -0.73516043050E+02  0.66474628734E+03  0.67427863011E+03  0.00000000000E+00 0.  1.
</event>
<event>
12    1  0.2614920E-002  0.2118035E+03  0.7818608E-02  0.1140146E+00
         -2   -1    0    0    0  501 -0.00000000000E+00  0.00000000000E+00  0.45974434695E+02  0.45974434695E+02  0.00000000000E+00 0. -1.
          2   -1    0    0  502    0  0.00000000000E+00 -0.00000000000E+00 -0.12486415799E+04  0.12486415799E+04  0.00000000000E+00 0.  1.
          6    2    1    2  502    0  0.80843703685E+02  0.93986127398E+02 -0.90395928481E+03  0.92844398147E+03  0.17174615447E+03 0.  0.
         24    2    3    3    0    0  0.20875719044E+02  0.29749852397E+01 -0.59808903662E+03  0.60370118185E+03  0.79372382243E+02 0.  0.
         -6    2    1    2    0  501 -0.80843703685E+02 -0.93986127398E+02 -0.29870786043E+03  0.36617203315E+03  0.17171626426E+03 0.  0.
        -24    2    5    5    0    0 -0.95062872299E+02 -0.12002361606E+03 -0.28615538048E+03  0.33361761219E+03  0.77286423647E+02 0.  0.
          5    1    3    3  502    0  0.59967984641E+02  0.91011142159E+02 -0.30587024819E+03  0.32474279962E+03  0.47000000000E+01 0. -1.
        -11    1    4    4    0    0  0.47679896162E+02  0.81258506195E+01 -0.48318657141E+03  0.48560134342E+03  0.00000000000E+00 0.  1.
         12    1    4    4    0    0 -0.26804177118E+02 -0.51508653799E+01 -0.11490246521E+03  0.11809983843E+03  0.00000000000E+00 0. -1.
         -5    1    5    5    0  501  0.14219168615E+02  0.26037488659E+02 -0.12552479948E+02  0.32554420969E+02  0.47000000000E+01 0.  1.
         11    1    6    6    0    0 -0.26690004615E+02  0.49981297362E+01 -0.66030811641E+02  0.71396118474E+02  0.00000000000E+00 0. -1.
        -12    1    6    6    0    0 -0.68372867684E+02 -0.12502174579E+03 -0.22012456884E+03  0.26222149371E+03  0.00000000000E+00 0.  1.
</event>
<event>
12    1  0.2614920E-002  0.1796884E+03  0.7818608E-02  0.1168105E+00
         -1   -1    0    0    0  501 -0.00000000000E+00  0.00000000000E+00  0.29849418063E+02  0.29849418063E+02  0.00000000000E+00 0.  1.
          1   -1    0    0  502    0  0.00000000000E+00 -0.00000000000E+00 -0.11384222645E+04  0.11384222645E+04  0.00000000000E+00 0. -1.
          6    2    1    2  502    0  0.16270664395E+02 -0.39757664855E+02 -0.41579656324E+03  0.45183817462E+03  0.17153876416E+03 0.  0.
         24    2    3    3    0    0  0.64000175726E+02 -0.36201390670E+02 -0.36793649741E+03  0.38398959882E+03  0.81634445499E+02 0.  0.
         -6    2    1    2    0  501 -0.16270664395E+02  0.39757664855E+02 -0.69277628324E+03  0.71643350798E+03  0.17746150655E+03 0.  0.
        -24    2    5    5    0    0  0.17138488463E+02 -0.23836722838E+02 -0.18800704140E+03  0.20655656681E+03  0.80355774719E+02 0.  0.
          5    1    3    3  502    0 -0.47729511331E+02 -0.35562741852E+01 -0.47860065826E+02  0.67848575805E+02  0.47000000000E+01 0. -1.
        -13    1    4    4    0    0  0.21047929172E+02 -0.34460749192E+02 -0.55641153018E+02  0.68749519754E+02  0.00000000000E+00 0.  1.
         14    1    4    4    0    0  0.42952246554E+02 -0.17406414783E+01 -0.31229534439E+03  0.31524007906E+03  0.00000000000E+00 0. -1.
         -5    1    5    5    0  501 -0.33409152858E+02  0.63594387693E+02 -0.50476924183E+03  0.50987694118E+03  0.47000000000E+01 0.  1.
         13    1    6    6    0    0  0.15535449618E+02 -0.21470808709E+02 -0.19614712693E+03  0.19792938444E+03  0.00000000000E+00 0. -1.
        -14    1    6    6    0    0  0.16030388448E+01 -0.23659141290E+01  0.81400855264E+01  0.86271823663E+01  0.00000000000E+00 0.  1.
</event>
<event>
12    1  0.2614920E-002  0.2379915E+03  0.7818608E-02  0.1121138E+00
         -3   -1    0    0    0  501 -0.00000000000E+00  0.00000000000E+00  0.91028038903E+02  0.91028038903E+02  0.00000000000E+00 0.  1.
          3   -1    0    0  502    0  0.00000000000E+00 -0.00000000000E+00 -0.62356837431E+03  0.62356837431E+03  0.00000000000E+00 0. -1.
          6    2    1    2  502    0 -0.55750666610E+02 -0.15487737843E+03 -0.28264661540E+03  0.36938198170E+03  0.17163566072E+03 0.  0.
         24    2    3    3    0    0 -0.57777975584E+02 -0.18065395600E+03 -0.27208427770E+03  0.34105893612E+03  0.79480799297E+02 0.  0.
         -6    2    1    2    0  501  0.55750666610E+02  0.15487737843E+03 -0.24989372001E+03  0.34521443152E+03  0.17213655408E+03 0.  0.
        -24    2    5    5    0    0  0.84376372999E+02  0.16117332110E+03 -0.24489329491E+03  0.31511186998E+03  0.78908510025E+02 0.  0.
          5    1    3    3  502    0  0.20273089745E+01  0.25776577570E+02 -0.10562337698E+02  0.28323045574E+02  0.47000000000E+01 0. -1.
        -13    1    4    4    0    0 -0.40055458101E+02 -0.40606441554E+02 -0.40911193195E+02  0.70192938021E+02  0.00000000000E+00 0.  1.
         14    1    4    4    0    0 -0.17722517483E+02 -0.14004751445E+03 -0.23117308450E+03  0.27086599810E+03  0.00000000000E+00 0. -1.
         -5    1    5    5    0  501 -0.28625706389E+02 -0.62959426661E+01 -0.50004251025E+01  0.30102561544E+02  0.47000000000E+01 0.  1.
         11    1    6    6    0    0  0.15059395868E+02  0.11183295026E+03 -0.12998830297E+03  0.17213469458E+03  0.00000000000E+00 0. -1.
        -12    1    6    6    0    0  0.69316977130E+02  0.49340370837E+02 -0.11490499194E+03  0.14297717540E+03  0.00000000000E+00 0.  1.
</event>
<event>
12    1  0.2614920E-002  0.1857216E+03  0.7818608E-02  0.1162378E+00
         -2   -1    0    0    0  501 -0.00000000000E+00  0.00000000000E+00  0.17745994935E+02  0.17745994935E+02  0.00000000000E+00 0. -1.
          2   -1    0    0  502    0  0.00000000000E+00 -0.00000000000E+00 -0.21051283778E+04  0.21051283778E+04  0.00000000000E+00 0.  1.
          6    2    1    2  502    0 -0.27612222540E+02 -0.63908101492E+02 -0.75118528174E+03  0.77387016295E+03  0.17247904607E+03 0.  0.
         24    2    3    3    0    0  0.11166849192E+01 -0.57861967677E+01 -0.17397453120E+03  0.19301058744E+03  0.83373990527E+02 0.  0.
         -6    2    1    2    0  501  0.27612222540E+02  0.63908101492E+02 -0.13361971012E+04  0.13490042098E+04  0.17188072811E+03 0.  0.
        -24    2    5    5    0    0  0.46752846497E+02  0.58322467856E+02 -0.45796989779E+03  0.47053811855E+03  0.77989453170E+02 0.  0.
          5    1    3    3  502    0 -0.28728907459E+02 -0.58121904725E+02 -0.57721075054E+03  0.58085957551E+03  0.47000000000E+01 0. -1.
        -11    1    4    4    0    0  0.17627938508E+02  0.35139980370E+02 -0.87496146822E+02  0.95922563275E+02  0.00000000000E+00 0.  1.
         12    1    4    4    0    0 -0.16511253589E+02 -0.40926177138E+02 -0.86478384382E+02  0.97088024161E+02  0.00000000000E+00 0. -1.
         -5    1    5    5    0  501 -0.19140623957E+02  0.55856336363E+01 -0.87822720336E+03  0.87846609127E+03  0.47000000000E+01 0.  1.
         11    1    6    6    0    0  0.26585003425E+02  0.13387735294E+02 -0.40979023891E+02  0.50648536627E+02  0.00000000000E+00 0. -1.
        -12    1    6    6    0    0  0.20167843072E+02  0.44934732562E+02 -0.41699087390E+03  0.41988958192E+03  0.00000000000E+00 0.  1.
</event>
<event>
12    1  0.2614920E-002  0.2149077E+03  0.7818608E-02  0.1137738E+00
          2   -1    0    0  502    0  0.00000000000E+00  0.00000000000E+00  0.16062936708E+03  0.16062936708E+03  0.00000000000E+00 0. -1.
         -2   -1    0    0    0  501 -0.00000000000E+00 -0.00000000000E+00 -0.35339281983E+03  0.35339281983E+03  0.00000000000E+00 0.  1.
          6    2    1    2  502    0 -0.51027515419E+02 -0.10819773655E+03 -0.20831144337E+03  0.30132812578E+03  0.18191873027E+03 0.  0.
         24    2    3    3    0    0 -0.38780825648E+02 -0.14951973165E+03 -0.17373857866E+03  0.24587669061E+03  0.80063416600E+02 0.  0.
         -6    2    1    2    0  501  0.51027515419E+02  0.10819773655E+03  0.15547990614E+02  0.21269406113E+03  0.17517552940E+03 0.  0.
        -24    2    5    5    0    0  0.70910686548E+02  0.13091014364E+03 -0.14870536681E+02  0.16958291718E+03  0.79821311453E+02 0.  0.
          5    1    3    3  502    0 -0.12246689771E+02  0.41321995093E+02 -0.34572864707E+02  0.55451435174E+02  0.47000000000E+01 0. -1.
        -13    1    4    4    0    0 -0.27799163774E+02 -0.45830204298E+02 -0.11334307403E+03  0.12537884017E+03  0.00000000000E+00 0.  1.
         14    1    4    4    0    0 -0.10981661874E+02 -0.10368952735E+03 -0.60395504636E+02  0.12049785044E+03  0.00000000000E+00 0. -1.
         -5    1    5    5    0  501 -0.19883171128E+02 -0.22712407088E+02  0.30418527296E+02  0.43111143950E+02  0.47000000000E+01 0.  1.
         13    1    6    6    0    0  0.59328042896E+02  0.29949501273E+02 -0.14194079025E+02  0.67957789692E+02  0.00000000000E+00 0. -1.
        -14    1    6    6    0    0  0.11582643651E+02  0.10096064237E+03 -0.67645765629E+00  0.10162512749E+03  0.00000000000E+00 0.  1.
</event>
<event>
12    1  0.2614920E-002  0.1841019E+03  0.7818608E-02  0.1163891E+00
          1   -1    0    0  502    0  0.00000000000E+00  0.00000000000E+00  0.12949270190E+03  0.12949270190E+03  0.00000000000E+00 0.  1.
         -1   -1    0    0    0  501 -0.00000000000E+00 -0.00000000000E+00 -0.55247298420E+03  0.55247298420E+03  0.00000000000E+00 0. -1.
          6    2    1    2  502    0  0.47816269567E+02 -0.54123734844E+02 -0.46049940252E+03  0.49711566473E+03  0.17276721357E+03 0.  0.
         24    2    3    3    0    0 -0.18235395975E+02 -0.13723261176E+02 -0.36355063633E+03  0.37295377822E+03  0.80028732054E+02 0.  0.
         -6    2    1    2    0  501 -0.47816269567E+02  0.54123734844E+02  0.37519120221E+02  0.18485002137E+03  0.16597009282E+03 0.  0.
        -24    2    5    5    0    0 -0.79475334745E+02  0.49970879103E+01  0.49761466551E+02  0.12495270181E+03  0.82435880637E+02 0.  0.
          5    1    3    3  502    0  0.66051665542E+02 -0.40400473668E+02 -0.96948766197E+02  0.12416188651E+03  0.47000000000E+01 0. -1.
        -13    1    4    4    0    0 -0.10373870373E+02  0.32741924313E+02 -0.19201304326E+03  0.19506065615E+03  0.00000000000E+00 0.  1.
         14    1    4    4    0    0 -0.78615256024E+01 -0.46465185489E+02 -0.17153759306E+03  0.17789312207E+03  0.00000000000E+00 0. -1.
         -5    1    5    5    0  501  0.31659065178E+02  0.49126646933E+02 -0.12242346330E+02  0.59897319560E+02  0.47000000000E+01 0.  1.
         11    1    6    6    0    0 -0.40110754241E+02  0.15171844094E+02 -0.17532470531E+02  0.46329741873E+02  0.00000000000E+00 0. -1.
        -12    1    6    6    0    0 -0.39364580504E+02 -0.10174756184E+02  0.67293937083E+02  0.78622959940E+02  0.00000000000E+00 0.  1.
</event>
<event>
12    1  0.2614920E-002  0.2745737E+03  0.7818608E-02  0.1098690E+00
          1   -1    0    0  502    0  0.00000000000E+00  0.00000000000E+00  0.35722075932E+03  0.35722075932E+03  0.00000000000E+00 0. -1.
         -1   -1    0    0    0  501 -0.00000000000E+00 -0.00000000000E+00 -0.29406276875E+03  0.29406276875E+03  0.00000000000E+00 0.  1.
          6    2    1    2  502    0 -0.41811106982E+02 -0.21421909458E+03 -0.14120572168E+03  0.31104556451E+03  0.17079899945E+03 0.  0.
         24    2    3    3    0    0 -0.56844638679E+02 -0.18529182858E+03 -0.51211329772E+02  0.21521303157E+03  0.78292234455E+02 0.  0.
         -6    2    1    2    0  501  0.41811106982E+02  0.21421909458E+03  0.20436371225E+03  0.34023796355E+03  0.16235564606E+03 0.  0.
        -24    2    5    5    0    0  0.62331469312E+02  0.22358352427E+03  0.20110159478E+03  0.31696761281E+03  0.78433486171E+02 0.  0.
          5    1    3    3  502    0  0.15033531697E+02 -0.28927266000E+02 -0.89994391913E+02  0.95832532938E+02  0.47000000000E+01 0. -1.
        -11    1    4    4    0    0 -0.70209326377E+02 -0.98264865931E+02 -0.24798983871E+02  0.12328958994E+03  0.00000000000E+00 0.  1.
         12    1    4    4    0    0  0.13364687698E+02 -0.87026962652E+02 -0.26412345900E+02  0.91923441633E+02  0.00000000000E+00 0. -1.
         -5    1    5    5    0  501 -0.20520362330E+02 -0.93644296864E+01  0.32621174685E+01  0.23270350747E+02  0.47000000000E+01 0.  1.
         13    1    6    6    0    0  0.21424291307E+02  0.90126219534E+02  0.13186849947E+03  0.16115531905E+03  0.00000000000E+00 0. -1.
        -14    1    6    6    0    0  0.40907178005E+02  0.13345730473E+03  0.69233095315E+02  0.15581229376E+03  0.00000000000E+00 0.  1.
</event>
<event>
12    1  0.2614920E-002  0.1796954E+03  0.7818608E-02  0.1168098E+00
         -4   -1    0    0    0  501 -0.00000000000E+00  0.00000000000E+00  0.19244392249E+02  0.19244392249E+02  0.00000000000E+00 0. -1.
          4   -1    0    0  502    0  0.00000000000E+00 -0.00000000000E+00 -0.19040644268E+04  0.19040644268E+04  0.00000000000E+00 0.  1.
          6    2    1    2  502    0  0.14738502807E+02 -0.34450412662E+02 -0.12559171145E+04  0.12681876504E+04  0.17195366705E+03 0.  0.
         24    2    3    3    0    0 -0.28563966924E+02  0.40210659850E+02 -0.68996296240E+03  0.69567077557E+03  0.74000953529E+02 0.  0.
         -6    2    1    2    0  501 -0.14738502807E+02  0.34450412662E+02 -0.62890292001E+03  0.65512116865E+03  0.17961294059E+03 0.  0.
        -24    2    5    5    0    0 -0.81922586387E+02  0.16646826215E+02 -0.40565807116E+03  0.42126005322E+03  0.76896909920E+02 0.  0.
          5    1    3    3  502    0  0.43302469731E+02 -0.74661072512E+02 -0.56595415212E+03  0.57251687480E+03  0.47000000000E+01 0. -1.
        -13    1    4    4    0    0  0.24209595057E+02  0.66377404316E+01 -0.25519238849E+03  0.25642410034E+03  0.00000000000E+00 0.  1.
         14    1    4    4    0    0 -0.52773561981E+02  0.33572919418E+02 -0.43477057391E+03  0.43924667523E+03  0.00000000000E+00 0. -1.
         -5    1    5    5    0  501  0.67184083580E+02  0.17803586447E+02 -0.22324484884E+03  0.23386111543E+03  0.47000000000E+01 0.  1.
         13    1    6    6    0    0 -0.72813634788E+02  0.62703635917E+01 -0.39952060326E+03  0.40615004038E+03  0.00000000000E+00 0. -1.
        -14    1    6    6    0    0 -0.91089515991E+01  0.10376462623E+02 -0.61374679046E+01  0.15110012842E+02  0.00000000000E+00 0.  1.
</event>
<event>
12    1  0.2614920E-002  0.2175548E+03  0.7818608E-02  0.1135719E+00
          2   -1    0    0  502    0  0.00000000000E+00  0.00000000000E+00  0.83256059681E+03  0.83256059681E+03  0.00000000000E+00 0. -1.
         -2   -1    0    0    0  501 -0.00000000000E+00 -0.00000000000E+00 -0.63304761795E+02  0.63304761795E+02  0.00000000000E+00 0.  1.
          6    2    1    2  502    0 -0.63396327885E+02 -0.11751764576E+03  0.24108512412E+03  0.32452376200E+03  0.17135969064E+03 0.  0.
         24    2    3    3    0    0 -0.45325290294E+02 -0.22805845535E+02  0.45315303745E+02  0.10624687346E+03  0.81611474897E+02 0.  0.
         -6    2    1    2    0  501  0.63396327885E+02  0.11751764576E+03  0.52817071089E+03  0.57134159661E+03  0.17215524597E+03 0.  0.
        -24    2    5    5    0    0  0.41433333214E+02  0.75314509079E+02  0.15997631948E+03  0.20005642622E+03  0.83911587393E+02 0.  0.
          5    1    3    3  502    0 -0.18071037591E+02 -0.94711800221E+02  0.19576982038E+03  0.21827688854E+03  0.47000000000E+01 0. -1.
        -11    1    4    4    0    0 -0.81559680436E+01  0.16470681154E+02  0.48712370517E+02  0.52064365874E+02  0.00000000000E+00 0.  1.
         12    1    4    4    0    0 -0.37169322251E+02 -0.39276526689E+02 -0.33970667725E+01  0.54182507583E+02  0.00000000000E+00 0. -1.
         -5    1    5    5    0  501  0.21962994672E+02  0.42203136677E+02  0.36819439142E+03  0.37128517039E+03  0.47000000000E+01 0.  1.
         11    1    6    6    0    0  0.34701655243E+02  0.84072803675E+01  0.11172341813E+03  0.11729027837E+03  0.00000000000E+00 0. -1.
        -12    1    6    6    0    0  0.67316779709E+01  0.66907228711E+02  0.48252901341E+02  0.82766147850E+02  0.00000000000E+00 0.  1.
</event>
<event>
12    1  0.2614920E-002  0.2526686E+03  0.7818608E-02  0.1111630E+00
         -2   -1    0    0    0  501 -0.00000000000E+00  0.00000000000E+00  0.58245277881E+02  0.58245277881E+02  0.00000000000E+00 0. -1.
          2   -1    0    0  502    0  0.00000000000E+00 -0.00000000000E+00 -0.26591295742E+04  0.26591295742E+04  0.00000000000E+00 0.  1.
          6    2    1    2  502    0 -0.14545497126E+03 -0.11255994600E+03 -0.25708121649E+03  0.35990668553E+03  0.17209061655E+03 0.  0.
         24    2    3    3    0    0 -0.10701127083E+03 -0.14691340219E+03 -0.18758132809E+03  0.27324410686E+03  0.80253519898E+02 0.  0.
         -6    2    1    2    0  501  0.14545497126E+03  0.11255994600E+03 -0.23438030798E+04  0.23574681666E+04  0.17440295065E+03 0.  0.
        -24    2    5    5    0    0  0.45179809085E+02  0.10860186802E+03 -0.16935607249E+04  0.16995107328E+04  0.79707094945E+02 0.  0.
          5    1    3    3  502    0 -0.38443700427E+02  0.34353456184E+02 -0.69499888398E+02  0.86662578670E+02  0.47000000000E+01 0. -1.
        -13    1    4    4    0    0  0.60135412031E+01 -0.24059859384E+02 -0.54066543106E+02  0.59483027788E+02  0.00000000000E+00 0.  1.
         14    1    4    4    0    0 -0.11302481204E+03 -0.12285354280E+03 -0.13351478499E+03  0.21376107907E+03  0.00000000000E+00 0. -1.
         -5    1    5    5    0  501  0.10027516218E+03  0.39580779766E+01 -0.65024235494E+03  0.65795743380E+03  0.47000000000E+01 0.  1.
         11    1    6    6    0    0 -0.17688927993E+01 -0.74882176762E+01 -0.22790319183E+02  0.24054127175E+02  0.00000000000E+00 0. -1.
        -12    1    6    6    0    0  0.46948701884E+02  0.11609008570E+03 -0.16707704057E+04  0.16754566056E+04  0.00000000000E+00 0.  1.
</event>
<event>
12    1  0.2614920E-002  0.2421879E+03  0.7818608E-02  0.1118344E+00
          2   -1    0    0  502    0  0.00000000000E+00  0.00000000000E+00  0.16177493289E+04  0.16177493289E+04  0.00000000000E+00 0.  1.
         -2   -1    0    0    0  501 -0.00000000000E+00 -0.00000000000E+00 -0.53290367499E+02  0.53290367499E+02  0.00000000000E+00 0. -1.
          6    2    1    2  502    0 -0.13501484646E+03  0.10014768995E+03  0.31408244708E+03  0.39778314795E+03  0.17698892806E+03 0.  0.
         24    2    3    3    0    0  0.39449431335E+01  0.17047848502E+02  0.11146269595E+03  0.13837563008E+03  0.80110490561E+02 0.  0.
         -6    2    1    2    0  501  0.13501484646E+03 -0.10014768995E+03  0.12503765143E+04  0.12732565484E+04  0.17170393722E+03 0.  0.
        -24    2    5    5    0    0  0.47994360958E+02 -0.41305214859E+02  0.94626701139E+03  0.95148072347E+03  0.76711999288E+02 0.  0.
          5    1    3    3  502    0 -0.13895978960E+03  0.83099841450E+02  0.20261975113E+03  0.25940751786E+03  0.47000000000E+01 0. -1.
        -13    1    4    4    0    0 -0.91564459271E+01  0.47238341836E+02  0.76376422158E+02  0.90269924688E+02  0.00000000000E+00 0.  1.
         14    1    4    4    0    0  0.13101389061E+02 -0.30190493334E+02  0.35086273792E+02  0.48105705397E+02  0.00000000000E+00 0. -1.
         -5    1    5    5    0  501  0.87020485504E+02 -0.58842475093E+02  0.30410950292E+03  0.32177582498E+03  0.47000000000E+01 0.  1.
         11    1    6    6    0    0  0.31294053099E+02 -0.42350394468E+02  0.27448843230E+03  0.27949378014E+03  0.00000000000E+00 0. -1.
        -12    1    6    6    0    0  0.16700307860E+02  0.10451796081E+01  0.67177857908E+03  0.67198694333E+03  0.00000000000E+00 0.  1.
</event>
<event>
12    1  0.2614920E-002  0.3613193E+03  0.7818608E-02  0.1058063E+00
         -1   -1    0    0    0  501 -0.00000000000E+00  0.00000000000E+00  0.35369359993E+02  0.35369359993E+02  0.00000000000E+00 0.  1.
          1   -1    0    0  502    0  0.00000000000E+00 -0.00000000000E+00 -0.36911697018E+04  0.36911697018E+04  0.00000000000E+00 0. -1.
          6    2    1    2  502    0 -0.95500418929E+02 -0.30322271737E+03 -0.18357983155E+04  0.18709976535E+04  0.17150048995E+03 0.  0.
         24    2    3    3    0    0 -0.20230914595E+01 -0.22548448945E+03 -0.11798515606E+04  0.12038623764E+04  0.79922263745E+02 0.  0.
         -6    2    1    2    0  501  0.95500418929E+02  0.30322271737E+03 -0.18200020263E+04  0.18555414083E+04  0.17193660342E+03 0.  0.
        -24    2    5    5    0    0  0.47772927756E+02  0.23415439306E+03 -0.16037184682E+04  0.16234875043E+04  0.81781531477E+02 0.  0.
          5    1    3    3  502    0 -0.93477327469E+02 -0.77738227918E+02 -0.65594675483E+03  0.66713527714E+03  0.47000000000E+01 0. -1.
        -13    1    4    4    0    0 -0.25167342750E+02 -0.20581894019E+03 -0.97805673806E+03  0.99979488604E+03  0.00000000000E+00 0.  1.
         14    1    4    4    0    0  0.23144251291E+02 -0.19665549259E+02 -0.20179482256E+03  0.20406749033E+03  0.00000000000E+00 0. -1.
         -5    1    5    5    0  501  0.47727491173E+02  0.69068324311E+02 -0.21628355810E+03  0.23205390395E+03  0.47000000000E+01 0.  1.
         13    1    6    6    0    0  0.66529048156E+02  0.19195934192E+03 -0.11921845505E+04  0.12093711199E+04  0.00000000000E+00 0. -1.
        -14    1    6    6    0    0 -0.18756120400E+02  0.42195051130E+02 -0.41153391772E+03  0.41411638440E+03  0.00000000000E+00 0.  1.
</event>
<event>
12    1  0.2614920E-002  0.2055887E+03  0.7818608E-02  0.1145108E+00
          1   -1    0    0  502    0  0.00000000000E+00  0.00000000000E+00  0.99923065366E+03  0.99923065366E+03  0.00000000000E+00 0. -1.
         -1   -1    0    0    0  501 -0.00000000000E+00 -0.00000000000E+00 -0.44103523883E+02  0.44103523883E+02  0.00000000000E+00 0.  1.
          6    2    1    2  502    0  0.99648408013E+02  0.16359178019E+02  0.36902384971E+03  0.42175810097E+03  0.17749328482E+03 0.  0.
         24    2    3    3    0    0  0.10207589547E+03  0.68282585074E+02  0.22650352014E+03  0.26998172852E+03  0.80649173812E+02 0.  0.
         -6    2    1    2    0  501 -0.99648408013E+02 -0.16359178019E+02  0.58610328007E+03  0.62157607657E+03  0.18067190189E+03 0.  0.
        -24    2    5    5    0    0 -0.12191709827E+02  0.51703575257E+02  0.24296168806E+03  0.26095237435E+03  0.79018113928E+02 0.  0.
          5    1    3    3  502    0 -0.24274874530E+01 -0.51923407055E+02  0.14252032957E+03  0.15177637246E+03  0.47000000000E+01 0. -1.
        -13    1    4    4    0    0  0.12185128497E+01  0.40042374040E+02  0.43577300633E+02  0.59193391715E+02  0.00000000000E+00 0.  1.
         14    1    4    4    0    0  0.10085738262E+03  0.28240211034E+02  0.18292621951E+03  0.21078833680E+03  0.00000000000E+00 0. -1.
         -5    1    5    5    0  501 -0.87456698187E+02 -0.68062753276E+02  0.34314159201E+03  0.36062370222E+03  0.47000000000E+01 0.  1.
         11    1    6    6    0    0  0.28075644675E+02 -0.15199943665E+01  0.82715329929E+02  0.87363482142E+02  0.00000000000E+00 0. -1.
        -12    1    6    6    0    0 -0.40267354502E+02  0.53223569623E+02  0.16024635813E+03  0.17358889220E+03  0.00000000000E+00 0.  1.
</event>
<event>
12    1  0.2614920E-002  0.3194305E+03  0.7818608E-02  0.1075912E+00
         -1   -1    0    0    0  501 -0.00000000000E+00  0.00000000000E+00  0.10116017703E+03  0.10116017703E+03  0.00000000000E+00 0. -1.
          1   -1    0    0  502    0  0.00000000000E+00 -0.00000000000E+00 -0.10155252818E+04  0.10155252818E+04  0.00000000000E+00 0.  1.
          6    2    1    2  502    0  0.13424477649E+03  0.23306853519E+03 -0.41093828823E+03  0.52034579693E+03  0.17189202874E+03 0.  0.
         24    2    3    3    0    0  0.12627562978E+03  0.12566653874E+03 -0.17951878773E+03  0.26505033800E+03  0.79291064379E+02 0.  0.
         -6    2    1    2    0  501 -0.13424477649E+03 -0.23306853519E+03 -0.50342681655E+03  0.59633966191E+03  0.17274209285E+03 0.  0.
        -24    2    5    5    0    0 -0.71284677436E+02 -0.36117781202E+02 -0.16096056694E+03  0.19626617406E+03  0.78905688085E+02 0.  0.
          5    1    3    3  502    0  0.79691467102E+01  0.10740199644E+03 -0.23141950050E+03  0.25529545893E+03  0.47000000000E+01 0. -1.
        -11    1    4    4    0    0  0.74404899471E+00  0.40825858982E+02 -0.21566444888E+02  0.46178089130E+02  0.00000000000E+00 0.  1.
         12    1    4    4    0    0  0.12553158079E+03  0.84840679760E+02 -0.15795234284E+03  0.21887224887E+03  0.00000000000E+00 0. -1.
         -5    1    5    5    0  501 -0.62960099057E+02 -0.19695075398E+03 -0.34246624960E+03  0.40007348786E+03  0.47000000000E+01 0.  1.
         11    1    6    6    0    0 -0.42991627639E+02 -0.41944877467E+02 -0.15572728889E+03  0.16690908093E+03  0.00000000000E+00 0. -1.
        -12    1    6    6    0    0 -0.28293049797E+02  0.58270962647E+01 -0.52332780571E+01  0.29357093128E+02  0.00000000000E+00 0.  1.
</event>
<event>
12    1  0.2614920E-002  0.2018630E+03  0.7818608E-02  0.1148177E+00
         -1   -1    0    0    0  501 -0.00000000000E+00  0.00000000000E+00  0.25147843574E+03  0.25147843574E+03  0.00000000000E+00 0.  1.
          1   -1    0    0  502    0  0.00000000000E+00 -0.00000000000E+00 -0.21740074744E+03  0.21740074744E+03  0.00000000000E+00 0. -1.
          6    2    1    2  502    0  0.92833771654E+02  0.55170340372E+02  0.13543219996E+03  0.24438618794E+03  0.17239736789E+03 0.  0.
         24    2    3    3    0    0  0.10490681456E+03  0.46743328045E+02  0.16182442699E+03  0.21380167308E+03  0.79584117648E+02 0.  0.
         -6    2    1    2    0  501 -0.92833771654E+02 -0.55170340372E+02 -0.10135451166E+03  0.22449299523E+03  0.16870830525E+03 0.  0.
        -24    2    5    5    0    0 -0.15359204323E+02  0.19583908791E+02 -0.75153198726E+02  0.11359166454E+03  0.81459366146E+02 0.  0.
          5    1    3    3  502    0 -0.12073042903E+02  0.84270123265E+01 -0.26392227035E+02  0.30584514865E+02  0.47000000000E+01 0. -1.
        -11    1    4    4    0    0  0.96618091508E+02  0.34158994925E+02  0.78404345913E+02  0.12903152328E+03  0.00000000000E+00 0.  1.
         12    1    4    4    0    0  0.82887230486E+01  0.12584333121E+02  0.83420081080E+02  0.84770149801E+02  0.00000000000E+00 0. -1.
         -5    1    5    5    0  501 -0.77474567331E+02 -0.74754249162E+02 -0.26201312929E+02  0.11090133070E+03  0.47000000000E+01 0.  1.
         11    1    6    6    0    0 -0.18988056535E+02 -0.29153013989E+02 -0.20963115559E+02  0.40618920832E+02  0.00000000000E+00 0. -1.
        -12    1    6    6    0    0  0.36288522125E+01  0.48736922779E+02 -0.54190083167E+02  0.72972743707E+02  0.00000000000E+00 0.  1.
</event>
<event>
12    1  0.2614920E-002  0.1818582E+03  0.7818608E-02  0.1166017E+00
          3   -1    0    0  502    0  0.00000000000E+00  0.00000000000E+00  0.10835705203E+03  0.10835705203E+03  0.00000000000E+00 0.  1.
         -3   -1    0    0    0  501 -0.00000000000E+00 -0.00000000000E+00 -0.45794164156E+03  0.45794164156E+03  0.00000000000E+00 0. -1.
          6    2    1    2  502    0  0.11489594888E+02  0.58336499577E+02 -0.33857968248E+03  0.38452923176E+03  0.17231184147E+03 0.  0.
         24    2    3    3    0    0  0.70672052935E+02  0.19212281869E+02 -0.16068484261E+03  0.19295174925E+03  0.77763153565E+02 0.  0.
         -6    2    1    2    0  501 -0.11489594888E+02 -0.58336499577E+02 -0.11004907053E+02  0.18176946183E+03  0.17141724330E+03 0.  0.
        -24    2    5    5    0    0  0.41346341741E+02 -0.78089486481E+02  0.15220004549E+02  0.11938634970E+03  0.78828700873E+02 0.  0.
          5    1    3    3  502    0 -0.59182458046E+02  0.39124217708E+02 -0.17789483987E+03  0.19157748251E+03  0.47000000000E+01 0. -1.
        -11    1    4    4    0    0  0.35223943333E+02 -0.17658731357E+02 -0.12372602241E+03  0.12984870272E+03  0.00000000000E+00 0.  1.
         12    1    4    4    0    0  0.35448109601E+02  0.36871013226E+02 -0.36958820209E+02  0.63103046534E+02  0.00000000000E+00 0. -1.
         -5    1    5    5    0  501 -0.52835936629E+02  0.19752986903E+02 -0.26224911602E+02  0.62383112135E+02  0.47000000000E+01 0.  1.
         11    1    6    6    0    0  0.12110101275E+02  0.15389752221E+02 -0.28483891954E+01  0.19789197743E+02  0.00000000000E+00 0. -1.
        -12    1    6    6    0    0  0.29236240466E+02 -0.93479238702E+02  0.18068393745E+02  0.99597151954E+02  0.00000000000E+00 0.  1.
</event>
<event>
12    1  0.2614920E-002  0.2061541E+03  0.7818608E-02  0.1144648E+00
         -2   -1    0    0    0  501 -0.00000000000E+00  0.00000000000E+00  0.16281877654E+03  0.16281877654E+03  0.00000000000E+00 0. -1.
          2   -1    0    0  502    0  0.00000000000E+00 -0.00000000000E+00 -0.26732653107E+03  0.26732653107E+03  0.00000000000E+00 0.  1.
          6    2    1    2  502    0  0.98075824921E+02  0.56742676698E+02 -0.19239426112E+02  0.20709149778E+03  0.17227342843E+03 0.  0.
         24    2    3    3    0    0  0.13403694581E+02  0.15317020001E+02 -0.50945102670E+02  0.10752847947E+03  0.92480810341E+02 0.  0.
         -6    2    1    2    0  501 -0.98075824921E+02 -0.56742676698E+02 -0.85268328414E+02  0.22305380983E+03  0.17217350393E+03 0.  0.
        -24    2    5    5    0    0  0.10382734757E+02 -0.18542780554E+02 -0.66121936636E+02  0.10638690985E+03  0.80588015183E+02 0.  0.
          5    1    3    3  502    0  0.84672130340E+02  0.41425656697E+02  0.31705676558E+02  0.99563018310E+02  0.47000000000E+01 0. -1.
        -11    1    4    4    0    0 -0.37077040422E+02  0.22236373344E+02 -0.17866848644E+02  0.46780204215E+02  0.00000000000E+00 0.  1.
         12    1    4    4    0    0  0.50480735004E+02 -0.69193533431E+01 -0.33078254026E+02  0.60748275257E+02  0.00000000000E+00 0. -1.
         -5    1    5    5    0  501 -0.10845855968E+03 -0.38199896143E+02 -0.19146391778E+02  0.11666689998E+03  0.47000000000E+01 0.  1.
         11    1    6    6    0    0 -0.14816040684E+02  0.74415581361E+01  0.11879399730E+02  0.20396371907E+02  0.00000000000E+00 0. -1.
        -12    1    6    6    0    0  0.25198775441E+02 -0.25984338690E+02 -0.78001336365E+02  0.85990537942E+02  0.00000000000E+00 0.  1.
</event>
<event>
12    1  0.2614920E-002  0.2129414E+03  0.7818608E-02  0.1139258E+00
          1   -1    0    0  502    0  0.00000000000E+00  0.00000000000E+00  0.13911206991E+04  0.13911206991E+04  0.00000000000E+00 0.  1.
         -1   -1    0    0    0  501 -0.00000000000E+00 -0.00000000000E+00 -0.43989193864E+02  0.43989193864E+02  0.00000000000E+00 0. -1.
          6    2    1    2  502    0 -0.10623331938E+03  0.64946732651E+02  0.10398867243E+04  0.10615626441E+04  0.17334143136E+03 0.  0.
         24    2    3    3    0    0 -0.37279018851E+02 -0.14748189450E+02  0.26266682870E+03  0.27721652648E+03  0.79043692448E+02 0.  0.
         -6    2    1    2    0  501  0.10623331938E+03 -0.64946732651E+02  0.30724478099E+03  0.37354724887E+03  0.17214701703E+03 0.  0.
        -24    2    5    5    0    0 -0.16021424834E+01 -0.66664988107E+02  0.18545901636E+03  0.21080419464E+03  0.74810254835E+02 0.  0.
          5    1    3    3  502    0 -0.68954300526E+02  0.79694922101E+02  0.77721989555E+03  0.78434611761E+03  0.47000000000E+01 0. -1.
        -11    1    4    4    0    0 -0.30051546302E+02 -0.26581236611E+02  0.26002426863E+03  0.26310126920E+03  0.00000000000E+00 0.  1.
         12    1    4    4    0    0 -0.72274725487E+01  0.11833047161E+02  0.26425600713E+01  0.14115257287E+02  0.00000000000E+00 0. -1.
         -5    1    5    5    0  501  0.10783546186E+03  0.17182554562E+01  0.12178576462E+03  0.16274305423E+03  0.47000000000E+01 0.  1.
         13    1    6    6    0    0  0.11755396085E+01 -0.82900596889E+02  0.14351829796E+03  0.16574496284E+03  0.00000000000E+00 0. -1.
        -14    1    6    6    0    0 -0.27776820919E+01  0.16235608782E+02  0.41940718404E+02  0.45059231802E+02  0.00000000000E+00 0.  1.
</event>
<event>
12    1  0.2614920E-002  0.2008462E+03  0.7818608E-02  0.1149027E+00
         -2   -1    0    0    0  501 -0.00000000000E+00  0.00000000000E+00  0.74044456496E+02  0.74044456496E+02  0.00000000000E+00 0.  1.
          2   -1    0    0  502    0  0.00000000000E+00 -0.00000000000E+00 -0.10256283806E+04  0.10256283806E+04  0.00000000000E+00 0. -1.
          6    2    1    2  502    0  0.19658167441E+01 -0.93133722245E+02 -0.95546232304E+02  0.21968100802E+03  0.17450761623E+03 0.  0.
         24    2    3    3    0    0 -0.12060911370E+02 -0.12878575858E+03 -0.51743977751E+02  0.16129826827E+03  0.81292403818E+02 0.  0.
         -6    2    1    2    0  501 -0.19658167441E+01  0.93133722245E+02 -0.85603769176E+03  0.87999182904E+03  0.18140378939E+03 0.  0.
        -24    2    5    5    0    0  0.48699367796E+02  0.10854123316E+03 -0.71512944874E+03  0.72938779434E+03  0.80272027231E+02 0.  0.
          5    1    3    3  502    0  0.14026728114E+02  0.35652036334E+02 -0.43802254553E+02  0.58382739746E+02  0.47000000000E+01 0. -1.
        -13    1    4    4    0    0  0.34728215457E+02 -0.45783596128E+02 -0.20940333520E+02  0.61161133011E+02  0.00000000000E+00 0.  1.
         14    1    4    4    0    0 -0.46789126826E+02 -0.83002162450E+02 -0.30803644231E+02  0.10013713526E+03  0.00000000000E+00 0. -1.
         -5    1    5    5    0  501 -0.50665184540E+02 -0.15407510912E+02 -0.14090824303E+03  0.15060403471E+03  0.47000000000E+01 0.  1.
         13    1    6    6    0    0 -0.88063032518E+01  0.71448727495E+02 -0.44154147705E+03  0.44737159900E+03  0.00000000000E+00 0. -1.
        -14    1    6    6    0    0  0.57505671048E+02  0.37092505662E+02 -0.27358797169E+03  0.28201619534E+03  0.00000000000E+00 0.  1.
</event>
<event>
12    1  0.2614920E-002  0.2233082E+03  0.7818608E-02  0.1131440E+00
          2   -1    0    0  502    0  0.00000000000E+00  0.00000000000E+00  0.12499461321E+03  0.12499461321E+03  0.00000000000E+00 0. -1.
         -2   -1    0    0    0  501 -0.00000000000E+00 -0.00000000000E+00 -0.51946779435E+03  0.51946779435E+03  0.00000000000E+00 0.  1.
          6    2    1    2  502    0  0.14312494580E+03  0.17737445807E+02 -0.42900634949E+02  0.22864321584E+03  0.17215658156E+03 0.  0.
         24    2    3    3    0    0  0.59558332588E+01  0.29724484474E+02 -0.15824274684E+02  0.88235688201E+02  0.81339486573E+02 0.  0.
         -6    2    1    2    0  501 -0.14312494580E+03 -0.17737445807E+02 -0.35157254619E+03  0.41581919173E+03  0.16882824965E+03 0.  0.
        -24    2    5    5    0    0 -0.32298054394E+02 -0.55050362676E+02 -0.13947004502E+03  0.17357052893E+03  0.81247328001E+02 0.  0.
          5    1    3    3  502    0  0.13716911254E+03 -0.11987038666E+02 -0.27076360265E+02  0.14040752763E+03  0.47000000000E+01 0. -1.
        -13    1    4    4    0    0  0.33932014141E+02  0.39771781509E+02 -0.23824254941E+02  0.57452339478E+02  0.00000000000E+00 0.  1.
         14    1    4    4    0    0 -0.27976180882E+02 -0.10047297035E+02  0.79999802574E+01  0.30783348723E+02  0.00000000000E+00 0. -1.
         -5    1    5    5    0  501 -0.11082689141E+03  0.37312916868E+02 -0.21210250118E+03  0.24224866280E+03  0.47000000000E+01 0.  1.
         11    1    6    6    0    0 -0.99326748622E+01  0.20056024091E+02 -0.49064413817E+02  0.53927904053E+02  0.00000000000E+00 0. -1.
        -12    1    6    6    0    0 -0.22365379532E+02 -0.75106386767E+02 -0.90405631198E+02  0.11964262488E+03  0.00000000000E+00 0.  1.
</event>
<event>
12    1  0.2614920E-002  0.1753278E+03  0.7818608E-02  0.1172403E+00
         -2   -1    0    0    0  501 -0.00000000000E+00  0.00000000000E+00  0.20241331666E+02  0.20241331666E+02  0.00000000000E+00 0.  1.
          2   -1    0    0  502    0  0.00000000000E+00 -0.00000000000E+00 -0.15232477045E+04  0.15232477045E+04  0.00000000000E+00 0. -1.
          6    2    1    2  502    0 -0.34423513020E+01  0.31118281215E+02 -0.79567012611E+03  0.81485365526E+03  0.17296049462E+03 0.  0.
         24    2    3    3    0    0  0.57074062981E+02  0.25699273651E+02 -0.52310939268E+03  0.53556340221E+03  0.96264322287E+02 0.  0.
         -6    2    1    2    0  501  0.34423513020E+01 -0.31118281215E+02 -0.70733624671E+03  0.72863538089E+03  0.17206032422E+03 0.  0.
        -24    2    5    5    0    0 -0.56421597883E+02 -0.43122079831E+02 -0.55954752136E+03  0.56866231774E+03  0.72391245894E+02 0.  0.
          5    1    3    3  502    0 -0.60516414283E+02  0.54190075646E+01 -0.27256073343E+03  0.27929025305E+03  0.47000000000E+01 0. -1.
        -11    1    4    4    0    0  0.31468499141E+02  0.55637541491E+02 -0.19766279011E+03  0.20774113954E+03  0.00000000000E+00 0.  1.
         12    1    4    4    0    0  0.25605563840E+02 -0.29938267840E+02 -0.32544660257E+03  0.32782226268E+03  0.00000000000E+00 0. -1.
         -5    1    5    5    0  501  0.59863949185E+02  0.12003798615E+02 -0.14778872535E+03  0.15997306315E+03  0.47000000000E+01 0.  1.
         11    1    6    6    0    0 -0.29635521457E+02  0.13147481569E+00 -0.40228414233E+03  0.40337428350E+03  0.00000000000E+00 0. -1.
        -12    1    6    6    0    0 -0.26786076427E+02 -0.43253554646E+02 -0.15726337903E+03  0.16528803424E+03  0.00000000000E+00 0.  1.
</event>
<event>
12    1  0.2614920E-002  0.2419583E+03  0.7818608E-02  0.1118495E+00
          2   -1    0    0  502    0  0.00000000000E+00  0.00000000000E+00  0.60959295101E+03  0.60959295101E+03  0.00000000000E+00 0. -1.
         -2   -1    0    0    0  501 -0.00000000000E+00 -0.00000000000E+00 -0.10423525826E+03  0.10423525826E+03  0.00000000000E+00 0.  1.
          6    2    1    2  502    0  0.54002936880E+02  0.16222582793E+03  0.15316331844E+03  0.28686578044E+03  0.17204487041E+03 0.  0.
         24    2    3    3    0    0  0.89022546559E+01  0.14417916947E+03  0.49941132505E+02  0.17268757285E+03  0.80374113093E+02 0.  0.
         -6    2    1    2    0  501 -0.54002936880E+02 -0.16222582793E+03  0.35219437431E+03  0.42696242882E+03  0.17035991868E+03 0.  0.
        -24    2    5    5    0    0 -0.21892597828E+02 -0.97631536028E+02  0.10958480293E+03  0.17381229443E+03  0.90502386677E+02 0.  0.
          5    1    3    3  502    0  0.45100682224E+02  0.18046658464E+02  0.10322218594E+03  0.11417820759E+03  0.47000000000E+01 0. -1.
        -13    1    4    4    0    0  0.44281633833E+02  0.91997714749E+02  0.27130052973E+02  0.10564318430E+03  0.00000000000E+00 0.  1.
         14    1    4    4    0    0 -0.35379379177E+02  0.52181454718E+02  0.22811079532E+02  0.67044388556E+02  0.00000000000E+00 0. -1.
         -5    1    5    5    0  501 -0.32110339052E+02 -0.64594291903E+02  0.24260957138E+03  0.25315013440E+03  0.47000000000E+01 0.  1.
         13    1    6    6    0    0  0.28608228421E+02 -0.47072360812E+01  0.20161208958E+02  0.35313781326E+02  0.00000000000E+00 0. -1.
        -14    1    6    6    0    0 -0.50500826249E+02 -0.92924299947E+02  0.89423593970E+02  0.13849851310E+03  0.00000000000E+00 0.  1.
</event>
<event>
12    1  0.2614920E-002  0.1772575E+03  0.7818608E-02  0.1170484E+00
         -2   -1    0    0    0  501 -0.00000000000E+00  0.00000000000E+00  0.28026474714E+02  0.28026474714E+02  0.00000000000E+00 0.  1.
          2   -1    0    0  502    0  0.00000000000E+00 -0.00000000000E+00 -0.11604095686E+04  0.11604095686E+04  0.00000000000E+00 0. -1.
          6    2    1    2  502    0  0.63660027700E+01  0.47562828195E+02 -0.68469183691E+03  0.70805898439E+03  0.17390188393E+03 0.  0.
         24    2    3    3    0    0 -0.11328662053E+02 -0.28624923289E+02 -0.20918517253E+03  0.22613953832E+03  0.80205545736E+02 0.  0.
         -6    2    1    2    0  501 -0.63660027700E+01 -0.47562828195E+02 -0.44769125699E+03  0.48037705893E+03  0.16742732317E+03 0.  0.
        -24    2    5    5    0    0 -0.49592020243E+02  0.14283720562E+02 -0.29699906501E+03  0.31178372898E+03  0.79606883473E+02 0.  0.
          5    1    3    3  502    0  0.17694664823E+02  0.76187751484E+02 -0.47550666437E+03  0.48191944607E+03  0.47000000000E+01 0. -1.
        -13    1    4    4    0    0  0.31286879520E+02  0.49250292326E+01 -0.77721039327E+02  0.83926662611E+02  0.00000000000E+00 0.  1.
         14    1    4    4    0    0 -0.42615541573E+02 -0.33549952522E+02 -0.13146413321E+03  0.14221287571E+03  0.00000000000E+00 0. -1.
         -5    1    5    5    0  501  0.43226017473E+02 -0.61846548758E+02 -0.15069219198E+03  0.16859332995E+03  0.47000000000E+01 0.  1.
         11    1    6    6    0    0  0.82140550238E+01  0.25307673562E+02 -0.39361592566E+02  0.47510883074E+02  0.00000000000E+00 0. -1.
        -12    1    6    6    0    0 -0.57806075266E+02 -0.11023953000E+02 -0.25763747244E+03  0.26427284590E+03  0.00000000000E+00 0.  1.
</event>
<event>
12    1  0.2614920E-002  0.1925374E+03  0.7818608E-02  0.1156192E+00
          2   -1    0    0  502    0  0.00000000000E+00  0.00000000000E+00  0.71512495958E+03  0.71512495958E+03  0.00000000000E+00 0. -1.
         -2   -1    0    0    0  501 -0.00000000000E+00 -0.00000000000E+00 -0.54052825048E+02  0.54052825048E+02  0.00000000000E+00 0.  1.
          6    2    1    2  502    0  0.14865854326E+02 -0.83018727436E+02  0.41051742714E+03  0.45399089859E+03  0.17455679673E+03 0.  0.
         24    2    3    3    0    0 -0.68649460160E+01  0.15594461150E+02  0.10368671323E+03  0.13093677674E+03  0.78122917889E+02 0.  0.
         -6    2    1    2    0  501 -0.14865854326E+02  0.83018727436E+02  0.25055470739E+03  0.31518688604E+03  0.17161587632E+03 0.  0.
        -24    2    5    5    0    0  0.53393172687E+02  0.76344089210E+02  0.16955142454E+03  0.20894439267E+03  0.78935561175E+02 0.  0.
          5    1    3    3  502    0  0.21730800342E+02 -0.98613188586E+02  0.30683071392E+03  0.32305412186E+03  0.47000000000E+01 0. -1.
        -11    1    4    4    0    0  0.23618406622E+02 -0.14582548980E+02  0.73273676936E+02  0.78355035562E+02  0.00000000000E+00 0.  1.
         12    1    4    4    0    0 -0.30483352638E+02  0.30177010130E+02  0.30413036291E+02  0.52581741174E+02  0.00000000000E+00 0. -1.
         -5    1    5    5    0  501 -0.68259027013E+02  0.66746382259E+01  0.81003282852E+02  0.10624249337E+03  0.47000000000E+01 0.  1.
         13    1    6    6    0    0 -0.18227463697E+02  0.34863856692E+02  0.54776695933E+02  0.67440457840E+02  0.00000000000E+00 0. -1.
        -14    1    6    6    0    0  0.71620636384E+02  0.41480232518E+02  0.11477472861E+03  0.14150393483E+03  0.00000000000E+00 0.  1.
</event>
<event>
12    1  0.2614920E-002  0.2541664E+03  0.7818608E-02  0.1110700E+00
          1   -1    0    0  502    0  0.00000000000E+00  0.00000000000E+00  0.15071811686E+03  0.15071811686E+03  0.00000000000E+00 0. -1.
         -1   -1    0    0    0  501 -0.00000000000E+00 -0.00000000000E+00 -0.48937714755E+03  0.48937714755E+03  0.00000000000E+00 0.  1.
          6    2    1    2  502    0  0.36023549017E+02 -0.18470512707E+03 -0.28225559584E+03  0.38000579593E+03  0.17123814851E+03 0.  0.
         24    2    3    3    0    0  0.12255056083E+02 -0.17213571729E+03 -0.29390530381E+03  0.35032858221E+03  0.81048728153E+02 0.  0.
         -6    2    1    2    0  501 -0.36023549017E+02  0.18470512707E+03 -0.56403434842E+02  0.26008946848E+03  0.17044501783E+03 0.  0.
        -24    2    5    5    0    0 -0.90232515863E+02  0.12396767987E+03 -0.38299974038E+02  0.17655818768E+03  0.78714757541E+02 0.  0.
          5    1    3    3  502    0  0.23768492934E+02 -0.12569409783E+02  0.11649707970E+02  0.29677213724E+02  0.47000000000E+01 0. -1.
        -11    1    4    4    0    0 -0.20857067915E+02 -0.34271405169E+02 -0.11656980749E+03  0.12328043849E+03  0.00000000000E+00 0.  1.
         12    1    4    4    0    0  0.33112123998E+02 -0.13786431212E+03 -0.17733549632E+03  0.22704814372E+03  0.00000000000E+00 0. -1.
         -5    1    5    5    0  501  0.54208966846E+02  0.60737447200E+02 -0.18103460804E+02  0.83531280799E+02  0.47000000000E+01 0.  1.
         11    1    6    6    0    0 -0.43840561994E+02  0.71896858341E+02  0.18967606746E+02  0.86318730418E+02  0.00000000000E+00 0. -1.
        -12    1    6    6    0    0 -0.46391953869E+02  0.52070821531E+02 -0.57267580784E+02  0.90239457266E+02  0.00000000000E+00 0.  1.
</event>
<event>
12    1  0.2614920E-002  0.1818566E+03  0.7818608E-02  0.1166018E+00
         -2   -1    0    0    0  501 -0.00000000000E+00  0.00000000000E+00  0.84212082405E+02  0.84212082405E+02  0.00000000000E+00 0. -1.
          2   -1    0    0  502    0  0.00000000000E+00 -0.00000000000E+00 -0.72496322334E+03  0.72496322334E+03  0.00000000000E+00 0.  1.
          6    2    1    2  502    0  0.24187606389E+02 -0.52548556654E+02 -0.46222362201E+02  0.18737513686E+03  0.17212363009E+03 0.  0.
         24    2    3    3    0    0 -0.10746637406E+01 -0.66151240926E+02 -0.87832222688E+02  0.13661407106E+03  0.81066414074E+02 0.  0.
         -6    2    1    2    0  501 -0.24187606389E+02  0.52548556654E+02 -0.59452877874E+03  0.62180016889E+03  0.17269797386E+03 0.  0.
        -24    2    5    5    0    0 -0.79191554009E+02  0.13221040014E+02 -0.41248457736E+03  0.42754706319E+03  0.78783669357E+02 0.  0.
          5    1    3    3  502    0  0.25262270130E+02  0.13602684272E+02  0.41609860486E+02  0.50761065801E+02  0.47000000000E+01 0. -1.
        -11    1    4    4    0    0  0.15098165261E+02  0.34435441600E+01 -0.56522985224E+02  0.58605976224E+02  0.00000000000E+00 0.  1.
         12    1    4    4    0    0 -0.16172829002E+02 -0.69594785086E+02 -0.31309237464E+02  0.78008094835E+02  0.00000000000E+00 0. -1.
         -5    1    5    5    0  501  0.55003947620E+02  0.39327516640E+02 -0.18204420137E+03  0.19425310570E+03  0.47000000000E+01 0.  1.
         11    1    6    6    0    0 -0.28192380947E+02  0.41555449164E+02 -0.13601488672E+03  0.14498867234E+03  0.00000000000E+00 0. -1.
        -12    1    6    6    0    0 -0.50999173062E+02 -0.28334409150E+02 -0.27646969064E+03  0.28255839085E+03  0.00000000000E+00 0.  1.
</event>
<event>
12    1  0.2614920E-002  0.1898363E+03  0.7818608E-02  0.1158609E+00
         -2   -1    0    0    0  501 -0.00000000000E+00  0.00000000000E+00  0.24263552640E+02  0.24263552640E+02  0.00000000000E+00 0. -1.
          2   -1    0    0  502    0  0.00000000000E+00 -0.00000000000E+00 -0.19773385441E+04  0.19773385441E+04  0.00000000000E+00 0.  1.
          6    2    1    2  502    0  0.36249072631E+01 -0.78046859708E+02 -0.14847912993E+04  0.14971816234E+04  0.17562220434E+03 0.  0.
         24    2    3    3    0    0  0.59443261142E+02 -0.84677253439E+02 -0.11766161878E+04  0.11838868100E+04  0.80365334142E+02 0.  0.
         -6    2    1    2    0  501 -0.36249072631E+01  0.78046859708E+02 -0.46828369213E+03  0.50442047333E+03  0.17042871041E+03 0.  0.
        -24    2    5    5    0    0  0.11079419712E+02  0.10648102642E+03 -0.25099390011E+03  0.28473510106E+03  0.81333740594E+02 0.  0.
          5    1    3    3  502    0 -0.55818353879E+02  0.66303937307E+01 -0.30817511153E+03  0.31329481342E+03  0.47000000000E+01 0. -1.
        -13    1    4    4    0    0  0.32095560764E+02  0.42195579298E+01 -0.47980422646E+03  0.48089502537E+03  0.00000000000E+00 0.  1.
         14    1    4    4    0    0  0.27347700377E+02 -0.88896811369E+02 -0.69681196130E+03  0.70299178459E+03  0.00000000000E+00 0. -1.
         -5    1    5    5    0  501 -0.14704326975E+02 -0.28434166712E+02 -0.21728979203E+03  0.21968537226E+03  0.47000000000E+01 0.  1.
         13    1    6    6    0    0 -0.16823104778E+02  0.45506964110E+02 -0.38573765452E+02  0.61982546076E+02  0.00000000000E+00 0. -1.
        -14    1    6    6    0    0  0.27902524490E+02  0.60974062310E+02 -0.21242013465E+03  0.22275255499E+03  0.00000000000E+00 0.  1.
</event>
<event>
12    1  0.2614920E-002  0.1831416E+03  0.7818608E-02  0.1164797E+00
         -2   -1    0    0    0  501 -0.00000000000E+00  0.00000000000E+00  0.17409039187E+03  0.17409039187E+03  0.00000000000E+00 0. -1.
          2   -1    0    0  502    0  0.00000000000E+00 -0.00000000000E+00 -0.19297279193E+03  0.19297279193E+03  0.00000000000E+00 0.  1.
          6    2    1    2  502    0  0.11978576514E+02 -0.66534245174E+02 -0.21197647111E+01  0.18204139536E+03  0.16900971613E+03 0.  0.
         24    2    3    3    0    0  0.61158908073E+02 -0.28636006585E+02  0.33194396669E+02  0.11045814666E+03  0.80862236452E+02 0.  0.
         -6    2    1    2    0  501 -0.11978576514E+02  0.66534245174E+02 -0.16762635342E+02  0.18502178844E+03  0.17141115535E+03 0.  0.
        -24    2    5    5    0    0 -0.29099863197E+02  0.10472612162E+03  0.97398799902E+01  0.13526004407E+03  0.79912775394E+02 0.  0.
          5    1    3    3  502    0 -0.49180331558E+02 -0.37898238589E+02 -0.35314161380E+02  0.71583248699E+02  0.47000000000E+01 0. -1.
        -11    1    4    4    0    0  0.58137882387E-01 -0.10804233678E+02 -0.23089625756E+02  0.25492462865E+02  0.00000000000E+00 0.  1.
         12    1    4    4    0    0  0.61100770190E+02 -0.17831772907E+02  0.56284022425E+02  0.84965683797E+02  0.00000000000E+00 0. -1.
         -5    1    5    5    0  501  0.17121286683E+02 -0.38191876446E+02 -0.26502515333E+02  0.49761744373E+02  0.47000000000E+01 0.  1.
         13    1    6    6    0    0  0.93657234435E+01  0.10385742127E+02  0.28425823661E+02  0.31679770611E+02  0.00000000000E+00 0. -1.
        -14    1    6    6    0    0 -0.38465586640E+02  0.94340379492E+02 -0.18685943671E+02  0.10358027346E+03  0.00000000000E+00 0.  1.
</event>
<event>
12    1  0.2614920E-002  0.1797204E+03  0.7818608E-02  0.1168074E+00
         -3   -1    0    0    0  501 -0.00000000000E+00  0.00000000000E+00  0.80238147949E+02  0.80238147949E+02  0.00000000000E+00 0.  1.
          3   -1    0    0  502    0  0.00000000000E+00 -0.00000000000E+00 -0.40513842617E+03  0.40513842617E+03  0.00000000000E+00 0. -1.
          6    2    1    2  502    0 -0.51252701519E+02 -0.44759171594E+01 -0.14264049536E+03  0.22909917288E+03  0.17173598008E+03 0.  0.
         24    2    3    3    0    0 -0.87593624908E+02 -0.42169771340E+02 -0.11036219711E+03  0.16741069833E+03  0.79972461653E+02 0.  0.
         -6    2    1    2    0  501  0.51252701519E+02  0.44759171594E+01 -0.18225978286E+03  0.25627740124E+03  0.17266326965E+03 0.  0.
        -24    2    5    5    0    0 -0.10816195791E+02  0.18859438910E+02 -0.24884564288E+02  0.86428989017E+02  0.79862757749E+02 0.  0.
          5    1    3    3  502    0  0.36340923389E+02  0.37693854181E+02 -0.32278298244E+02  0.61688474558E+02  0.47000000000E+01 0. -1.
        -13    1    4    4    0    0 -0.37939575951E+02 -0.57685462532E+02 -0.39632432684E+02  0.79610010246E+02  0.00000000000E+00 0.  1.
         14    1    4    4    0    0 -0.49654048957E+02  0.15515691192E+02 -0.70729764431E+02  0.87800688081E+02  0.00000000000E+00 0. -1.
         -5    1    5    5    0  501  0.62068897310E+02 -0.14383521750E+02 -0.15737521858E+03  0.16984841222E+03  0.47000000000E+01 0.  1.
         11    1    6    6    0    0 -0.16594698312E+02  0.68225726361E+01 -0.52648176755E+02  0.55621596750E+02  0.00000000000E+00 0. -1.
        -12    1    6    6    0    0  0.57785025215E+01  0.12036866274E+02  0.27763612467E+02  0.30807392267E+02  0.00000000000E+00 0.  1.
</event>
<event>
12    1  0.2614920E-002  0.2811023E+03  0.7818608E-02  0.1095088E+00
          2   -1    0    0  502    0  0.00000000000E+00  0.00000000000E+00  0.10136029047E+04  0.10136029047E+04  0.00000000000E+00 0.  1.
         -2   -1    0    0    0  501 -0.00000000000E+00 -0.00000000000E+00 -0.81608302108E+02  0.81608302108E+02  0.00000000000E+00 0. -1.
          6    2    1    2  502    0  0.19444943577E+03  0.10369551774E+03  0.58356736919E+03  0.64823039599E+03  0.17631910965E+03 0.  0.
         24    2    3    3    0    0  0.18862084530E+03  0.10539484445E+03  0.59294110346E+03  0.63611358649E+03  0.79846391499E+02 0.  0.
         -6    2    1    2    0  501 -0.19444943577E+03 -0.10369551774E+03  0.34842723339E+03  0.44698081081E+03  0.17270484879E+03 0.  0.
        -24    2    5    5    0    0 -0.26865976921E+02 -0.17834661520E+02  0.14606903428E+03  0.17052605311E+03  0.81872560397E+02 0.  0.
          5    1    3    3  502    0  0.58285904699E+01 -0.16993267168E+01 -0.93737342663E+01  0.12116809491E+02  0.47000000000E+01 0. -1.
        -13    1    4    4    0    0  0.11549645460E+03  0.10660205588E+03  0.41032541086E+03  0.43939773798E+03  0.00000000000E+00 0.  1.
         14    1    4    4    0    0  0.73124390696E+02 -0.12072114307E+01  0.18261569260E+03  0.19671584851E+03  0.00000000000E+00 0. -1.
         -5    1    5    5    0  501 -0.16758345885E+03 -0.85860856215E+02  0.20235819911E+03  0.27645475771E+03  0.47000000000E+01 0.  1.
         11    1    6    6    0    0  0.16226364065E+02 -0.34747725402E+02  0.43479553225E+02  0.57975605733E+02  0.00000000000E+00 0. -1.
        -12    1    6    6    0    0 -0.43092340986E+02  0.16913063882E+02  0.10258948105E+03  0.11255044737E+03  0.00000000000E+00 0.  1.
</event>
<event>
12    1  0.2614920E-002  0.2892648E+03  0.7818608E-02  0.1090734E+00
          2   -1    0    0  502    0  0.00000000000E+00  0.00000000000E+00  0.20844487384E+03  0.20844487384E+03  0.00000000000E+00 0.  1.
         -2   -1    0    0    0  501 -0.00000000000E+00 -0.00000000000E+00 -0.42121093775E+03  0.42121093775E+03  0.00000000000E+00 0. -1.
          6    2    1    2  502    0 -0.47326526305E+02 -0.22757095208E+03 -0.38186431311E+02  0.29190046076E+03  0.17239297299E+03 0.  0.
         24    2    3    3    0    0  0.36678782458E+02 -0.78755580197E+02 -0.28220376117E+02  0.12065701106E+03  0.78828612801E+02 0.  0.
         -6    2    1    2    0  501  0.47326526305E+02  0.22757095208E+03 -0.17457963260E+03  0.33775535083E+03  0.17196595760E+03 0.  0.
        -24    2    5    5    0    0 -0.16700622926E+02  0.19025459492E+03 -0.16103337226E+03  0.26227305145E+03  0.79872929338E+02 0.  0.
          5    1    3    3  502    0 -0.84005308763E+02 -0.14881537188E+03 -0.99660551936E+01  0.17124344970E+03  0.47000000000E+01 0. -1.
        -11    1    4    4    0    0 -0.21509373375E+02 -0.33674332752E+02  0.42933061304E+01  0.40187638732E+02  0.00000000000E+00 0.  1.
         12    1    4    4    0    0  0.58188155833E+02 -0.45081247445E+02 -0.32513682248E+02  0.80469372333E+02  0.00000000000E+00 0. -1.
         -5    1    5    5    0  501  0.64027149232E+02  0.37316357158E+02 -0.13546260342E+02  0.75482299379E+02  0.47000000000E+01 0.  1.
         13    1    6    6    0    0 -0.42662219422E+02  0.77691349206E+02 -0.91754911053E+02  0.12757340793E+03  0.00000000000E+00 0. -1.
        -14    1    6    6    0    0  0.25961596495E+02  0.11256324572E+03 -0.69278461204E+02  0.13469964352E+03  0.00000000000E+00 0.  1.
</event>
<event>
12    1  0.2614920E-002  0.2261663E+03  0.7818608E-02  0.1129368E+00
         -2   -1    0    0    0  501 -0.00000000000E+00  0.00000000000E+00  0.63801933317E+02  0.63801933317E+02  0.00000000000E+00 0. -1.
          2   -1    0    0  502    0  0.00000000000E+00 -0.00000000000E+00 -0.12319577476E+04  0.12319577476E+04  0.00000000000E+00 0.  1.
          6    2    1    2  502    0 -0.12075785869E+03  0.59959191523E+02 -0.98028664391E+03  0.10079765939E+04  0.19203474812E+03 0.  0.
         24    2    3    3    0    0 -0.71696532528E+02  0.12000847133E+03 -0.66144929265E+03  0.67981158007E+03  0.71317541153E+02 0.  0.
         -6    2    1    2    0  501  0.12075785869E+03 -0.59959191523E+02 -0.18786917035E+03  0.28778308702E+03  0.17130882909E+03 0.  0.
        -24    2    5    5    0    0  0.52129346203E+02 -0.54774474012E+00 -0.20768168951E+02  0.97561039392E+02  0.79806458421E+02 0.  0.
          5    1    3    3  502    0 -0.49061326167E+02 -0.60049279804E+02 -0.31883735126E+03  0.32816501381E+03  0.47000000000E+01 0. -1.
        -13    1    4    4    0    0 -0.47516154851E+02  0.53312267726E+02 -0.47468222497E+03  0.48002416352E+03  0.00000000000E+00 0.  1.
         14    1    4    4    0    0 -0.24180377677E+02  0.66696203601E+02 -0.18676706769E+03  0.19978741655E+03  0.00000000000E+00 0. -1.
         -5    1    5    5    0  501  0.68628512492E+02 -0.59411446783E+02 -0.16710100140E+03  0.19022204763E+03  0.47000000000E+01 0.  1.
         13    1    6    6    0    0 -0.17393291793E+02  0.16247061241E+02 -0.54085033218E+01  0.24407898446E+02  0.00000000000E+00 0. -1.
        -14    1    6    6    0    0  0.69522637997E+02 -0.16794805981E+02 -0.15359665629E+02  0.73153140946E+02  0.00000000000E+00 0.  1.
</event>
<event>
12    1  0.2614920E-002  0.5043597E+03  0.7818608E-02  0.1012647E+00
         -1   -1    0    0    0  501 -0.00000000000E+00  0.00000000000E+00  0.39711925742E+03  0.39711925742E+03  0.00000000000E+00 0.  1.
          1   -1    0    0  502    0  0.00000000000E+00 -0.00000000000E+00 -0.77865688893E+03  0.77865688893E+03  0.00000000000E+00 0. -1.
          6    2    1    2  502    0  0.37507676826E+03 -0.29002697700E+03 -0.43843618159E+03  0.66850031638E+03  0.17282406715E+03 0.  0.
         24    2    3    3    0    0  0.24830033636E+03 -0.21686786966E+03 -0.21631905768E+03  0.40245027332E+03  0.80545377619E+02 0.  0.
         -6    2    1    2    0  501 -0.37507676826E+03  0.29002697700E+03  0.56898550085E+02  0.50727582998E+03  0.17115225151E+03 0.  0.
        -24    2    5    5    0    0 -0.37553484122E+03  0.29571013883E+03  0.72638106820E+02  0.48988813878E+03  0.79013864474E+02 0.  0.
          5    1    3    3  502    0  0.12677643191E+03 -0.73159107348E+02 -0.22211712391E+03  0.26605004306E+03  0.47000000000E+01 0. -1.
        -13    1    4    4    0    0  0.21179278174E+03 -0.19337594917E+03 -0.21600145223E+03  0.35903630384E+03  0.00000000000E+00 0.  1.
         14    1    4    4    0    0  0.36507554620E+02 -0.23491920490E+02 -0.31760545161E+00  0.43413969479E+02  0.00000000000E+00 0. -1.
         -5    1    5    5    0  501  0.45807295263E+00 -0.56831618208E+01 -0.15739556735E+02  0.17387691202E+02  0.47000000000E+01 0.  1.
         13    1    6    6    0    0 -0.18683306402E+02 -0.22697597722E+01 -0.23822805247E+01  0.18970846265E+02  0.00000000000E+00 0. -1.
        -14    1    6    6    0    0 -0.35685153481E+03  0.29797989860E+03  0.75020387345E+02  0.47091729251E+03  0.00000000000E+00 0.  1.
</event>
<event>
12    1  0.2614920E-002  0.2496835E+03  0.7818608E-02  0.1113505E+00
         -2   -1    0    0    0  501 -0.00000000000E+00  0.00000000000E+00  0.47285056412E+02  0.47285056412E+02  0.00000000000E+00 0. -1.
          2   -1    0    0  502    0  0.00000000000E+00 -0.00000000000E+00 -0.14793370666E+04  0.14793370666E+04  0.00000000000E+00 0.  1.
          6    2    1    2  502    0  0.17445986212E+03  0.28651563810E+02 -0.45705233114E+03  0.51943536645E+03  0.17221820730E+03 0.  0.
         24    2    3    3    0    0  0.50580004455E+02 -0.40691117399E+01 -0.31577421453E+03  0.32865156742E+03  0.75654502067E+02 0.  0.
         -6    2    1    2    0  501 -0.17445986212E+03 -0.28651563810E+02 -0.97499967904E+03  0.10071867565E+04  0.18039853890E+03 0.  0.
        -24    2    5    5    0    0 -0.10838414258E+03 -0.12978326540E+02 -0.30810973888E+03  0.33683167649E+03  0.81292113820E+02 0.  0.
          5    1    3    3  502    0  0.12387985766E+03  0.32720675550E+02 -0.14127811661E+03  0.19078379904E+03  0.47000000000E+01 0. -1.
        -11    1    4    4    0    0  0.60808172734E+02  0.20682786570E+02 -0.22919219097E+03  0.23802199884E+03  0.00000000000E+00 0.  1.
         12    1    4    4    0    0 -0.10228168280E+02 -0.24751898310E+02 -0.86582023565E+02  0.90629568579E+02  0.00000000000E+00 0. -1.
         -5    1    5    5    0  501 -0.66075719541E+02 -0.15673237270E+02 -0.66688994015E+03  0.67035508005E+03  0.47000000000E+01 0.  1.
         11    1    6    6    0    0 -0.67650082218E+02  0.89910496610E+01 -0.26477885885E+03  0.27343228904E+03  0.00000000000E+00 0. -1.
        -12    1    6    6    0    0 -0.40734060358E+02 -0.21969376201E+02 -0.43330880036E+02  0.63399387446E+02  0.00000000000E+00 0.  1.
</event>
<event>
12    1  0.2614920E-002  0.2696328E+03  0.7818608E-02  0.1101490E+00
         -1   -1    0    0    0  501 -0.00000000000E+00  0.00000000000E+00  0.27529385578E+03  0.27529385578E+03  0.00000000000E+00 0.  1.
          1   -1    0    0  502    0  0.00000000000E+00 -0.00000000000E+00 -0.28690596889E+03  0.28690596889E+03  0.00000000000E+00 0. -1.
          6    2    1    2  502    0  0.48363638747E+02  0.20397784721E+03  0.73481694333E+02  0.27800072753E+03  0.16714915914E+03 0.  0.
         24    2    3    3    0    0 -0.15226721760E+02  0.16548993812E+03  0.18231195185E+02  0.18526583253E+03  0.79826559171E+02 0.  0.
         -6    2    1    2    0  501 -0.48363638747E+02 -0.20397784721E+03 -0.85093807440E+02  0.28419909714E+03  0.17199467157E+03 0.  0.
        -24    2    5    5    0    0  0.33441697535E+02 -0.13375706408E+03 -0.25479976783E+02  0.16091499341E+03  0.78962690950E+02 0.  0.
          5    1    3    3  502    0  0.63590360507E+02  0.38487909089E+02  0.55250499148E+02  0.92734895005E+02  0.47000000000E+01 0. -1.
        -13    1    4    4    0    0  0.81100142665E+01 -0.65196374140E+01 -0.16864581708E+01  0.10541448884E+02  0.00000000000E+00 0.  1.
         14    1    4    4    0    0 -0.23336736026E+02  0.17200957554E+03  0.19917653356E+02  0.17472438364E+03  0.00000000000E+00 0. -1.
         -5    1    5    5    0  501 -0.81805336282E+02 -0.70220783131E+02 -0.59613830657E+02  0.12328410373E+03  0.47000000000E+01 0.  1.
         13    1    6    6    0    0  0.15087643711E+02 -0.81105344457E+02  0.24475515488E+02  0.86050942764E+02  0.00000000000E+00 0. -1.
        -14    1    6    6    0    0  0.18354053824E+02 -0.52651719624E+02 -0.49955492271E+02  0.74864050646E+02  0.00000000000E+00 0.  1.
</event>
<event>
12    1  0.2614920E-002  0.2077517E+03  0.7818608E-02  0.1143359E+00
          2   -1    0    0  502    0  0.00000000000E+00  0.00000000000E+00  0.66095178439E+03  0.66095178439E+03  0.00000000000E+00 0.  1.
         -2   -1    0    0    0  501 -0.00000000000E+00 -0.00000000000E+00 -0.66647009880E+02  0.66647009880E+02  0.00000000000E+00 0. -1.
          6    2    1    2  502    0 -0.49322764995E+02 -0.10707493761E+03  0.35004072254E+03  0.40749121910E+03  0.17211277930E+03 0.  0.
         24    2    3    3    0    0 -0.28392034219E+02 -0.13276737549E+03  0.33738055701E+03  0.37170621321E+03  0.76854310817E+02 0.  0.
         -6    2    1    2    0  501  0.49322764995E+02  0.10707493761E+03  0.24426405198E+03  0.32010757517E+03  0.17001810252E+03 0.  0.
        -24    2    5    5    0    0  0.28863856126E+02  0.32505767487E+02  0.22134458810E+03  0.23932069561E+03  0.79945115901E+02 0.  0.
          5    1    3    3  502    0 -0.20930730776E+02  0.25692437883E+02  0.12660165529E+02  0.35785005888E+02  0.47000000000E+01 0. -1.
        -11    1    4    4    0    0 -0.28373939001E+02 -0.61523341786E+01  0.73325985457E+02  0.78864642100E+02  0.00000000000E+00 0.  1.
         12    1    4    4    0    0 -0.18095217815E-01 -0.12661504132E+03  0.26405457155E+03  0.29284157111E+03  0.00000000000E+00 0. -1.
         -5    1    5    5    0  501  0.20458908869E+02  0.74569170125E+02  0.22919463880E+02  0.80786879564E+02  0.47000000000E+01 0.  1.
         13    1    6    6    0    0  0.15309065566E+02 -0.38226107510E+01  0.12410196793E+01  0.15827822696E+02  0.00000000000E+00 0. -1.
        -14    1    6    6    0    0  0.13554790560E+02  0.36328378238E+02  0.22010356842E+03  0.22349287291E+03  0.00000000000E+00 0.  1.
</event>
<event>
12    1  0.2614920E-002  0.3569300E+03  0.7818608E-02  0.1059806E+00
         -2   -1    0    0    0  501 -0.00000000000E+00  0.00000000000E+00  0.24964500150E+03  0.24964500150E+03  0.00000000000E+00 0. -1.
          2   -1    0    0  502    0  0.00000000000E+00 -0.00000000000E+00 -0.56118582082E+03  0.56118582082E+03  0.00000000000E+00 0.  1.
          6    2    1    2  502    0  0.17964567605E+03  0.25615105378E+03 -0.27778008854E+03  0.45219307216E+03  0.17155426444E+03 0.  0.
         24    2    3    3    0    0  0.94720769089E+02  0.12066113124E+03 -0.63689432087E+02  0.18493540976E+03  0.81324223550E+02 0.  0.
         -6    2    1    2    0  501 -0.17964567605E+03 -0.25615105378E+03 -0.33760730786E+02  0.35863775016E+03  0.17203289693E+03 0.  0.
        -24    2    5    5    0    0 -0.53212278316E+02 -0.41888685147E+02  0.80194122996E+01  0.10632556847E+03  0.81575774779E+02 0.  0.
          5    1    3    3  502    0  0.84924906964E+02  0.13548992254E+03 -0.21409065645E+03  0.26725766240E+03  0.47000000000E+01 0. -1.
        -11    1    4    4    0    0  0.37766995384E+02  0.11524671255E+02 -0.45909422539E+02  0.60554430604E+02  0.00000000000E+00 0.  1.
         12    1    4    4    0    0  0.56953773704E+02  0.10913645998E+03 -0.17780009547E+02  0.12438097916E+03  0.00000000000E+00 0. -1.
         -5    1    5    5    0  501 -0.12643339774E+03 -0.21426236863E+03 -0.41780143086E+02  0.25231218169E+03  0.47000000000E+01 0.  1.
         13    1    6    6    0    0 -0.24374750905E+02 -0.62693040683E+02  0.17540668082E+02  0.69514177464E+02  0.00000000000E+00 0. -1.
        -14    1    6    6    0    0 -0.28837527411E+02  0.20804355536E+02 -0.95212557822E+01  0.36811391010E+02  0.00000000000E+00 0.  1.
</event>
<event>
12    1  0.2614920E-002  0.2995321E+03  0.7818608E-02  0.1085475E+00
          2   -1    0    0  502    0  0.00000000000E+00  0.00000000000E+00  0.56809035536E+03  0.56809035536E+03  0.00000000000E+00 0. -1.
         -2   -1    0    0    0  501 -0.00000000000E+00 -0.00000000000E+00 -0.27032932086E+03  0.27032932086E+03  0.00000000000E+00 0.  1.
          6    2    1    2  502    0  0.19225881240E+03 -0.15279401395E+03 -0.12156718308E+03  0.32282301897E+03  0.17066534485E+03 0.  0.
         24    2    3    3    0    0  0.11783173029E+03 -0.16203365248E+02 -0.62940802236E+02  0.15652347479E+03  0.79944905194E+02 0.  0.
         -6    2    1    2    0  501 -0.19225881240E+03  0.15279401395E+03  0.41932821759E+03  0.51559665725E+03  0.17232033327E+03 0.  0.
        -24    2    5    5    0    0 -0.10573472599E+03  0.28851277810E+02  0.27637843135E+03  0.30749824122E+03  0.78472304188E+02 0.  0.
          5    1    3    3  502    0  0.74427082115E+02 -0.13659064870E+03 -0.58626380845E+02  0.16629954418E+03  0.47000000000E+01 0. -1.
        -13    1    4    4    0    0  0.11982121918E+03  0.36747960430E+01 -0.65127625644E+02  0.13642667010E+03  0.00000000000E+00 0.  1.
         14    1    4    4    0    0 -0.19894888897E+01 -0.19878161291E+02  0.21868234083E+01  0.20096804696E+02  0.00000000000E+00 0. -1.
         -5    1    5    5    0  501 -0.86524086412E+02  0.12394273614E+03  0.14294978624E+03  0.20809841603E+03  0.47000000000E+01 0.  1.
         13    1    6    6    0    0 -0.42988409075E+02  0.46887770575E+02  0.18152376925E+03  0.19234693953E+03  0.00000000000E+00 0. -1.
        -14    1    6    6    0    0 -0.62746316917E+02 -0.18036492765E+02  0.94854662098E+02  0.11515130168E+03  0.00000000000E+00 0.  1.
</event>
<event>
12    1  0.2614920E-002  0.2774858E+03  0.7818608E-02  0.1097070E+00
          1   -1    0    0  502    0  0.00000000000E+00  0.00000000000E+00  0.99966087479E+02  0.99966087479E+02  0.00000000000E+00 0. -1.
         -1   -1    0    0    0  501 -0.00000000000E+00 -0.00000000000E+00 -0.81123143618E+03  0.81123143618E+03  0.00000000000E+00 0.  1.
          6    2    1    2  502    0  0.20105892178E+01  0.21876182916E+03 -0.25348497080E+03  0.37599376085E+03  0.17104355414E+03 0.  0.
         24    2    3    3    0    0 -0.48117528188E+02  0.18844502526E+03 -0.23284753018E+03  0.31370467104E+03  0.79786115725E+02 0.  0.
         -6    2    1    2    0  501 -0.20105892178E+01 -0.21876182916E+03 -0.45778037790E+03  0.53520376281E+03  0.17035085256E+03 0.  0.
        -24    2    5    5    0    0  0.36615014455E+02 -0.21023240117E+03 -0.32615314007E+03  0.39768100782E+03  0.78968293737E+02 0.  0.
          5    1    3    3  502    0  0.50128117406E+02  0.30316803904E+02 -0.20637440623E+02  0.62289089808E+02  0.47000000000E+01 0. -1.
        -13    1    4    4    0    0 -0.10056094547E+02 -0.34736934368E+01 -0.30193610567E+02  0.32013211378E+02  0.00000000000E+00 0.  1.
         14    1    4    4    0    0 -0.38061433641E+02  0.19191871869E+03 -0.20265391961E+03  0.28169145967E+03  0.00000000000E+00 0. -1.
         -5    1    5    5    0  501 -0.38625603673E+02 -0.85294279878E+01 -0.13162723783E+03  0.13752275499E+03  0.47000000000E+01 0.  1.
         11    1    6    6    0    0  0.23468841188E+02 -0.53123782163E+02 -0.38570555843E+02  0.69718078833E+02  0.00000000000E+00 0. -1.
        -12    1    6    6    0    0  0.13146173267E+02 -0.15710861901E+03 -0.28758258422E+03  0.32796292898E+03  0.00000000000E+00 0.  1.
</event>
<event>
12    1  0.2614920E-002  0.1764850E+03  0.7818608E-02  0.1171249E+00
          2   -1    0    0  502    0  0.00000000000E+00  0.00000000000E+00  0.43608459765E+02  0.43608459765E+02  0.00000000000E+00 0.  1.
         -2   -1    0    0    0  501 -0.00000000000E+00 -0.00000000000E+00 -0.12997905553E+04  0.12997905553E+04  0.00000000000E+00 0. -1.
          6    2    1    2  502    0  0.66840140162E+01  0.34584189037E+02 -0.17634822212E+03  0.24916297623E+03  0.17246086833E+03 0.  0.
         24    2    3    3    0    0 -0.50488340215E+02 -0.62701324111E+01 -0.14147636211E+03  0.17057614343E+03  0.80574640013E+02 0.  0.
         -6    2    1    2    0  501 -0.66840140162E+01 -0.34584189037E+02 -0.10798338734E+04  0.10942360388E+04  0.17340868586E+03 0.  0.
        -24    2    5    5    0    0  0.60154298104E+02 -0.30916152051E+02 -0.57020748089E+03  0.58021078224E+03  0.83268436527E+02 0.  0.
          5    1    3    3  502    0  0.57172354232E+02  0.40854321448E+02 -0.34871860011E+02  0.78586832803E+02  0.47000000000E+01 0. -1.
        -13    1    4    4    0    0 -0.58678377930E+01  0.22283542507E+02 -0.41864614346E+01  0.23420381004E+02  0.00000000000E+00 0.  1.
         14    1    4    4    0    0 -0.44620502422E+02 -0.28553674918E+02 -0.13728990067E+03  0.14715576242E+03  0.00000000000E+00 0. -1.
         -5    1    5    5    0  501 -0.66838312120E+02 -0.36680369857E+01 -0.50962639250E+03  0.51402525657E+03  0.47000000000E+01 0.  1.
         13    1    6    6    0    0  0.79373712453E+02 -0.14563656049E+02 -0.39151292139E+03  0.39974323499E+03  0.00000000000E+00 0. -1.
        -14    1    6    6    0    0 -0.19219414349E+02 -0.16352496002E+02 -0.17869455950E+03  0.18046754725E+03  0.00000000000E+00 0.  1.
</event>
<event>
12    1  0.2614920E-002  0.1730980E+03  0.7818608E-02  0.1174655E+00
         -1   -1    0    0    0  501 -0.00000000000E+00  0.00000000000E+00  0.35122768283E+02  0.35122768283E+02  0.00000000000E+00 0.  1.
          1   -1    0    0  502    0  0.00000000000E+00 -0.00000000000E+00 -0.11862084919E+04  0.11862084919E+04  0.00000000000E+00 0. -1.
          6    2    1    2  502    0  0.10116992356E+02 -0.12537930238E+02 -0.89690365195E+03  0.91327839803E+03  0.17141096289E+03 0.  0.
         24    2    3    3    0    0  0.10723872486E+02 -0.74739181032E+02 -0.55230437614E+03  0.56307829124E+03  0.79473841899E+02 0.  0.
         -6    2    1    2    0  501 -0.10116992356E+02  0.12537930238E+02 -0.25418207165E+03  0.30805286213E+03  0.17328729639E+03 0.  0.
        -24    2    5    5    0    0  0.17613443206E+02 -0.97598663466E+01 -0.25934174862E+03  0.27179157347E+03  0.78784696859E+02 0.  0.
          5    1    3    3  502    0 -0.60688012966E+00  0.62201250794E+02 -0.34459927581E+03  0.35020010679E+03  0.47000000000E+01 0. -1.
        -11    1    4    4    0    0  0.39730694837E+02 -0.46864926318E+02 -0.22241459148E+03  0.23074466393E+03  0.00000000000E+00 0.  1.
         12    1    4    4    0    0 -0.29006822351E+02 -0.27874254714E+02 -0.32988978466E+03  0.33233362731E+03  0.00000000000E+00 0. -1.
         -5    1    5    5    0  501 -0.27730435563E+02  0.22297796584E+02  0.51596769718E+01  0.36261288662E+02  0.47000000000E+01 0.  1.
         11    1    6    6    0    0  0.23366223195E+00  0.33331528727E+02 -0.83306145359E+02  0.89727137812E+02  0.00000000000E+00 0. -1.
        -12    1    6    6    0    0  0.17379780975E+02 -0.43091395073E+02 -0.17603560326E+03  0.18206443566E+03  0.00000000000E+00 0.  1.
</event>
<event>
12    1  0.2614920E-002  0.2101001E+03  0.7818608E-02  0.1141487E+00
          2   -1    0    0  502    0  0.00000000000E+00  0.00000000000E+00  0.75815409765E+02  0.75815409765E+02  0.00000000000E+00 0.  1.
         -2   -1    0    0    0  501 -0.00000000000E+00 -0.00000000000E+00 -0.60946915581E+03  0.60946915581E+03  0.00000000000E+00 0. -1.
          6    2    1    2  502    0 -0.94664521971E+02 -0.65387449262E+02 -0.33563991859E+03  0.39447383447E+03  0.17239072158E+03 0.  0.
         24    2    3    3    0    0 -0.80730586470E+00 -0.29799663494E+02 -0.70042781106E+02  0.11050271454E+03  0.80101105166E+02 0.  0.
         -6    2    1    2    0  501  0.94664521971E+02  0.65387449262E+02 -0.19801382746E+03  0.29081073111E+03  0.17923313093E+03 0.  0.
        -24    2    5    5    0    0  0.28994628710E+02  0.61970093892E+02 -0.19805289917E+03  0.22488422108E+03  0.81651582896E+02 0.  0.
          5    1    3    3  502    0 -0.93857216107E+02 -0.35587785768E+02 -0.26559713749E+03  0.28397111993E+03  0.47000000000E+01 0. -1.
        -11    1    4    4    0    0 -0.76910602296E+01 -0.86793800996E-01  0.16790677320E+02  0.18468535012E+02  0.00000000000E+00 0.  1.
         12    1    4    4    0    0  0.68837543649E+01 -0.29712869693E+02 -0.86833458426E+02  0.92034179530E+02  0.00000000000E+00 0. -1.
         -5    1    5    5    0  501  0.65669893261E+02  0.34173553703E+01  0.39071711661E-01  0.65926510034E+02  0.47000000000E+01 0.  1.
         13    1    6    6    0    0  0.49106504617E+02  0.39902525070E+02 -0.17801562789E+03  0.18892650443E+03  0.00000000000E+00 0. -1.
        -14    1    6    6    0    0 -0.20111875907E+02  0.22067568821E+02 -0.20037271275E+02  0.35957716645E+02  0.00000000000E+00 0.  1.
</event>
<event>
12    1  0.2614920E-002  0.2364126E+03  0.7818608E-02  0.1122206E+00
          2   -1    0    0  502    0  0.00000000000E+00  0.00000000000E+00  0.55513269729E+03  0.55513269729E+03  0.00000000000E+00 0. -1.
         -2   -1    0    0    0  501 -0.00000000000E+00 -0.00000000000E+00 -0.17918698482E+03  0.17918698482E+03  0.00000000000E+00 0.  1.
          6    2    1    2  502    0 -0.70098651291E+01  0.16172248573E+03 -0.55972752781E+02  0.24091953436E+03  0.16942836947E+03 0.  0.
         24    2    3    3    0    0 -0.36559328788E+02  0.17505802931E+03 -0.29201558445E+02  0.19861357295E+03  0.81318646047E+02 0.  0.
         -6    2    1    2    0  501  0.70098651291E+01 -0.16172248573E+03  0.43191846525E+03  0.49340014775E+03  0.17517660968E+03 0.  0.
        -24    2    5    5    0    0 -0.47701981248E+02 -0.14782832623E+03  0.37278341023E+03  0.41151316140E+03  0.79037446870E+02 0.  0.
          5    1    3    3  502    0  0.29549463659E+02 -0.13335543577E+02 -0.26771194337E+02  0.42305961415E+02  0.47000000000E+01 0. -1.
        -13    1    4    4    0    0  0.85309285229E+01  0.40075667057E+02 -0.38195314839E+02  0.56015336357E+02  0.00000000000E+00 0.  1.
         14    1    4    4    0    0 -0.45090257311E+02  0.13498236225E+03  0.89937563945E+01  0.14259823659E+03  0.00000000000E+00 0. -1.
         -5    1    5    5    0  501  0.54711846378E+02 -0.13894159504E+02  0.59135055014E+02  0.81886986352E+02  0.47000000000E+01 0.  1.
         11    1    6    6    0    0 -0.36047453800E+02 -0.12957767390E+03  0.22487329876E+03  0.26202632119E+03  0.00000000000E+00 0. -1.
        -12    1    6    6    0    0 -0.11654527449E+02 -0.18250652327E+02  0.14791011147E+03  0.14948684021E+03  0.00000000000E+00 0.  1.
</event>
<event>
12    1  0.2614920E-002  0.2564986E+03  0.7818608E-02  0.1109265E+00
          1   -1    0    0  502    0  0.00000000000E+00  0.00000000000E+00  0.12226875180E+04  0.12226875180E+04  0.00000000000E+00 0.  1.
         -1   -1    0    0    0  501 -0.00000000000E+00 -0.00000000000E+00 -0.66406173339E+02  0.66406173339E+02  0.00000000000E+00 0. -1.
          6    2    1    2  502    0  0.15421370291E+03 -0.11497112884E+03  0.85697727612E+03  0.89424569987E+03  0.16812225708E+03 0.  0.
         24    2    3    3    0    0  0.12902383540E+03 -0.13363716713E+03  0.54132882110E+03  0.57700921464E+03  0.73462226219E+02 0.  0.
         -6    2    1    2    0  501 -0.15421370291E+03  0.11497112884E+03  0.29930406859E+03  0.39484799151E+03  0.17123604847E+03 0.  0.
        -24    2    5    5    0    0 -0.71392851081E+02  0.59371834438E+01  0.19837331896E+03  0.22468101185E+03  0.77442843949E+02 0.  0.
          5    1    3    3  502    0  0.25189867512E+02  0.18666038291E+02  0.31564845501E+03  0.31723648523E+03  0.47000000000E+01 0. -1.
        -13    1    4    4    0    0  0.14342401825E+02 -0.63980251985E+02  0.17500365180E+03  0.18688353399E+03  0.00000000000E+00 0.  1.
         14    1    4    4    0    0  0.11468143358E+03 -0.69656915142E+02  0.36632516930E+03  0.39012568064E+03  0.00000000000E+00 0. -1.
         -5    1    5    5    0  501 -0.82820851832E+02  0.10903394539E+03  0.10093074963E+03  0.17016697966E+03  0.47000000000E+01 0.  1.
         11    1    6    6    0    0  0.11487143094E+02 -0.43830503916E+01  0.73047821296E+02  0.74075298064E+02  0.00000000000E+00 0. -1.
        -12    1    6    6    0    0 -0.82879994174E+02  0.10320233835E+02  0.12532549766E+03  0.15060571379E+03  0.00000000000E+00 0.  1.
</event>
<event>
12    1  0.2614920E-002  0.2135100E+03  0.7818608E-02  0.1138816E+00
         -2   -1    0    0    0  501 -0.00000000000E+00  0.00000000000E+00  0.35581804653E+02  0.35581804653E+02  0.00000000000E+00 0. -1.
          2   -1    0    0  502    0  0.00000000000E+00 -0.00000000000E+00 -0.32454490053E+04  0.32454490053E+04  0.00000000000E+00 0.  1.
          6    2    1    2  502    0  0.21395158763E+02 -0.12160476977E+03 -0.28769626137E+04  0.28847699672E+04  0.17244828232E+03 0.  0.
         24    2    3    3    0    0 -0.26552049892E+02 -0.12163895885E+02 -0.15897086853E+04  0.15919741573E+04  0.79718516584E+02 0.  0.
         -6    2    1    2    0  501 -0.21395158763E+02  0.12160476977E+03 -0.33290458691E+03  0.39626084274E+03  0.17593100536E+03 0.  0.
        -24    2    5    5    0    0 -0.83968876871E+01  0.14012556039E+03 -0.18036524986E+03  0.24198085672E+03  0.79482270131E+02 0.  0.
          5    1    3    3  502    0  0.47947208656E+02 -0.10944087389E+03 -0.12872539285E+04  0.12927958099E+04  0.47000000000E+01 0. -1.
        -11    1    4    4    0    0 -0.39783228531E+02 -0.28053035376E+02 -0.14424235747E+04  0.14432447634E+04  0.00000000000E+00 0.  1.
         12    1    4    4    0    0  0.13231178639E+02  0.15889139491E+02 -0.14728511055E+03  0.14872939398E+03  0.00000000000E+00 0. -1.
         -5    1    5    5    0  501 -0.12998271076E+02 -0.18520790618E+02 -0.15253933705E+03  0.15427998601E+03  0.47000000000E+01 0.  1.
         13    1    6    6    0    0 -0.21831996952E+02  0.13721436787E+03 -0.18104854217E+03  0.22821698767E+03  0.00000000000E+00 0. -1.
        -14    1    6    6    0    0  0.13435109265E+02  0.29111925265E+01  0.68329231055E+00  0.13763869051E+02  0.00000000000E+00 0.  1.
</event>
<event>
12    1  0.2614920E-002  0.2051150E+03  0.7818608E-02  0.1145494E+00
         -1   -1    0    0    0  501 -0.00000000000E+00  0.00000000000E+00  0.68251965233E+02  0.68251965233E+02  0.00000000000E+00 0. -1.
          1   -1    0    0  502    0  0.00000000000E+00 -0.00000000000E+00 -0.61842697108E+03  0.61842697108E+03  0.00000000000E+00 0.  1.
          6    2    1    2  502    0 -0.37911063266E+02  0.10390526032E+03 -0.25564782989E+03  0.32780834051E+03  0.17282633868E+03 0.  0.
         24    2    3    3    0    0 -0.10027599205E+02  0.13779292683E+03 -0.23040996414E+03  0.27696641512E+03  0.67336469309E+02 0.  0.
         -6    2    1    2    0  501  0.37911063266E+02 -0.10390526032E+03 -0.29452717596E+03  0.35887059580E+03  0.17265079008E+03 0.  0.
        -24    2    5    5    0    0 -0.31534390835E+02 -0.38069054392E+02 -0.21411798419E+03  0.23379139998E+03  0.79801233350E+02 0.  0.
          5    1    3    3  502    0 -0.27883464062E+02 -0.33887666511E+02 -0.25237865746E+02  0.50841925387E+02  0.47000000000E+01 0. -1.
        -13    1    4    4    0    0 -0.38287848742E+02  0.88348948486E+02 -0.15489056244E+03  0.18238032348E+03  0.00000000000E+00 0.  1.
         14    1    4    4    0    0  0.28260249537E+02  0.49443978346E+02 -0.75519401696E+02  0.94586091637E+02  0.00000000000E+00 0. -1.
         -5    1    5    5    0  501  0.69445454102E+02 -0.65836205929E+02 -0.80409191768E+02  0.12507919582E+03  0.47000000000E+01 0.  1.
         13    1    6    6    0    0 -0.20644064887E+02  0.14889155119E+02 -0.20250872915E+02  0.32526331011E+02  0.00000000000E+00 0. -1.
        -14    1    6    6    0    0 -0.10890325949E+02 -0.52958209510E+02 -0.19386711128E+03  0.20126506897E+03  0.00000000000E+00 0.  1.
</event>
<event>
12    1  0.2614920E-002  0.1727807E+03  0.7818608E-02  0.1174979E+00
         -1   -1    0    0    0  501 -0.00000000000E+00  0.00000000000E+00  0.16641245407E+03  0.16641245407E+03  0.00000000000E+00 0. -1.
          1   -1    0    0  502    0  0.00000000000E+00 -0.00000000000E+00 -0.19191845499E+03  0.19191845499E+03  0.00000000000E+00 0.  1.
          6    2    1    2  502    0 -0.83885860462E+01  0.47877038523E+01  0.33072797783E+02  0.17500718878E+03  0.17158209606E+03 0.  0.
         24    2    3    3    0    0  0.23080111111E+02  0.32083430046E+02 -0.30817458103E+02  0.98591284895E+02  0.84902813386E+02 0.  0.
         -6    2    1    2    0  501  0.83885860462E+01 -0.47877038523E+01 -0.58578798710E+02  0.18332372028E+03  0.17344399752E+03 0.  0.
        -24    2    5    5    0    0  0.20741905294E+02 -0.98929900239E+01 -0.10946332597E+03  0.13050333068E+03  0.67236907261E+02 0.  0.
          5    1    3    3  502    0 -0.31468697157E+02 -0.27295726194E+02  0.63890255885E+02  0.76415903883E+02  0.47000000000E+01 0. -1.
        -11    1    4    4    0    0 -0.26031842864E+00  0.51008257308E+02 -0.42457553509E+02  0.66366813463E+02  0.00000000000E+00 0.  1.
         12    1    4    4    0    0  0.23340429540E+02 -0.18924827262E+02  0.11640095406E+02  0.32224471432E+02  0.00000000000E+00 0. -1.
         -5    1    5    5    0  501 -0.12353319247E+02  0.51052861716E+01  0.50884527262E+02  0.52820389604E+02  0.47000000000E+01 0.  1.
         11    1    6    6    0    0 -0.69846416193E+01 -0.28842051973E+02 -0.22379741753E+02  0.37168562274E+02  0.00000000000E+00 0. -1.
        -12    1    6    6    0    0  0.27726546913E+02  0.18949061949E+02 -0.87083584219E+02  0.93334768403E+02  0.00000000000E+00 0.  1.
</event>
<event>
12    1  0.2614920E-002  0.1964351E+03  0.7818608E-02  0.1152782E+00
          2   -1    0    0  502    0  0.00000000000E+00  0.00000000000E+00  0.28151443129E+04  0.28151443129E+04  0.00000000000E+00 0. -1.
         -2   -1    0    0    0  501 -0.00000000000E+00 -0.00000000000E+00 -0.24059071827E+02  0.24059071827E+02  0.00000000000E+00 0.  1.
          6    2    1    2  502    0 -0.55125262372E+02  0.67541164087E+02  0.47712234706E+03  0.51717604191E+03  0.17951245322E+03 0.  0.
         24    2    3    3    0    0 -0.41874067381E+02  0.90049640951E+02  0.18655238356E+03  0.22539663998E+03  0.78354822116E+02 0.  0.
         -6    2    1    2    0  501  0.55125262372E+02 -0.67541164087E+02  0.23139628940E+04  0.23220273428E+04  0.17258650740E+03 0.  0.
        -24    2    5    5    0    0  0.17074695133E+02 -0.45856358615E+02  0.21548961055E+04  0.21569745947E+04  0.81042123776E+02 0.  0.
          5    1    3    3  502    0 -0.13251194991E+02 -0.22508476864E+02  0.29056996350E+03  0.29177940193E+03  0.47000000000E+01 0. -1.
        -13    1    4    4    0    0  0.18250553096E+02  0.23280132163E+02  0.83971679894E+02  0.89029715635E+02  0.00000000000E+00 0.  1.
         14    1    4    4    0    0 -0.60124620477E+02  0.66769508788E+02  0.10258070367E+03  0.13636692435E+03  0.00000000000E+00 0. -1.
         -5    1    5    5    0  501  0.38050567238E+02 -0.21684805472E+02  0.15906678852E+03  0.16505274813E+03  0.47000000000E+01 0.  1.
         13    1    6    6    0    0  0.15259462342E+02  0.19514379320E+02  0.93386878367E+03  0.93419728500E+03  0.00000000000E+00 0. -1.
        -14    1    6    6    0    0  0.18152327917E+01 -0.65370737935E+02  0.12210273218E+04  0.12227773097E+04  0.00000000000E+00 0.  1.
</event>
<event>
12    1  0.2614920E-002  0.1823033E+03  0.7818608E-02  0.1165592E+00
          2   -1    0    0  502    0  0.00000000000E+00  0.00000000000E+00  0.67464639691E+03  0.67464639691E+03  0.00000000000E+00 0. -1.
         -2   -1    0    0    0  501 -0.00000000000E+00 -0.00000000000E+00 -0.68476268730E+02  0.68476268730E+02  0.00000000000E+00 0.  1.
          6    2    1    2  502    0 -0.51418272201E+02  0.34142204838E+02  0.10690055753E+03  0.21179229957E+03  0.17210090089E+03 0.  0.
         24    2    3    3    0    0 -0.19260512051E+02  0.85111160569E+02  0.89373383236E+02  0.14885385484E+03  0.80962901945E+02 0.  0.
         -6    2    1    2    0  501  0.51418272201E+02 -0.34142204838E+02  0.49926957065E+03  0.53133036607E+03  0.17097463223E+03 0.  0.
        -24    2    5    5    0    0  0.65583815699E+02  0.26086039158E+02  0.21019609513E+03  0.23567234023E+03  0.79858219488E+02 0.  0.
          5    1    3    3  502    0 -0.32157760149E+02 -0.50968955731E+02  0.17527174294E+02  0.62938444729E+02  0.47000000000E+01 0. -1.
        -13    1    4    4    0    0  0.17209362322E+02  0.69503169636E+02  0.81365104569E+02  0.10838419157E+03  0.00000000000E+00 0.  1.
         14    1    4    4    0    0 -0.36469874374E+02  0.15607990933E+02  0.80082786679E+01  0.40469663268E+02  0.00000000000E+00 0. -1.
         -5    1    5    5    0  501 -0.14165543498E+02 -0.60228243996E+02  0.28907347552E+03  0.29565802584E+03  0.47000000000E+01 0.  1.
         11    1    6    6    0    0  0.36811268904E+02  0.25435829538E+02  0.20030271749E+03  0.20523944450E+03  0.00000000000E+00 0. -1.
        -12    1    6    6    0    0  0.28772546794E+02  0.65020962026E+00  0.98933776409E+01  0.30432895733E+02  0.00000000000E+00 0.  1.
</event>
<event>
12    1  0.2614920E-002  0.1932138E+03  0.7818608E-02  0.1155594E+00
         -1   -1    0    0    0  501 -0.00000000000E+00  0.00000000000E+00  0.27890847293E+03  0.27890847293E+03  0.00000000000E+00 0. -1.
          1   -1    0    0  502    0  0.00000000000E+00 -0.00000000000E+00 -0.31933068561E+03  0.31933068561E+03  0.00000000000E+00 0.  1.
          6    2    1    2  502    0 -0.41361704990E+02  0.77276763225E+02  0.20776824918E+03  0.28355561720E+03  0.17191176198E+03 0.  0.
         24    2    3    3    0    0 -0.34682482811E+02  0.11712177205E+03  0.18926957246E+03  0.23887309515E+03  0.79479559785E+02 0.  0.
         -6    2    1    2    0  501  0.41361704990E+02 -0.77276763225E+02 -0.24819046186E+03  0.31468354134E+03  0.17246662593E+03 0.  0.
        -24    2    5    5    0    0 -0.34244821886E+02 -0.75328770791E+02 -0.19240553291E+03  0.22058683641E+03  0.69220891135E+02 0.  0.
          5    1    3    3  502    0 -0.66792221786E+01 -0.39845008824E+02  0.18498676718E+02  0.44682522058E+02  0.47000000000E+01 0. -1.
        -13    1    4    4    0    0  0.20026705138E+02  0.76298841222E+01  0.43786095576E+02  0.48749422727E+02  0.00000000000E+00 0.  1.
         14    1    4    4    0    0 -0.54709187949E+02  0.10949188793E+03  0.14548347688E+03  0.19012367242E+03  0.00000000000E+00 0. -1.
         -5    1    5    5    0  501  0.75606526875E+02 -0.19479924333E+01 -0.55784928949E+02  0.94096704929E+02  0.47000000000E+01 0.  1.
         13    1    6    6    0    0 -0.31734102598E+02 -0.73612834956E+02 -0.10014751145E+03  0.12827870746E+03  0.00000000000E+00 0. -1.
        -14    1    6    6    0    0 -0.25107192876E+01 -0.17159358355E+01 -0.92258021461E+02  0.92308128954E+02  0.00000000000E+00 0.  1.
</event>
<event>
12    1  0.2614920E-002  0.1844358E+03  0.7818608E-02  0.1163578E+00
          2   -1    0    0  502    0  0.00000000000E+00  0.00000000000E+00  0.13164799193E+04  0.13164799193E+04  0.00000000000E+00 0. -1.
         -2   -1    0    0    0  501 -0.00000000000E+00 -0.00000000000E+00 -0.31859562381E+02  0.31859562381E+02  0.00000000000E+00 0.  1.
          6    2    1    2  502    0  0.24461645689E+02 -0.51800238973E+02  0.92966516009E+03  0.94740024447E+03  0.17322897126E+03 0.  0.
         24    2    3    3    0    0  0.21584717701E+02  0.26886646662E+02  0.28387700050E+03  0.29681255650E+03  0.79515724698E+02 0.  0.
         -6    2    1    2    0  501 -0.24461645689E+02  0.51800238973E+02  0.35495519688E+03  0.40093923726E+03  0.17741883584E+03 0.  0.
        -24    2    5    5    0    0  0.49474759673E+01  0.10077249405E+03  0.22475971590E+03  0.25868547994E+03  0.78877592281E+02 0.  0.
          5    1    3    3  502    0  0.28769279888E+01 -0.78686885635E+02  0.64578815959E+03  0.65058768798E+03  0.47000000000E+01 0. -1.
        -11    1    4    4    0    0  0.36301215886E+02 -0.13396504115E+02  0.85434497512E+02  0.93788581194E+02  0.00000000000E+00 0.  1.
         12    1    4    4    0    0 -0.14716498186E+02  0.40283150777E+02  0.19844250299E+03  0.20302397530E+03  0.00000000000E+00 0. -1.
         -5    1    5    5    0  501 -0.29409121657E+02 -0.48972255073E+02  0.13019548098E+03  0.14225375732E+03  0.47000000000E+01 0.  1.
         13    1    6    6    0    0 -0.15131515102E+02 -0.71336208873E+01  0.45674376859E+02  0.48641546005E+02  0.00000000000E+00 0. -1.
        -14    1    6    6    0    0  0.20078991070E+02  0.10790611493E+03  0.17908533904E+03  0.21004393393E+03  0.00000000000E+00 0.  1.
</event>
<event>
12    1  0.2614920E-002  0.2030258E+03  0.7818608E-02  0.1147211E+00
          2   -1    0    0  502    0  0.00000000000E+00  0.00000000000E+00  0.16935148337E+04  0.16935148337E+04  0.00000000000E+00 0.  1.
         -2   -1    0    0    0  501 -0.00000000000E+00 -0.00000000000E+00 -0.37713701440E+02  0.37713701440E+02  0.00000000000E+00 0. -1.
          6    2    1    2  502    0  0.10118820354E+03 -0.34847233963E+02  0.31454798181E+03  0.37481601907E+03  0.17347401259E+03 0.  0.
         24    2    3    3    0    0  0.64272511448E+02  0.38378446275E+02  0.24029863274E+03  0.26409192772E+03  0.79982826433E+02 0.  0.
         -6    2    1    2    0  501 -0.10118820354E+03  0.34847233963E+02  0.13412531505E+04  0.13564125161E+04  0.17158530791E+03 0.  0.
        -24    2    5    5    0    0 -0.13298050346E+03  0.23639618592E+02  0.86340396426E+03  0.87735271215E+03  0.77709266883E+02 0.  0.
          5    1    3    3  502    0  0.36915692093E+02 -0.73225680238E+02  0.74249349067E+02  0.11072409135E+03  0.47000000000E+01 0. -1.
        -11    1    4    4    0    0  0.66213632070E+02  0.33329913512E+02  0.10415708224E+03  0.12784297395E+03  0.00000000000E+00 0.  1.
         12    1    4    4    0    0 -0.19411206219E+01  0.50485327631E+01  0.13614155050E+03  0.13624895377E+03  0.00000000000E+00 0. -1.
         -5    1    5    5    0  501  0.31792299924E+02  0.11207615371E+02  0.47784918623E+03  0.47905980394E+03  0.47000000000E+01 0.  1.
         13    1    6    6    0    0 -0.30730355247E+02  0.27803408762E+02  0.12035384634E+03  0.12728877641E+03  0.00000000000E+00 0. -1.
        -14    1    6    6    0    0 -0.10225014822E+03 -0.41637901699E+01  0.74305011792E+03  0.75006393574E+03  0.00000000000E+00 0.  1.
</event>
<event>
12    1  0.2614920E-002  0.2198277E+03  0.7818608E-02  0.1134012E+00
         -1   -1    0    0    0  501 -0.00000000000E+00  0.00000000000E+00  0.30202169963E+02  0.30202169963E+02  0.00000000000E+00 0.  1.
          1   -1    0    0  502    0  0.00000000000E+00 -0.00000000000E+00 -0.21939940264E+04  0.21939940264E+04  0.00000000000E+00 0. -1.
          6    2    1    2  502    0 -0.66096996805E+01  0.13794817508E+03 -0.50582763386E+03  0.55181555466E+03  0.17194599166E+03 0.  0.
         24    2    3    3    0    0  0.55878047404E+02  0.11649489935E+03 -0.39263465675E+03  0.42066792166E+03  0.78141595021E+02 0.  0.
         -6    2    1    2    0  501  0.66096996805E+01 -0.13794817508E+03 -0.16579642226E+04  0.16723806417E+04  0.17011249297E+03 0.  0.
        -24    2    5    5    0    0 -0.35321264369E+02 -0.14384873430E+02 -0.48807875138E+03  0.49523145788E+03  0.74691452155E+02 0.  0.
          5    1    3    3  502    0 -0.62487747084E+02  0.21453275734E+02 -0.11319297711E+03  0.13114763300E+03  0.47000000000E+01 0. -1.
        -11    1    4    4    0    0  0.30616916029E+02  0.11859664401E+03 -0.35274698843E+03  0.37340728081E+03  0.00000000000E+00 0.  1.
         12    1    4    4    0    0  0.25261131375E+02 -0.21017446588E+01 -0.39887668327E+02  0.47260640849E+02  0.00000000000E+00 0. -1.
         -5    1    5    5    0  501  0.41930964049E+02 -0.12356330165E+03 -0.11698854712E+04  0.11771491838E+04  0.47000000000E+01 0.  1.
         11    1    6    6    0    0 -0.39197464284E+02 -0.14742063387E+01 -0.10781343360E+03  0.11472728949E+03  0.00000000000E+00 0. -1.
        -12    1    6    6    0    0  0.38761999153E+01 -0.12910667092E+02 -0.38026531779E+03  0.38050416839E+03  0.00000000000E+00 0.  1.
</event>
<event>
12    1  0.2614920E-002  0.1919016E+03  0.7818608E-02  0.1156757E+00
         -2   -1    0    0    0  501 -0.00000000000E+00  0.00000000000E+00  0.26141528181E+02  0.26141528181E+02  0.00000000000E+00 0. -1.
          2   -1    0    0  502    0  0.00000000000E+00 -0.00000000000E+00 -0.17719343978E+04  0.17719343978E+04  0.00000000000E+00 0.  1.
          6    2    1    2  502    0  0.73033623263E+02 -0.42953829610E+02 -0.12825174469E+04  0.12969017229E+04  0.17298594088E+03 0.  0.
         24    2    3    3    0    0  0.10502303002E+03 -0.71304775313E+02 -0.99695623655E+03  0.10081208490E+04  0.79194070922E+02 0.  0.
         -6    2    1    2    0  501 -0.73033623263E+02  0.42953829610E+02 -0.46327542279E+03  0.50117420312E+03  0.17138413843E+03 0.  0.
        -24    2    5    5    0    0 -0.46565254348E+02  0.76436311968E+02 -0.19560798550E+03  0.23008455344E+03  0.81643034238E+02 0.  0.
          5    1    3    3  502    0 -0.31989406758E+02  0.28350945703E+02 -0.28556121032E+03  0.28878087386E+03  0.47000000000E+01 0. -1.
        -13    1    4    4    0    0  0.70347888780E+02 -0.36318729578E+02 -0.33063825412E+03  0.33998460356E+03  0.00000000000E+00 0.  1.
         14    1    4    4    0    0  0.34675141242E+02 -0.34986045735E+02 -0.66631798243E+03  0.66813624548E+03  0.00000000000E+00 0. -1.
         -5    1    5    5    0  501 -0.26468368916E+02 -0.33482482358E+02 -0.26766743729E+03  0.27108964968E+03  0.47000000000E+01 0.  1.
         11    1    6    6    0    0 -0.43274170116E+02  0.12505536910E+02 -0.13348812946E+03  0.14088336651E+03  0.00000000000E+00 0. -1.
        -12    1    6    6    0    0 -0.32910842318E+01  0.63930775057E+02 -0.62119856041E+02  0.89201186928E+02  0.00000000000E+00 0.  1.
</event>
<event>
12    1  0.2614920E-002  0.3253581E+03  0.7818608E-02  0.1073209E+00
         -2   -1    0    0    0  501 -0.00000000000E+00  0.00000000000E+00  0.21388646886E+03  0.21388646886E+03  0.00000000000E+00 0. -1.
          2   -1    0    0  502    0  0.00000000000E+00 -0.00000000000E+00 -0.11502503312E+04  0.11502503312E+04  0.00000000000E+00 0.  1.
          6    2    1    2  502    0  0.24163080918E+03 -0.13364182432E+03  0.47126958927E+02  0.32797890412E+03  0.17059784916E+03 0.  0.
         24    2    3    3    0    0  0.21852655050E+03 -0.10855316286E+03 -0.13566753996E+02  0.25820022191E+03  0.83340598389E+02 0.  0.
         -6    2    1    2    0  501 -0.24163080918E+03  0.13364182432E+03 -0.98349082128E+03  0.10361578959E+04  0.17356095365E+03 0.  0.
        -24    2    5    5    0    0 -0.18953370813E+03  0.46255730054E+02 -0.78326334825E+03  0.81151691935E+03  0.83639814674E+02 0.  0.
          5    1    3    3  502    0  0.23104258686E+02 -0.25088661462E+02  0.60693712924E+02  0.69778682216E+02  0.47000000000E+01 0. -1.
        -11    1    4    4    0    0  0.18190586967E+03 -0.49838912270E+02 -0.80338213257E+01  0.18878083823E+03  0.00000000000E+00 0.  1.
         12    1    4    4    0    0  0.36620680828E+02 -0.58714250591E+02 -0.55329326706E+01  0.69419383681E+02  0.00000000000E+00 0. -1.
         -5    1    5    5    0  501 -0.52097101055E+02  0.87386094268E+02 -0.20022747303E+03  0.22464097659E+03  0.47000000000E+01 0.  1.
         11    1    6    6    0    0 -0.17421325335E+03  0.43607791126E+02 -0.56849632041E+03  0.59618785916E+03  0.00000000000E+00 0. -1.
        -12    1    6    6    0    0 -0.15320454782E+02  0.26479389288E+01 -0.21476702784E+03  0.21532906019E+03  0.00000000000E+00 0.  1.
</event>
<event>
12    1  0.2614920E-002  0.2085345E+03  0.7818608E-02  0.1142732E+00
          2   -1    0    0  502    0  0.00000000000E+00  0.00000000000E+00  0.13923565864E+04  0.13923565864E+04  0.00000000000E+00 0.  1.
         -2   -1    0    0    0  501 -0.00000000000E+00 -0.00000000000E+00 -0.58525433815E+02  0.58525433815E+02  0.00000000000E+00 0. -1.
          6    2    1    2  502    0 -0.22419786201E+02 -0.11660126771E+03  0.11618032933E+04  0.11803172587E+04  0.17106559064E+03 0.  0.
         24    2    3    3    0    0 -0.46077359637E+02 -0.11142027260E+03  0.11333990941E+04  0.11426952966E+04  0.81372196340E+02 0.  0.
         -6    2    1    2    0  501  0.22419786201E+02  0.11660126771E+03  0.17202785931E+03  0.27056476159E+03  0.17179407263E+03 0.  0.
        -24    2    5    5    0    0  0.74234212558E+02  0.11228552697E+03  0.13683181939E+03  0.20760277605E+03  0.79102515416E+02 0.  0.
          5    1    3    3  502    0  0.23657573435E+02 -0.51809951112E+01  0.28404199261E+02  0.37621962028E+02  0.47000000000E+01 0. -1.
        -11    1    4    4    0    0 -0.43060571593E+02 -0.10804116822E+03  0.72489624340E+03  0.73416733144E+03  0.00000000000E+00 0.  1.
         12    1    4    4    0    0 -0.30167880434E+01 -0.33791043773E+01  0.40850285066E+03  0.40852796521E+03  0.00000000000E+00 0. -1.
         -5    1    5    5    0  501 -0.51814426356E+02  0.43157407396E+01  0.35196039915E+02  0.62961985534E+02  0.47000000000E+01 0.  1.
         13    1    6    6    0    0 -0.14672188152E+01  0.43863119724E+01 -0.95579473908E+01  0.10618230648E+02  0.00000000000E+00 0. -1.
        -14    1    6    6    0    0  0.75701431373E+02  0.10789921500E+03  0.14638976678E+03  0.19698454540E+03  0.00000000000E+00 0.  1.
</event>
<event>
12    1  0.2614920E-002  0.1789380E+03  0.7818608E-02  0.1168835E+00
          1   -1    0    0  502    0  0.00000000000E+00  0.00000000000E+00  0.18192860071E+04  0.18192860071E+04  0.00000000000E+00 0. -1.
         -1   -1    0    0    0  501 -0.00000000000E+00 -0.00000000000E+00 -0.17717592855E+02  0.17717592855E+02  0.00000000000E+00 0.  1.
          6    2    1    2  502    0 -0.37623295430E+02 -0.52150763288E+02  0.99849750916E+03  0.10154550479E+04  0.17325260176E+03 0.  0.
         24    2    3    3    0    0 -0.61430745786E+02  0.11943403740E+02  0.75896599011E+03  0.76631192525E+03  0.85371020950E+02 0.  0.
         -6    2    1    2    0  501  0.37623295430E+02  0.52150763288E+02  0.80307090513E+03  0.82154855211E+03  0.16088483564E+03 0.  0.
        -24    2    5    5    0    0  0.43562597667E+02 -0.18615791444E+02  0.58033061089E+03  0.58771418924E+03  0.79875545032E+02 0.  0.
          5    1    3    3  502    0  0.23807450356E+02 -0.64094167028E+02  0.23953151905E+03  0.24914312264E+03  0.47000000000E+01 0. -1.
        -13    1    4    4    0    0 -0.35171045211E+02 -0.14588739730E+02  0.11250012937E+03  0.11876915785E+03  0.00000000000E+00 0.  1.
         14    1    4    4    0    0 -0.26259700574E+02  0.26532143469E+02  0.64646586074E+03  0.64754276740E+03  0.00000000000E+00 0. -1.
         -5    1    5    5    0  501 -0.59393022373E+01  0.70766554732E+02  0.22274029424E+03  0.23383436287E+03  0.47000000000E+01 0.  1.
         13    1    6    6    0    0  0.46810749420E+02  0.21411048110E+02  0.27766639030E+03  0.28239742128E+03  0.00000000000E+00 0. -1.
        -14    1    6    6    0    0 -0.32481517534E+01 -0.40026839555E+02  0.30266422059E+03  0.30531676796E+03  0.00000000000E+00 0.  1.
</event>
<event>
12    1  0.2614920E-002  0.2100553E+03  0.7818608E-02  0.1141522E+00
         -2   -1    0    0    0  501 -0.00000000000E+00  0.00000000000E+00  0.50772466056E+03  0.50772466056E+03  0.00000000000E+00 0.  1.
          2   -1    0    0  502    0  0.00000000000E+00 -0.00000000000E+00 -0.90582130761E+02  0.90582130761E+02  0.00000000000E+00 0. -1.
          6    2    1    2  502    0  0.87884907860E+02  0.89623595347E+02  0.14618322044E+03  0.25403898330E+03  0.16556003512E+03 0.  0.
         24    2    3    3    0    0 -0.10478854953E+02  0.27695507328E+02  0.95235794306E+02  0.12704194338E+03  0.78695306929E+02 0.  0.
         -6    2    1    2    0  501 -0.87884907860E+02 -0.89623595347E+02  0.27095930936E+03  0.34426780801E+03  0.17130449625E+03 0.  0.
        -24    2    5    5    0    0 -0.75544307198E+02 -0.72723599062E+02  0.83518082796E+02  0.15560354612E+03  0.79003349308E+02 0.  0.
          5    1    3    3  502    0  0.98363762813E+02  0.61928088019E+02  0.50947426130E+02  0.12699703993E+03  0.47000000000E+01 0. -1.
        -11    1    4    4    0    0  0.15843142116E+02 -0.19860287880E+02  0.13191271050E+02  0.28625964066E+02  0.00000000000E+00 0.  1.
         12    1    4    4    0    0 -0.26321997069E+02  0.47555795208E+02  0.82044523256E+02  0.98415979311E+02  0.00000000000E+00 0. -1.
         -5    1    5    5    0  501 -0.12340600662E+02 -0.16899996285E+02  0.18744122656E+03  0.18866426189E+03  0.47000000000E+01 0.  1.
         13    1    6    6    0    0 -0.92218131143E+01  0.20759451906E+01 -0.13379301061E+02  0.16381608054E+02  0.00000000000E+00 0. -1.
        -14    1    6    6    0    0 -0.66322494083E+02 -0.74799544253E+02  0.96897383856E+02  0.13922193807E+03  0.00000000000E+00 0.  1.
</event>
<event>
12    1  0.2614920E-002  0.2530365E+03  0.7818608E-02  0.1111401E+00
          2   -1    0    0  502    0  0.00000000000E+00  0.00000000000E+00  0.14120724055E+04  0.14120724055E+04  0.00000000000E+00 0. -1.
         -2   -1    0    0    0  501 -0.00000000000E+00 -0.00000000000E+00 -0.47296819097E+02  0.47296819097E+02  0.00000000000E+00 0.  1.
          6    2    1    2  502    0  0.11501663752E+03  0.14498034473E+03  0.53403090213E+03  0.59093777824E+03  0.17254079534E+03 0.  0.
         24    2    3    3    0    0  0.51953742971E+02  0.61665297792E+02  0.42333301591E+03  0.43864057627E+03  0.81810222015E+02 0.  0.
         -6    2    1    2    0  501 -0.11501663752E+03 -0.14498034473E+03  0.83074468424E+03  0.86843144632E+03  0.17259292946E+03 0.  0.
        -24    2    5    5    0    0 -0.10289906294E+03 -0.15478367135E+03  0.52714842890E+03  0.56439901863E+03  0.78195806009E+02 0.  0.
          5    1    3    3  502    0  0.63062894552E+02  0.83315046941E+02  0.11069788622E+03  0.15229720197E+03  0.47000000000E+01 0. -1.
        -11    1    4    4    0    0  0.62829761383E+02  0.13432846632E+02  0.20764084352E+03  0.21735395139E+03  0.00000000000E+00 0.  1.
         12    1    4    4    0    0 -0.10876018412E+02  0.48232451161E+02  0.21569217239E+03  0.22128662488E+03  0.00000000000E+00 0. -1.
         -5    1    5    5    0  501 -0.12117574587E+02  0.98033266178E+01  0.30359625534E+03  0.30403242769E+03  0.47000000000E+01 0.  1.
         11    1    6    6    0    0 -0.53875779246E+02 -0.77352835740E+02  0.37600791963E+03  0.38764418790E+03  0.00000000000E+00 0. -1.
        -12    1    6    6    0    0 -0.49023283690E+02 -0.77430835612E+02  0.15114050926E+03  0.17675483073E+03  0.00000000000E+00 0.  1.
</event>
<event>
12    1  0.2614920E-002  0.2202045E+03  0.7818608E-02  0.1133731E+00
          2   -1    0    0  502    0  0.00000000000E+00  0.00000000000E+00  0.55964570495E+03  0.55964570495E+03  0.00000000000E+00 0.  1.
         -2   -1    0    0    0  501 -0.00000000000E+00 -0.00000000000E+00 -0.98366520737E+02  0.98366520737E+02  0.00000000000E+00 0. -1.
          6    2    1    2  502    0  0.93777525147E+02 -0.96521651301E+02  0.34572190109E+03  0.41079275685E+03  0.17639842062E+03 0.  0.
         24    2    3    3    0    0  0.11065870631E+03 -0.11542950294E+03  0.34039457732E+03  0.38446878471E+03  0.79865253465E+02 0.  0.
         -6    2    1    2    0  501 -0.93777525147E+02  0.96521651301E+02  0.11555728312E+03  0.24721946883E+03  0.17220141316E+03 0.  0.
        -24    2    5    5    0    0  0.20266061172E+02  0.46881401766E+02  0.50261898413E+02  0.10666459976E+03  0.79009488946E+02 0.  0.
          5    1    3    3  502    0 -0.16881181167E+02  0.18907851637E+02  0.53273237675E+01  0.26323972148E+02  0.47000000000E+01 0. -1.
        -11    1    4    4    0    0  0.11473883905E+03 -0.10914668829E+03  0.34193050945E+03  0.37682154137E+03  0.00000000000E+00 0.  1.
         12    1    4    4    0    0 -0.40801327363E+01 -0.62828146490E+01 -0.15359321280E+01  0.76472433309E+01  0.00000000000E+00 0. -1.
         -5    1    5    5    0  501 -0.11404358632E+03  0.49640249535E+02  0.65295384705E+02  0.14055486907E+03  0.47000000000E+01 0.  1.
         11    1    6    6    0    0 -0.15819806833E+02  0.21714853137E+02 -0.12810461990E+02  0.29764224690E+02  0.00000000000E+00 0. -1.
        -12    1    6    6    0    0  0.36085868005E+02  0.25166548628E+02  0.63072360403E+02  0.76900375073E+02  0.00000000000E+00 0.  1.
</event>
<event>
12    1  0.2614920E-002  0.1743678E+03  0.7818608E-02  0.1173368E+00
          1   -1    0    0  502    0  0.00000000000E+00  0.00000000000E+00  0.61171718302E+03  0.61171718302E+03  0.00000000000E+00 0. -1.
         -1   -1    0    0    0  501 -0.00000000000E+00 -0.00000000000E+00 -0.54517222943E+02  0.54517222943E+02  0.00000000000E+00 0.  1.
          6    2    1    2  502    0 -0.53300907220E+00  0.29091028610E+02  0.18105575544E+03  0.25205052871E+03  0.17292111034E+03 0.  0.
         24    2    3    3    0    0  0.21307715845E+02  0.12290254475E+02  0.20171667369E+03  0.21729068378E+03  0.76945147353E+02 0.  0.
         -6    2    1    2    0  501  0.53300907220E+00 -0.29091028610E+02  0.37614420464E+03  0.41418387725E+03  0.17093053984E+03 0.  0.
        -24    2    5    5    0    0  0.46453793756E+02  0.24444455280E+02  0.15508130594E+03  0.18209410651E+03  0.79702985051E+02 0.  0.
          5    1    3    3  502    0 -0.21840724917E+02  0.16800774135E+02 -0.20660918256E+02  0.34759844931E+02  0.47000000000E+01 0. -1.
        -13    1    4    4    0    0  0.12056046870E+02 -0.92428935121E+01  0.10150262815E+01  0.15225295562E+02  0.00000000000E+00 0.  1.
         14    1    4    4    0    0  0.92516689754E+01  0.21533147987E+02  0.20070164741E+03  0.20206538822E+03  0.00000000000E+00 0. -1.
         -5    1    5    5    0  501 -0.45920784684E+02 -0.53535483890E+02  0.22106289870E+03  0.23208977074E+03  0.47000000000E+01 0.  1.
         13    1    6    6    0    0  0.41767117964E+02  0.21531967292E+02  0.16455374806E+03  0.17113168543E+03  0.00000000000E+00 0. -1.
        -14    1    6    6    0    0  0.46866757922E+01  0.29124879882E+01 -0.94724421185E+01  0.10962421081E+02  0.00000000000E+00 0.  1.
</event>
<event>
12    1  0.2614920E-002  0.1817845E+03  0.7818608E-02  0.1166087E+00
         -2   -1    0    0    0  501 -0.00000000000E+00  0.00000000000E+00  0.17461919036E+02  0.17461919036E+02  0.00000000000E+00 0. -1.
          2   -1    0    0  502    0  0.00000000000E+00 -0.00000000000E+00 -0.18970798339E+04  0.18970798339E+04  0.00000000000E+00 0.  1.
          6    2    1    2  502    0 -0.61285851380E+02 -0.18278640225E+02 -0.88700922200E+03  0.90521976118E+03  0.16895973444E+03 0.  0.
         24    2    3    3    0    0 -0.73063168164E+02  0.45827151197E+02 -0.45869320186E+03  0.47194737482E+03  0.69975115807E+02 0.  0.
         -6    2    1    2    0  501  0.61285851380E+02  0.18278640225E+02 -0.99260869289E+03  0.10093219918E+04  0.17137328151E+03 0.  0.
        -24    2    5    5    0    0  0.71396425662E+02 -0.39249109308E+02 -0.48656319735E+03  0.49989505959E+03  0.80705535188E+02 0.  0.
          5    1    3    3  502    0  0.11777316784E+02 -0.64105791422E+02 -0.42831602013E+03  0.43327238636E+03  0.47000000000E+01 0. -1.
        -13    1    4    4    0    0 -0.50937529755E-01  0.11513435598E+01 -0.18885246979E+03  0.18885598622E+03  0.00000000000E+00 0.  1.
         14    1    4    4    0    0 -0.73012230634E+02  0.44675807637E+02 -0.26984073208E+03  0.28309138860E+03  0.00000000000E+00 0. -1.
         -5    1    5    5    0  501 -0.10110574282E+02  0.57527749532E+02 -0.50604549554E+03  0.50942693219E+03  0.47000000000E+01 0.  1.
         11    1    6    6    0    0  0.75528342743E+02 -0.58155068631E+02 -0.40593844921E+03  0.41698029583E+03  0.00000000000E+00 0. -1.
        -12    1    6    6    0    0 -0.41319170813E+01  0.18905959324E+02 -0.80624748146E+02  0.82914763766E+02  0.00000000000E+00 0.  1.
</event>
<event>
12    1  0.2614920E-002  0.1728267E+03  0.7818608E-02  0.1174932E+00
          3   -1    0    0  502    0  0.00000000000E+00  0.00000000000E+00  0.63972583413E+02  0.63972583413E+02  0.00000000000E+00 0. -1.
         -3   -1    0    0    0  501 -0.00000000000E+00 -0.00000000000E+00 -0.47630328940E+03  0.47630328940E+03  0.00000000000E+00 0.  1.
          6    2    1    2  502    0  0.15415353296E+02 -0.13260779329E+01 -0.24396338083E+03  0.29890308952E+03  0.17200445965E+03 0.  0.
         24    2    3    3    0    0  0.95714614168E+01  0.63919251581E+02 -0.17958069248E+03  0.20693393896E+03  0.79969659163E+02 0.  0.
         -6    2    1    2    0  501 -0.15415353296E+02  0.13260779329E+01 -0.16836732516E+03  0.24137278329E+03  0.17226105983E+03 0.  0.
        -24    2    5    5    0    0 -0.39365860281E+02  0.53239954746E+02 -0.14798045503E+03  0.18049263986E+03  0.79342386118E+02 0.  0.
          5    1    3    3  502    0  0.58438918791E+01 -0.65245329513E+02 -0.64382688347E+02  0.91969150558E+02  0.47000000000E+01 0. -1.
        -13    1    4    4    0    0  0.42254418049E+02  0.24756943248E+02 -0.11221107631E+03  0.12243229856E+03  0.00000000000E+00 0.  1.
         14    1    4    4    0    0 -0.32682956632E+02  0.39162308333E+02 -0.67369616172E+02  0.84501640406E+02  0.00000000000E+00 0. -1.
         -5    1    5    5    0  501  0.23950506986E+02 -0.51913876813E+02 -0.20386870124E+02  0.60880143430E+02  0.47000000000E+01 0.  1.
         13    1    6    6    0    0 -0.23378767636E+02  0.17022846022E+02 -0.17217987754E+01  0.28970824184E+02  0.00000000000E+00 0. -1.
        -14    1    6    6    0    0 -0.15987092646E+02  0.36217108724E+02 -0.14625865626E+03  0.15152181568E+03  0.00000000000E+00 0.  1.
</event>
<event>
12    1  0.2614920E-002  0.6989311E+03  0.7818608E-02  0.9719062E-01
          1   -1    0    0  502    0  0.00000000000E+00  0.00000000000E+00  0.66299400994E+03  0.66299400994E+03  0.00000000000E+00 0. -1.
         -1   -1    0    0    0  501 -0.00000000000E+00 -0.00000000000E+00 -0.81787342535E+03  0.81787342535E+03  0.00000000000E+00 0.  1.
          6    2    1    2  502    0  0.67753527003E+03  0.73912724404E+01  0.15568007833E+03  0.71584743595E+03  0.17056550564E+03 0.  0.
         24    2    3    3    0    0  0.51249788462E+03 -0.21927566844E+02  0.65495530159E+02  0.52544713225E+03  0.93113502700E+02 0.  0.
         -6    2    1    2    0  501 -0.67753527003E+03 -0.73912724404E+01 -0.31055949374E+03  0.76501999934E+03  0.17233608789E+03 0.  0.
        -24    2    5    5    0    0 -0.24058645281E+03 -0.22864398065E+02 -0.60857677470E+02  0.26149564686E+03  0.79194030370E+02 0.  0.
          5    1    3    3  502    0  0.16503738541E+03  0.29318839284E+02  0.90184548171E+02  0.19040030370E+03  0.47000000000E+01 0. -1.
        -13    1    4    4    0    0  0.60021131499E+02  0.17948963221E+02 -0.14305521614E+02  0.64260014440E+02  0.00000000000E+00 0.  1.
         14    1    4    4    0    0  0.45247675312E+03 -0.39876530065E+02  0.79801051772E+02  0.46118711781E+03  0.00000000000E+00 0. -1.
         -5    1    5    5    0  501 -0.43694881722E+03  0.15473125625E+02 -0.24970181627E+03  0.50352435248E+03  0.47000000000E+01 0.  1.
         13    1    6    6    0    0 -0.22948484221E+03 -0.15046022359E+02 -0.74992258878E+02  0.24189566859E+03  0.00000000000E+00 0. -1.
        -14    1    6    6    0    0 -0.11101610606E+02 -0.78183757066E+01  0.14134581408E+02  0.19599978274E+02  0.00000000000E+00 0.  1.
</event>
<event>
12    1  0.2614920E-002  0.1909924E+03  0.7818608E-02  0.1157569E+00
         -4   -1    0    0    0  501 -0.00000000000E+00  0.00000000000E+00  0.62522252498E+03  0.62522252498E+03  0.00000000000E+00 0.  1.
          4   -1    0    0  502    0  0.00000000000E+00 -0.00000000000E+00 -0.59253044569E+02  0.59253044569E+02  0.00000000000E+00 0. -1.
          6    2    1    2  502    0 -0.49610385653E+02 -0.65652520448E+02  0.32523369215E+03  0.37711960827E+03  0.17225214259E+03 0.  0.
         24    2    3    3    0    0 -0.41592218555E+02  0.25065170835E+02  0.11639285386E+03  0.14923679572E+03  0.79788152850E+02 0.  0.
         -6    2    1    2    0  501  0.49610385653E+02  0.65652520448E+02  0.24073578826E+03  0.30735596128E+03  0.17246020810E+03 0.  0.
        -24    2    5    5    0    0  0.22859826055E+02  0.32852635863E+02  0.33794152292E+02  0.96078050544E+02  0.80542409554E+02 0.  0.
          5    1    3    3  502    0 -0.80181670982E+01 -0.90717691283E+02  0.20884083830E+03  0.22788281255E+03  0.47000000000E+01 0. -1.
        -13    1    4    4    0    0 -0.52673778465E+02 -0.10822225060E+02  0.83462751654E+02  0.99285841925E+02  0.00000000000E+00 0.  1.
         14    1    4    4    0    0  0.11081559910E+02  0.35887395895E+02  0.32930102202E+02  0.49950953797E+02  0.00000000000E+00 0. -1.
         -5    1    5    5    0  501  0.26750559598E+02  0.32799884585E+02  0.20694163596E+03  0.21127791073E+03  0.47000000000E+01 0.  1.
         11    1    6    6    0    0  0.20526911128E+02 -0.24745940622E+02  0.95333257143E+01  0.33535055642E+02  0.00000000000E+00 0. -1.
        -12    1    6    6    0    0  0.23329149275E+01  0.57598576485E+02  0.24260826578E+02  0.62542994903E+02  0.00000000000E+00 0.  1.
</event>
<event>
12    1  0.2614920E-002  0.1760963E+03  0.7818608E-02  0.1171635E+00
         -2   -1    0    0    0  501 -0.00000000000E+00  0.00000000000E+00  0.48539242909E+02  0.48539242909E+02  0.00000000000E+00 0.  1.
          2   -1    0    0  502    0  0.00000000000E+00 -0.00000000000E+00 -0.74382868080E+03  0.74382868080E+03  0.00000000000E+00 0. -1.
          6    2    1    2  502    0  0.30961334063E+01 -0.24802016794E+02 -0.50092535675E+03  0.53188412182E+03  0.17705869063E+03 0.  0.
         24    2    3    3    0    0  0.22269058533E+02 -0.25904193514E+02 -0.10730114784E+03  0.13776367869E+03  0.79362186391E+02 0.  0.
         -6    2    1    2    0  501 -0.30961334063E+01  0.24802016794E+02 -0.19436408114E+03  0.26048380189E+03  0.17160911669E+03 0.  0.
        -24    2    5    5    0    0  0.35687129414E+02 -0.44172247448E+02 -0.11844191928E+03  0.15072107933E+03  0.73916147496E+02 0.  0.
          5    1    3    3  502    0 -0.19172925126E+02  0.11021767200E+01 -0.39362420891E+03  0.39412044312E+03  0.47000000000E+01 0. -1.
        -11    1    4    4    0    0 -0.27008300600E+02 -0.17374465197E+02 -0.22147512143E+02  0.39010673364E+02  0.00000000000E+00 0.  1.
         12    1    4    4    0    0  0.49277359133E+02 -0.85297283172E+01 -0.85153635702E+02  0.98753005329E+02  0.00000000000E+00 0. -1.
         -5    1    5    5    0  501 -0.38783262821E+02  0.68974264242E+02 -0.75922161856E+02  0.10976272256E+03  0.47000000000E+01 0.  1.
         11    1    6    6    0    0  0.55024194315E+02 -0.24573302373E+02 -0.10251081924E+03  0.11891163615E+03  0.00000000000E+00 0. -1.
        -12    1    6    6    0    0 -0.19337064901E+02 -0.19598945075E+02 -0.15931100038E+02  0.31809443181E+02  0.00000000000E+00 0.  1.
</event>
<event>
12    1  0.2614920E-002  0.1729835E+03  0.7818608E-02  0.1174772E+00
         -1   -1    0    0    0  501 -0.00000000000E+00  0.00000000000E+00  0.77723667642E+02  0.77723667642E+02  0.00000000000E+00 0. -1.
          1   -1    0    0  502    0  0.00000000000E+00 -0.00000000000E+00 -0.46233073663E+03  0.46233073663E+03  0.00000000000E+00 0.  1.
          6    2    1    2  502    0  0.21339890859E+02  0.44262338239E+01 -0.80606909030E+02  0.18959589209E+03  0.17021793686E+03 0.  0.
         24    2    3    3    0    0  0.45556299450E+02  0.25623651512E+02  0.48818326438E+01  0.98129067973E+02  0.82906777497E+02 0.  0.
         -6    2    1    2    0  501 -0.21339890859E+02 -0.44262338239E+01 -0.30400015996E+03  0.35045851218E+03  0.17300314742E+03 0.  0.
        -24    2    5    5    0    0 -0.40859375631E+02 -0.59328199203E+02 -0.13700318419E+03  0.17352542878E+03  0.78433909469E+02 0.  0.
          5    1    3    3  502    0 -0.24216408591E+02 -0.21197417688E+02 -0.85488741673E+02  0.91466824120E+02  0.47000000000E+01 0. -1.
        -11    1    4    4    0    0  0.25785392624E+02  0.18363605623E+02 -0.38536751233E+02  0.49871732272E+02  0.00000000000E+00 0.  1.
         12    1    4    4    0    0  0.19770906826E+02  0.72600458893E+01  0.43418583877E+02  0.48257335701E+02  0.00000000000E+00 0. -1.
         -5    1    5    5    0  501  0.19519484773E+02  0.54901965379E+02 -0.16699697577E+03  0.17693308341E+03  0.47000000000E+01 0.  1.
         13    1    6    6    0    0 -0.85484021830E+01  0.58089237015E+01  0.68093086937E+01  0.12376811356E+02  0.00000000000E+00 0. -1.
        -14    1    6    6    0    0 -0.32310973448E+02 -0.65137122904E+02 -0.14381249289E+03  0.16114861742E+03  0.00000000000E+00 0.  1.
</event>
<event>
12    1  0.2614920E-002  0.2013243E+03  0.7818608E-02  0.1148627E+00
          2   -1    0    0  502    0  0.00000000000E+00  0.00000000000E+00  0.16423246712E+04  0.16423246712E+04  0.00000000000E+00 0.  1.
         -2   -1    0    0    0  501 -0.00000000000E+00 -0.00000000000E+00 -0.29444153291E+02  0.29444153291E+02  0.00000000000E+00 0. -1.
          6    2    1    2  502    0  0.71422896827E+02  0.76075969445E+02  0.11440233485E+04  0.11616715461E+04  0.17263422510E+03 0.  0.
         24    2    3    3    0    0 -0.27460377728E+01 -0.62004906069E+01  0.29538100561E+03  0.30581737455E+03  0.78919840930E+02 0.  0.
         -6    2    1    2    0  501 -0.71422896827E+02 -0.76075969445E+02  0.46885716937E+03  0.51009727840E+03  0.17170732321E+03 0.  0.
        -24    2    5    5    0    0 -0.41190328019E+02 -0.11334375925E+03  0.40547028738E+03  0.43045505855E+03  0.79636377395E+02 0.  0.
          5    1    3    3  502    0  0.74168934600E+02  0.82276460051E+02  0.84864234289E+03  0.85585417150E+03  0.47000000000E+01 0. -1.
        -13    1    4    4    0    0  0.35068699499E+02 -0.12054223749E+02  0.19275655108E+03  0.19629112557E+03  0.00000000000E+00 0.  1.
         14    1    4    4    0    0 -0.37814737271E+02  0.58537331422E+01  0.10262445454E+03  0.10952624898E+03  0.00000000000E+00 0. -1.
         -5    1    5    5    0  501 -0.30232568808E+02  0.37267789802E+02  0.63386881994E+02  0.79642219849E+02  0.47000000000E+01 0.  1.
         13    1    6    6    0    0 -0.33455777784E+01  0.11651548380E+02  0.19224303613E+02  0.22727193398E+02  0.00000000000E+00 0. -1.
        -14    1    6    6    0    0 -0.37844750240E+02 -0.12499530763E+03  0.38624598377E+03  0.40772786516E+03  0.00000000000E+00 0.  1.
</event>
<event>
12    1  0.2614920E-002  0.1938230E+03  0.7818608E-02  0.1155058E+00
          1   -1    0    0  502    0  0.00000000000E+00  0.00000000000E+00  0.43421850676E+03  0.43421850676E+03  0.00000000000E+00 0. -1.
         -1   -1    0    0    0  501 -0.00000000000E+00 -0.00000000000E+00 -0.86519424808E+02  0.86519424808E+02  0.00000000000E+00 0.  1.
          6    2    1    2  502    0 -0.68373684196E+02 -0.57145599040E+02  0.17494634728E+03  0.26094195108E+03  0.17188338263E+03 0.  0.
         24    2    3    3    0    0 -0.87469397567E+02 -0.82116124092E+02  0.91123275570E+02  0.17129502842E+03  0.81514305891E+02 0.  0.
         -6    2    1    2    0  501  0.68373684196E+02  0.57145599040E+02  0.17275273467E+03  0.25979598049E+03  0.17236549528E+03 0.  0.
        -24    2    5    5    0    0  0.92227187301E+02  0.89615135365E+02  0.15300228183E+03  0.21468023172E+03  0.78365662652E+02 0.  0.
          5    1    3    3  502    0  0.19095713371E+02  0.24970525052E+02  0.83823071712E+02  0.89646922657E+02  0.47000000000E+01 0. -1.
        -13    1    4    4    0    0 -0.53124867528E+02 -0.13562189013E+02  0.36162059508E+01  0.54947806746E+02  0.00000000000E+00 0.  1.
         14    1    4    4    0    0 -0.34344530039E+02 -0.68553935080E+02  0.87507069619E+02  0.11634722168E+03  0.00000000000E+00 0. -1.
         -5    1    5    5    0  501 -0.23853503105E+02 -0.32469536325E+02  0.19750452843E+02  0.45115748769E+02  0.47000000000E+01 0.  1.
         11    1    6    6    0    0  0.88917038306E+01  0.62078759963E+02  0.67872862557E+02  0.92409741409E+02  0.00000000000E+00 0. -1.
        -12    1    6    6    0    0  0.83335483471E+02  0.27536375402E+02  0.85129419273E+02  0.12227049031E+03  0.00000000000E+00 0.  1.
</event>
<event>
12    1  0.2614920E-002  0.1806253E+03  0.7818608E-02  0.1167199E+00
          1   -1    0    0  502    0  0.00000000000E+00  0.00000000000E+00  0.20333241925E+03  0.20333241925E+03  0.00000000000E+00 0.  1.
         -1   -1    0    0    0  501 -0.00000000000E+00 -0.00000000000E+00 -0.19129673940E+03  0.19129673940E+03  0.00000000000E+00 0. -1.
          6    2    1    2  502    0  0.34072347745E+02  0.45584576374E+02  0.85264424934E+02  0.20048599091E+03  0.17229547849E+03 0.  0.
         24    2    3    3    0    0  0.61543352220E+02  0.24849593044E+02  0.11519978345E+03  0.15462957031E+03  0.78957124008E+02 0.  0.
         -6    2    1    2    0  501 -0.34072347745E+02 -0.45584576374E+02 -0.73228745081E+02  0.19414316774E+03  0.17055861746E+03 0.  0.
        -24    2    5    5    0    0 -0.94638198196E+01  0.40035812870E+02 -0.28881862722E+02  0.94518036993E+02  0.80044157344E+02 0.  0.
          5    1    3    3  502    0 -0.27471004475E+02  0.20734983329E+02 -0.29935358513E+02  0.45856420595E+02  0.47000000000E+01 0. -1.
        -11    1    4    4    0    0  0.70844293930E+02  0.38446975845E+02  0.70840931861E+02  0.10731039820E+03  0.00000000000E+00 0.  1.
         12    1    4    4    0    0 -0.93009417101E+01 -0.13597382800E+02  0.44358851585E+02  0.47319172115E+02  0.00000000000E+00 0. -1.
         -5    1    5    5    0  501 -0.24608527925E+02 -0.85620389243E+02 -0.44346882359E+02  0.99625130744E+02  0.47000000000E+01 0.  1.
         11    1    6    6    0    0 -0.35648156055E+02  0.41754891603E+02 -0.37964374040E+02  0.66749949057E+02  0.00000000000E+00 0. -1.
        -12    1    6    6    0    0  0.26184336235E+02 -0.17190787334E+01  0.90825113176E+01  0.27768087936E+02  0.00000000000E+00 0.  1.
</event>
<event>
12    1  0.2614920E-002  0.1837201E+03  0.7818608E-02  0.1164250E+00
         -1   -1    0    0    0  501 -0.00000000000E+00  0.00000000000E+00  0.19071667632E+03  0.19071667632E+03  0.00000000000E+00 0.  1.
          1   -1    0    0  502    0  0.00000000000E+00 -0.00000000000E+00 -0.18135007827E+03  0.18135007827E+03  0.00000000000E+00 0. -1.
          6    2    1    2  502    0  0.47845055140E+02 -0.40104033158E+02  0.33566718111E+02  0.18786353510E+03  0.17397844831E+03 0.  0.
         24    2    3    3    0    0 -0.16256823632E+01 -0.84674865296E+02  0.74149378069E+01  0.11617030976E+03  0.79171231582E+02 0.  0.
         -6    2    1    2    0  501 -0.47845055140E+02  0.40104033158E+02 -0.24200120065E+02  0.18420321949E+03  0.17160331431E+03 0.  0.
        -24    2    5    5    0    0 -0.85814454771E+02  0.51065653720E+02  0.15092414396E+02  0.12827625195E+03  0.79089785723E+02 0.  0.
          5    1    3    3  502    0  0.49470737503E+02  0.44570832138E+02  0.26151780304E+02  0.71693225340E+02  0.47000000000E+01 0. -1.
        -11    1    4    4    0    0  0.38199331367E+02 -0.31623573723E+02  0.25558744239E+01  0.49656538602E+02  0.00000000000E+00 0.  1.
         12    1    4    4    0    0 -0.39825013730E+02 -0.53051291573E+02  0.48590633830E+01  0.66513771154E+02  0.00000000000E+00 0. -1.
         -5    1    5    5    0  501  0.37969399631E+02 -0.10961620563E+02 -0.39292534461E+02  0.55926967539E+02  0.47000000000E+01 0.  1.
         11    1    6    6    0    0 -0.30903015486E+02 -0.13130799494E+02 -0.17336184589E+02  0.37788325678E+02  0.00000000000E+00 0. -1.
        -12    1    6    6    0    0 -0.54911439285E+02  0.64196453214E+02  0.32428598985E+02  0.90487926276E+02  0.00000000000E+00 0.  1.
</event>
<event>
12    1  0.2614920E-002  0.1732606E+03  0.7818608E-02  0.1174490E+00
         -3   -1    0    0    0  501 -0.00000000000E+00  0.00000000000E+00  0.65934908923E+02  0.65934908923E+02  0.00000000000E+00 0. -1.
          3   -1    0    0  502    0  0.00000000000E+00 -0.00000000000E+00 -0.48902059149E+03  0.48902059149E+03  0.00000000000E+00 0.  1.
          6    2    1    2  502    0  0.23647697163E+02  0.16906031124E+02 -0.28298459714E+03  0.33116871336E+03  0.16955060314E+03 0.  0.
         24    2    3    3    0    0  0.50355920736E+02 -0.59829925751E+00 -0.28378714208E+03  0.29888148885E+03  0.79113372138E+02 0.  0.
         -6    2    1    2    0  501 -0.23647697163E+02 -0.16906031124E+02 -0.14010108543E+03  0.22378678705E+03  0.17206738346E+03 0.  0.
        -24    2    5    5    0    0  0.32712525152E+02 -0.43026014327E+02 -0.12797614535E+03  0.16032158120E+03  0.80023549088E+02 0.  0.
          5    1    3    3  502    0 -0.26708223573E+02  0.17504330381E+02  0.80254494137E+00  0.32287224515E+02  0.47000000000E+01 0. -1.
        -13    1    4    4    0    0 -0.13453137838E+02  0.41795685019E+00 -0.15053884125E+03  0.15113935401E+03  0.00000000000E+00 0.  1.
         14    1    4    4    0    0  0.63809058574E+02 -0.10162561077E+01 -0.13324830083E+03  0.14774213484E+03  0.00000000000E+00 0. -1.
         -5    1    5    5    0  501 -0.56360222315E+02  0.26119983203E+02 -0.12124940081E+02  0.63465205853E+02  0.47000000000E+01 0.  1.
         11    1    6    6    0    0 -0.13908226660E+02 -0.34145725574E+02 -0.19038543825E+02  0.41495005661E+02  0.00000000000E+00 0. -1.
        -12    1    6    6    0    0  0.46620751813E+02 -0.88802887529E+01 -0.10893760153E+03  0.11882657554E+03  0.00000000000E+00 0.  1.
</event>
<event>
12    1  0.2614920E-002  0.3246329E+03  0.7818608E-02  0.1073537E+00
          1   -1    0    0  502    0  0.00000000000E+00  0.00000000000E+00  0.19654571595E+03  0.19654571595E+03  0.00000000000E+00 0.  1.
         -1   -1    0    0    0  501 -0.00000000000E+00 -0.00000000000E+00 -0.57893099659E+03  0.57893099659E+03  0.00000000000E+00 0. -1.
          6    2    1    2  502    0 -0.10771819589E+03  0.25376046053E+03 -0.29673986796E+03  0.44008898334E+03  0.17212258122E+03 0.  0.
         24    2    3    3    0    0 -0.84355029354E+02  0.19401331045E+03 -0.29768838737E+03  0.37575742667E+03  0.88421332921E+02 0.  0.
         -6    2    1    2    0  501  0.10771819589E+03 -0.25376046053E+03 -0.85645412684E+02  0.33538772919E+03  0.17074018602E+03 0.  0.
        -24    2    5    5    0    0  0.14025986002E+03 -0.17893556020E+03 -0.77440798910E+02  0.25324680576E+03  0.80287634540E+02 0.  0.
          5    1    3    3  502    0 -0.23363166541E+02  0.59747150084E+02  0.94851941624E+00  0.64331556665E+02  0.47000000000E+01 0. -1.
        -13    1    4    4    0    0 -0.23347084999E+02  0.14431476154E+03 -0.15676165518E+03  0.21435030513E+03  0.00000000000E+00 0.  1.
         14    1    4    4    0    0 -0.61007944355E+02  0.49698548915E+02 -0.14092673219E+03  0.16140712154E+03  0.00000000000E+00 0. -1.
         -5    1    5    5    0  501 -0.32541664122E+02 -0.74824900338E+02 -0.82046137743E+01  0.82140923428E+02  0.47000000000E+01 0.  1.
         11    1    6    6    0    0  0.90926904617E+02 -0.13826654992E+03 -0.89571195836E+02  0.18817103904E+03  0.00000000000E+00 0. -1.
        -12    1    6    6    0    0  0.49332955400E+02 -0.40669010278E+02  0.12130396926E+02  0.65075766727E+02  0.00000000000E+00 0.  1.
</event>
<event>
12    1  0.2614920E-002  0.1856531E+03  0.7818608E-02  0.1162441E+00
         -2   -1    0    0    0  501 -0.00000000000E+00  0.00000000000E+00  0.61527417303E+02  0.61527417303E+02  0.00000000000E+00 0.  1.
          2   -1    0    0  502    0  0.00000000000E+00 -0.00000000000E+00 -0.77284797168E+03  0.77284797168E+03  0.00000000000E+00 0. -1.
          6    2    1    2  502    0  0.23155702466E+02  0.66321505559E+02 -0.13699459388E+03  0.23082667956E+03  0.17198461730E+03 0.  0.
         24    2    3    3    0    0 -0.31706931788E+02  0.52636402459E+01 -0.11990866166E+03  0.14685054822E+03  0.78447185676E+02 0.  0.
         -6    2    1    2    0  501 -0.23155702466E+02 -0.66321505559E+02 -0.57432596050E+03  0.60354870943E+03  0.17171490061E+03 0.  0.
        -24    2    5    5    0    0 -0.12198515353E+01 -0.10857637589E+03 -0.44411995396E+03  0.46483191245E+03  0.83880008891E+02 0.  0.
          5    1    3    3  502    0  0.54862634254E+02  0.61057865313E+02 -0.17085932219E+02  0.83976131333E+02  0.47000000000E+01 0. -1.
        -13    1    4    4    0    0  0.34284686979E+01 -0.29413431840E+02 -0.20987822849E+02  0.36295909936E+02  0.00000000000E+00 0.  1.
         14    1    4    4    0    0 -0.35135400486E+02  0.34677072085E+02 -0.98920838810E+02  0.11055463829E+03  0.00000000000E+00 0. -1.
         -5    1    5    5    0  501 -0.21935850931E+02  0.42254870335E+02 -0.13020600654E+03  0.13871679698E+03  0.47000000000E+01 0.  1.
         13    1    6    6    0    0  0.94507671536E+01 -0.42811984267E+02 -0.32831571958E+03  0.33123012351E+03  0.00000000000E+00 0. -1.
        -14    1    6    6    0    0 -0.10670618689E+02 -0.65764391627E+02 -0.11580423438E+03  0.13360178895E+03  0.00000000000E+00 0.  1.
</event>
<event>
12    1  0.2614920E-002  0.2339072E+03  0.7818608E-02  0.1123920E+00
          2   -1    0    0  502    0  0.00000000000E+00  0.00000000000E+00  0.69794698254E+03  0.69794698254E+03  0.00000000000E+00 0.  1.
         -2   -1    0    0    0  501 -0.00000000000E+00 -0.00000000000E+00 -0.24247545728E+03  0.24247545728E+03  0.00000000000E+00 0. -1.
          6    2    1    2  502    0 -0.15638713688E+03  0.10021393464E+02  0.61422223119E+03  0.65689647084E+03  0.17229816946E+03 0.  0.
         24    2    3    3    0    0 -0.13247211577E+03  0.47209915990E+02  0.57682434271E+03  0.59879650091E+03  0.77802888994E+02 0.  0.
         -6    2    1    2    0  501  0.15638713688E+03 -0.10021393464E+02 -0.15875070594E+03  0.28352596898E+03  0.17500806708E+03 0.  0.
        -24    2    5    5    0    0  0.17951230204E+03 -0.33071785596E+02 -0.12040142700E+03  0.23294088189E+03  0.80290355874E+02 0.  0.
          5    1    3    3  502    0 -0.23915021114E+02 -0.37188522527E+02  0.37397888479E+02  0.58099969925E+02  0.47000000000E+01 0. -1.
        -11    1    4    4    0    0 -0.15101097396E+02  0.29571237144E+02  0.60567715459E+02  0.69072059218E+02  0.00000000000E+00 0.  1.
         12    1    4    4    0    0 -0.11737101837E+03  0.17638678847E+02  0.51625662726E+03  0.52972444170E+03  0.00000000000E+00 0. -1.
         -5    1    5    5    0  501 -0.23125165158E+02  0.23050392132E+02 -0.38349278936E+02  0.50585087090E+02  0.47000000000E+01 0.  1.
         11    1    6    6    0    0  0.14190040342E+03 -0.38802180220E+02 -0.12697702342E+03  0.19433089862E+03  0.00000000000E+00 0. -1.
        -12    1    6    6    0    0  0.37611898616E+02  0.57303946237E+01  0.65755964178E+01  0.38609983272E+02  0.00000000000E+00 0.  1.
</event>
<event>
12    1  0.2614920E-002  0.2558755E+03  0.7818608E-02  0.1109647E+00
         -2   -1    0    0    0  501 -0.00000000000E+00  0.00000000000E+00  0.85821560544E+03  0.85821560544E+03  0.00000000000E+00 0.  1.
          2   -1    0    0  502    0  0.00000000000E+00 -0.00000000000E+00 -0.79212308120E+02  0.79212308120E+02  0.00000000000E+00 0. -1.
          6    2    1    2  502    0 -0.73358827447E+02 -0.17281230720E+03  0.30093541385E+03  0.39565935821E+03  0.17532425202E+03 0.  0.
         24    2    3    3    0    0 -0.34934543959E+02 -0.86126170610E+02  0.26837692676E+03  0.29529473835E+03  0.80837293724E+02 0.  0.
         -6    2    1    2    0  501  0.73358827447E+02  0.17281230720E+03  0.47806788347E+03  0.54176855534E+03  0.17239099534E+03 0.  0.
        -24    2    5    5    0    0  0.11745700182E+03  0.11772695982E+03  0.34201357424E+03  0.38843261847E+03  0.79062189333E+02 0.  0.
          5    1    3    3  502    0 -0.38424283488E+02 -0.86686136587E+02  0.32558487094E+02  0.10036461986E+03  0.47000000000E+01 0. -1.
        -11    1    4    4    0    0 -0.22844274770E+02  0.10858131203E+02  0.49486164658E+02  0.55575537744E+02  0.00000000000E+00 0.  1.
         12    1    4    4    0    0 -0.12090269190E+02 -0.96984301813E+02  0.21889076210E+03  0.23971920061E+03  0.00000000000E+00 0. -1.
         -5    1    5    5    0  501 -0.44098174371E+02  0.55085347382E+02  0.13605430923E+03  0.15333593688E+03  0.47000000000E+01 0.  1.
         11    1    6    6    0    0 -0.23946458791E-01  0.29626790876E+02  0.23911782180E+02  0.38072570679E+02  0.00000000000E+00 0. -1.
        -12    1    6    6    0    0  0.11748094828E+03  0.88100168939E+02  0.31810179206E+03  0.35036004779E+03  0.00000000000E+00 0.  1.
</event>
<event>
12    1  0.2614920E-002  0.3704648E+03  0.7818608E-02  0.1054515E+00
          2   -1    0    0  502    0  0.00000000000E+00  0.00000000000E+00  0.14864128242E+04  0.14864128242E+04  0.00000000000E+00 0.  1.
         -2   -1    0    0    0  501 -0.00000000000E+00 -0.00000000000E+00 -0.93062399772E+02  0.93062399772E+02  0.00000000000E+00 0. -1.
          6    2    1    2  502    0 -0.23357409453E+03  0.22424985427E+03  0.63449549545E+03  0.73671238034E+03  0.18792483289E+03 0.  0.
         24    2    3    3    0    0 -0.38153036940E+02  0.19438845760E+02  0.16643295065E+03  0.18968260527E+03  0.80287238901E+02 0.  0.
         -6    2    1    2    0  501  0.23357409453E+03 -0.22424985427E+03  0.75885492893E+03  0.84276284359E+03  0.17188238012E+03 0.  0.
        -24    2    5    5    0    0  0.41300068459E+02 -0.50581610387E+02  0.25864587569E+03  0.27941468572E+03  0.83130515567E+02 0.  0.
          5    1    3    3  502    0 -0.19542105759E+03  0.20481100851E+03  0.46806254481E+03  0.54702977507E+03  0.47000000000E+01 0. -1.
        -11    1    4    4    0    0  0.13143494178E+01  0.40243902498E+02  0.11363796772E+03  0.12056071877E+03  0.00000000000E+00 0.  1.
         12    1    4    4    0    0 -0.39467386357E+02 -0.20805056738E+02  0.52794982927E+02  0.69121886505E+02  0.00000000000E+00 0. -1.
         -5    1    5    5    0  501  0.19227402607E+03 -0.17366824388E+03  0.50020905324E+03  0.56334815787E+03  0.47000000000E+01 0.  1.
         13    1    6    6    0    0  0.46712352800E+02  0.22898294612E+01  0.76408254609E+02  0.89585202994E+02  0.00000000000E+00 0. -1.
        -14    1    6    6    0    0 -0.54122843404E+01 -0.52871439848E+02  0.18223762108E+03  0.18982948272E+03  0.00000000000E+00 0.  1.
</event>
<event>
12    1  0.2614920E-002  0.3076921E+03  0.7818608E-02  0.1081457E+00
          2   -1    0    0  502    0  0.00000000000E+00  0.00000000000E+00  0.19387403785E+04  0.19387403785E+04  0.00000000000E+00 0.  1.
         -2   -1    0    0    0  501 -0.00000000000E+00 -0.00000000000E+00 -0.13922539131E+03  0.13922539131E+03  0.00000000000E+00 0. -1.
          6    2    1    2  502    0 -0.23110711568E+03 -0.10742253226E+03  0.17371302446E+04  0.17642040718E+04  0.17275537860E+03 0.  0.
         24    2    3    3    0    0 -0.46271495589E+02 -0.69067294671E+02  0.79414041894E+03  0.80249349578E+03  0.80158987460E+02 0.  0.
         -6    2    1    2    0  501  0.23110711568E+03  0.10742253226E+03  0.62384742512E+02  0.31376169795E+03  0.17205943056E+03 0.  0.
        -24    2    5    5    0    0  0.22022955522E+03  0.92952196838E+02  0.10040528084E+03  0.27138997077E+03  0.80188078436E+02 0.  0.
          5    1    3    3  502    0 -0.18483562009E+03 -0.38355237589E+02  0.94298982569E+03  0.96171057603E+03  0.47000000000E+01 0. -1.
        -11    1    4    4    0    0 -0.11351887443E+02 -0.56354866582E+02  0.68066077164E+03  0.68308405221E+03  0.00000000000E+00 0.  1.
         12    1    4    4    0    0 -0.34919608146E+02 -0.12712428089E+02  0.11347964730E+03  0.11940944357E+03  0.00000000000E+00 0. -1.
         -5    1    5    5    0  501  0.10877560460E+02  0.14470335422E+02 -0.38020538333E+02  0.42371727177E+02  0.47000000000E+01 0.  1.
         13    1    6    6    0    0  0.17308429950E+03  0.84577006487E+02  0.44378112043E+02  0.19768879985E+03  0.00000000000E+00 0. -1.
        -14    1    6    6    0    0  0.47145255724E+02  0.83751903508E+01  0.56027168801E+02  0.73701170917E+02  0.00000000000E+00 0.  1.
</event>
<event>
12    1  0.2614920E-002  0.1929247E+03  0.7818608E-02  0.1155850E+00
          1   -1    0    0  502    0  0.00000000000E+00  0.00000000000E+00  0.11653717988E+03  0.11653717988E+03  0.00000000000E+00 0.  1.
         -1   -1    0    0    0  501 -0.00000000000E+00 -0.00000000000E+00 -0.40902927277E+03  0.40902927277E+03  0.00000000000E+00 0. -1.
          6    2    1    2  502    0 -0.62280102326E+02  0.59441550637E+02 -0.27075592794E+03  0.33397984024E+03  0.17556096401E+03 0.  0.
         24    2    3    3    0    0  0.17557767060E+02  0.60807521192E+02 -0.89319447063E+02  0.13569409225E+03  0.80181626509E+02 0.  0.
         -6    2    1    2    0  501  0.62280102326E+02 -0.59441550637E+02 -0.21736164949E+02  0.19158661242E+03  0.16976707603E+03 0.  0.
        -24    2    5    5    0    0  0.88362238511E+02 -0.60905289533E+02 -0.58770565348E+02  0.14602284202E+03  0.79695367201E+02 0.  0.
          5    1    3    3  502    0 -0.79837869386E+02 -0.13659705550E+01 -0.18143648088E+03  0.19828574799E+03  0.47000000000E+01 0. -1.
        -13    1    4    4    0    0 -0.98596166875E+01  0.65958854118E+02 -0.84064742723E+02  0.10730639984E+03  0.00000000000E+00 0.  1.
         14    1    4    4    0    0  0.27417383747E+02 -0.51513329259E+01 -0.52547043394E+01  0.28387692406E+02  0.00000000000E+00 0. -1.
         -5    1    5    5    0  501 -0.26082136185E+02  0.14637388962E+01  0.37034400399E+02  0.45563770393E+02  0.47000000000E+01 0.  1.
         11    1    6    6    0    0 -0.12414621801E+02 -0.59034862307E+01 -0.21115879734E+02  0.25196316419E+02  0.00000000000E+00 0. -1.
        -12    1    6    6    0    0  0.10077686031E+03 -0.55001803303E+02 -0.37654685615E+02  0.12082652560E+03  0.00000000000E+00 0.  1.
</event>
<event>
12    1  0.2614920E-002  0.1916528E+03  0.7818608E-02  0.1156979E+00
         -2   -1    0    0    0  501 -0.00000000000E+00  0.00000000000E+00  0.11920827120E+03  0.11920827120E+03  0.00000000000E+00 0.  1.
          2   -1    0    0  502    0  0.00000000000E+00 -0.00000000000E+00 -0.31061975824E+03  0.31061975824E+03  0.00000000000E+00 0. -1.
          6    2    1    2  502    0 -0.75393067869E+02  0.15129743585E+02 -0.11173213031E+03  0.21766430976E+03  0.17023706698E+03 0.  0.
         24    2    3    3    0    0 -0.51514867995E+02  0.70734984439E+02 -0.42318348657E+02  0.12545544726E+03  0.79315868307E+02 0.  0.
         -6    2    1    2    0  501  0.75393067869E+02 -0.15129743585E+02 -0.79679356731E+02  0.21216371968E+03  0.18097408720E+03 0.  0.
        -24    2    5    5    0    0 -0.23615697839E+02 -0.23440664065E+02 -0.71821814007E+02  0.11238577591E+03  0.79781098906E+02 0.  0.
          5    1    3    3  502    0 -0.23878199874E+02 -0.55605240854E+02 -0.69413781653E+02  0.92208862498E+02  0.47000000000E+01 0. -1.
        -13    1    4    4    0    0 -0.70692403082E+02  0.42981900597E+02 -0.20353703534E+02  0.85200545069E+02  0.00000000000E+00 0.  1.
         14    1    4    4    0    0  0.19177535087E+02  0.27753083842E+02 -0.21964645124E+02  0.40254902188E+02  0.00000000000E+00 0. -1.
         -5    1    5    5    0  501  0.99008765709E+02  0.83109204806E+01 -0.78575427240E+01  0.99777943775E+02  0.47000000000E+01 0.  1.
         13    1    6    6    0    0  0.87523708287E+01  0.18749132521E+02  0.26684089483E+01  0.20862750819E+02  0.00000000000E+00 0. -1.
        -14    1    6    6    0    0 -0.32368068668E+02 -0.42189796586E+02 -0.74490222955E+02  0.91523025088E+02  0.00000000000E+00 0.  1.
</event>
<event>
12    1  0.2614920E-002  0.2095895E+03  0.7818608E-02  0.1141891E+00
          1   -1    0    0  502    0  0.00000000000E+00  0.00000000000E+00  0.13878403064E+03  0.13878403064E+03  0.00000000000E+00 0. -1.
         -1   -1    0    0    0  501 -0.00000000000E+00 -0.00000000000E+00 -0.42071558481E+03  0.42071558481E+03  0.00000000000E+00 0.  1.
          6    2    1    2  502    0 -0.11771135325E+03 -0.83901706538E+00 -0.12758105457E+01  0.20865689053E+03  0.17227711293E+03 0.  0.
         24    2    3    3    0    0 -0.49766472968E+02  0.60367132746E+02  0.25824252387E+02  0.11316237266E+03  0.77575369982E+02 0.  0.
         -6    2    1    2    0  501  0.11771135325E+03  0.83901706538E+00 -0.28065574362E+03  0.35084272492E+03  0.17454599557E+03 0.  0.
        -24    2    5    5    0    0  0.14186329145E+03 -0.67318903575E+01 -0.28193446824E+03  0.32506754511E+03  0.77532913638E+02 0.  0.
          5    1    3    3  502    0 -0.67944880286E+02 -0.61206149811E+02 -0.27100062933E+02  0.95494517867E+02  0.47000000000E+01 0. -1.
        -11    1    4    4    0    0  0.17042832355E+02 -0.24105316594E+01  0.10644604616E+02  0.20237994095E+02  0.00000000000E+00 0.  1.
         12    1    4    4    0    0 -0.66809305323E+02  0.62777664405E+02  0.15179647771E+02  0.92924378568E+02  0.00000000000E+00 0. -1.
         -5    1    5    5    0  501 -0.24151938192E+02  0.75709074229E+01  0.12787246171E+01  0.25775179811E+02  0.47000000000E+01 0.  1.
         13    1    6    6    0    0  0.94578245183E+02 -0.22058329809E+02 -0.11313289435E+03  0.14909951764E+03  0.00000000000E+00 0. -1.
        -14    1    6    6    0    0  0.47285046263E+02  0.15326439452E+02 -0.16880157389E+03  0.17596802747E+03  0.00000000000E+00 0.  1.
</event>
<event>
12    1  0.2614920E-002  0.1984038E+03  0.7818608E-02  0.1151093E+00
         -1   -1    0    0    0  501 -0.00000000000E+00  0.00000000000E+00  0.23654796044E+03  0.23654796044E+03  0.00000000000E+00 0.  1.
          1   -1    0    0  502    0  0.00000000000E+00 -0.00000000000E+00 -0.20666883101E+03  0.20666883101E+03  0.00000000000E+00 0. -1.
          6    2    1    2  502    0 -0.27730579770E+02  0.92963044003E+02  0.11279296786E+03  0.22892593335E+03  0.17399343883E+03 0.  0.
         24    2    3    3    0    0 -0.53083429795E+02  0.54170757076E+02  0.13748423301E+03  0.17620632501E+03  0.79965199958E+02 0.  0.
         -6    2    1    2    0  501  0.27730579770E+02 -0.92963044003E+02 -0.82913838428E+02  0.21429085809E+03  0.17214747937E+03 0.  0.
        -24    2    5    5    0    0 -0.12495068251E+02 -0.26575485216E+02 -0.10031609876E+03  0.13460184138E+03  0.84805382419E+02 0.  0.
          5    1    3    3  502    0  0.25352850025E+02  0.38792286927E+02 -0.24691265151E+02  0.52719608346E+02  0.47000000000E+01 0. -1.
        -11    1    4    4    0    0 -0.43588612710E+02 -0.11173217653E+01  0.99001255417E+02  0.10817792816E+03  0.00000000000E+00 0.  1.
         12    1    4    4    0    0 -0.94948170853E+01  0.55288078842E+02  0.38482977593E+02  0.68028396850E+02  0.00000000000E+00 0. -1.
         -5    1    5    5    0  501  0.40225648021E+02 -0.66387558787E+02  0.17402260330E+02  0.79689016715E+02  0.47000000000E+01 0.  1.
         13    1    6    6    0    0  0.13147871940E+02  0.27166789209E+02 -0.32466554191E+02  0.44328073650E+02  0.00000000000E+00 0. -1.
        -14    1    6    6    0    0 -0.25642940190E+02 -0.53742274425E+02 -0.67849544567E+02  0.90273767728E+02  0.00000000000E+00 0.  1.
</event>
<event>
12    1  0.2614920E-002  0.1774299E+03  0.7818608E-02  0.1170314E+00
         -2   -1    0    0    0  501 -0.00000000000E+00  0.00000000000E+00  0.17111850308E+03  0.17111850308E+03  0.00000000000E+00 0.  1.
          2   -1    0    0  502    0  0.00000000000E+00 -0.00000000000E+00 -0.22115372945E+03  0.22115372945E+03  0.00000000000E+00 0. -1.
          6    2    1    2  502    0 -0.12050531475E+02  0.39621774917E+02 -0.10548069770E+03  0.20674031293E+03  0.17291697154E+03 0.  0.
         24    2    3    3    0    0 -0.25017495687E+02 -0.13090650342E+02  0.27989979590E+01  0.85524289115E+02  0.80680415357E+02 0.  0.
         -6    2    1    2    0  501  0.12050531475E+02 -0.39621774917E+02  0.55445471326E+02  0.18553191960E+03  0.17214178035E+03 0.  0.
        -24    2    5    5    0    0 -0.28224966655E+02 -0.75581708702E+02  0.59188173036E+02  0.13120577116E+03  0.84867373743E+02 0.  0.
          5    1    3    3  502    0  0.12966964212E+02  0.52712425259E+02 -0.10827969566E+03  0.12121602382E+03  0.47000000000E+01 0. -1.
        -11    1    4    4    0    0 -0.47246818565E+02 -0.33021907746E+01  0.24169129199E+02  0.53172484752E+02  0.00000000000E+00 0.  1.
         12    1    4    4    0    0  0.22229322878E+02 -0.97884595676E+01 -0.21370131240E+02  0.32351804363E+02  0.00000000000E+00 0. -1.
         -5    1    5    5    0  501  0.40275498130E+02  0.35959933785E+02 -0.37427017095E+01  0.54326148433E+02  0.47000000000E+01 0.  1.
         13    1    6    6    0    0 -0.24841129760E+02 -0.11278606762E+02  0.60963212768E+02  0.66789235729E+02  0.00000000000E+00 0. -1.
        -14    1    6    6    0    0 -0.33838368949E+01 -0.64303101940E+02 -0.17750397326E+01  0.64416535433E+02  0.00000000000E+00 0.  1.
</event>
<event>
12    1  0.2614920E-002  0.2731752E+03  0.7818608E-02  0.1099476E+00
         -2   -1    0    0    0  501 -0.00000000000E+00  0.00000000000E+00  0.11573444399E+03  0.11573444399E+03  0.00000000000E+00 0. -1.
          2   -1    0    0  502    0  0.00000000000E+00 -0.00000000000E+00 -0.16784555495E+04  0.16784555495E+04  0.00000000000E+00 0.  1.
          6    2    1    2  502    0  0.11817293899E+03 -0.17576787682E+03 -0.14843994536E+04  0.15091691444E+04  0.17114490500E+03 0.  0.
         24    2    3    3    0    0  0.16244017306E+02 -0.18814430366E+02 -0.50946951224E+03  0.51642830712E+03  0.80753709540E+02 0.  0.
         -6    2    1    2    0  501 -0.11817293899E+03  0.17576787682E+03 -0.78321651911E+02  0.28502084911E+03  0.17390633467E+03 0.  0.
        -24    2    5    5    0    0 -0.30067401936E+02  0.35842734565E+02  0.19246856710E+02  0.92970504229E+02  0.78002069735E+02 0.  0.
          5    1    3    3  502    0  0.10192892168E+03 -0.15695344645E+03 -0.97492994139E+03  0.99274083730E+03  0.47000000000E+01 0. -1.
        -13    1    4    4    0    0  0.29365401282E+02  0.23801762975E+02 -0.17771850620E+03  0.18169402345E+03  0.00000000000E+00 0.  1.
         14    1    4    4    0    0 -0.13121383976E+02 -0.42616193341E+02 -0.33175100605E+03  0.33473428367E+03  0.00000000000E+00 0. -1.
         -5    1    5    5    0  501 -0.88105537049E+02  0.13992514225E+03 -0.97568508621E+02  0.19205034488E+03  0.47000000000E+01 0.  1.
         13    1    6    6    0    0 -0.29814688053E+02  0.47629478110E+02  0.40088215900E+02  0.69025704363E+02  0.00000000000E+00 0. -1.
        -14    1    6    6    0    0 -0.25271388256E+00 -0.11786743545E+02 -0.20841359190E+02  0.23944799865E+02  0.00000000000E+00 0.  1.
</event>
<event>
12    1  0.2614920E-002  0.1751038E+03  0.7818608E-02  0.1172628E+00
         -2   -1    0    0    0  501 -0.00000000000E+00  0.00000000000E+00  0.32570103006E+02  0.32570103006E+02  0.00000000000E+00 0.  1.
          2   -1    0    0  502    0  0.00000000000E+00 -0.00000000000E+00 -0.94360223533E+03  0.94360223533E+03  0.00000000000E+00 0. -1.
          6    2    1    2  502    0 -0.33111801275E+02  0.23797327532E+02 -0.46424783409E+03  0.49465485854E+03  0.16581517856E+03 0.  0.
         24    2    3    3    0    0 -0.48282364893E+02  0.72883435417E+02 -0.27726927561E+03  0.30068923448E+03  0.76763159230E+02 0.  0.
         -6    2    1    2    0  501  0.33111801275E+02 -0.23797327532E+02 -0.44678429823E+03  0.48151747979E+03  0.17487186743E+03 0.  0.
        -24    2    5    5    0    0 -0.36426129366E+02  0.28653651758E+02 -0.23400369378E+03  0.25155160264E+03  0.79828475027E+02 0.  0.
          5    1    3    3  502    0  0.15170563618E+02 -0.49086107885E+02 -0.18697855848E+03  0.19396562407E+03  0.47000000000E+01 0. -1.
        -11    1    4    4    0    0  0.12317885449E+01  0.99899361898E+01  0.19241257465E+01  0.10247847968E+02  0.00000000000E+00 0.  1.
         12    1    4    4    0    0 -0.49514153438E+02  0.62893499227E+02 -0.27919340136E+03  0.29044138651E+03  0.00000000000E+00 0. -1.
         -5    1    5    5    0  501  0.69537930641E+02 -0.52450979290E+02 -0.21278060445E+03  0.22996587716E+03  0.47000000000E+01 0.  1.
         11    1    6    6    0    0 -0.26788964356E+02  0.43679477464E+01 -0.22045509371E+03  0.22211973330E+03  0.00000000000E+00 0. -1.
        -12    1    6    6    0    0 -0.96371650099E+01  0.24285704012E+02 -0.13548600076E+02  0.29431869339E+02  0.00000000000E+00 0.  1.
</event>
<event>
12    1  0.3651053E-002  0.2320934E+03  0.7818608E-02  0.1125175E+00
         -2   -1    0    0    0  501 -0.00000000000E+00  0.00000000000E+00  0.44613035217E+02  0.44613035217E+02  0.00000000000E+00 0. -1.
          2   -1    0    0  502    0  0.00000000000E+00 -0.00000000000E+00 -0.14622433251E+04  0.14622433251E+04  0.00000000000E+00 0.  1.
          6    2    1    2  502    0  0.13771306843E+03 -0.75074393111E+02 -0.39593051523E+03  0.45926857363E+03  0.17194649201E+03 0.  0.
         24    2    3    3    0    0  0.12374051783E+03 -0.10143692131E+03 -0.38911710652E+03  0.42830524691E+03  0.80200356519E+02 0.  0.
         -6    2    1    2    0  501 -0.13771306843E+03  0.75074393111E+02 -0.10216997747E+04  0.10475877867E+04  0.17020190238E+03 0.  0.
        -24    2    5    5    0    0 -0.14116735029E+03  0.97854571191E+02 -0.69523118484E+03  0.72027341378E+03  0.77095086318E+02 0.  0.
          5    1    3    3  502    0  0.13972550600E+02  0.26362528194E+02 -0.68134087036E+01  0.30963326714E+02  0.47000000000E+01 0. -1.
        -13    1    4    4    0    0  0.20765001821E+02 -0.21055348008E+02 -0.17502262756E+03  0.17750333275E+03  0.00000000000E+00 0.  1.
         14    1    4    4    0    0  0.10297551601E+03 -0.80381573298E+02 -0.21409447897E+03  0.25080191416E+03  0.00000000000E+00 0. -1.
         -5    1    5    5    0  501  0.34542818632E+01 -0.22780178080E+02 -0.32646858983E+03  0.32731437292E+03  0.47000000000E+01 0.  1.
         13    1    6    6    0    0 -0.32102308912E+02  0.26889850743E+02 -0.69375894442E+02  0.81034789073E+02  0.00000000000E+00 0. -1.
        -14    1    6    6    0    0 -0.10906504138E+03  0.70964720448E+02 -0.62585529040E+03  0.63923862471E+03  0.00000000000E+00 0.  1.
</event>
<event>
12    1  0.2614920E-002  0.1832679E+03  0.7818608E-02  0.1164677E+00
         -4   -1    0    0    0  501 -0.00000000000E+00  0.00000000000E+00  0.11120092480E+03  0.11120092480E+03  0.00000000000E+00 0. -1.
          4   -1    0    0  502    0  0.00000000000E+00 -0.00000000000E+00 -0.31041936388E+03  0.31041936388E+03  0.00000000000E+00 0.  1.
          6    2    1    2  502    0  0.60772310196E+02 -0.31363937628E+01 -0.13468817203E+03  0.22813740770E+03  0.17378913216E+03 0.  0.
         24    2    3    3    0    0  0.86436393674E+02  0.45231908148E+02 -0.11137496886E+03  0.16844039561E+03  0.80315674178E+02 0.  0.
         -6    2    1    2    0  501 -0.60772310196E+02  0.31363937628E+01 -0.64530267060E+02  0.19348288098E+03  0.17195452658E+03 0.  0.
        -24    2    5    5    0    0  0.75575005657E+01  0.54080655563E+02 -0.34743174394E+02  0.10307468589E+03  0.80221378599E+02 0.  0.
          5    1    3    3  502    0 -0.25664083477E+02 -0.48368301910E+02 -0.23313203165E+02  0.59697012088E+02  0.47000000000E+01 0. -1.
        -11    1    4    4    0    0  0.86553696063E+02  0.14748579885E+02 -0.10573908438E+03  0.13744023020E+03  0.00000000000E+00 0.  1.
         12    1    4    4    0    0 -0.11730238968E+00  0.30483328262E+02 -0.56358844804E+01  0.31000165414E+02  0.00000000000E+00 0. -1.
         -5    1    5    5    0  501 -0.68329810762E+02 -0.50944261800E+02 -0.29787092666E+02  0.90408195085E+02  0.47000000000E+01 0.  1.
         11    1    6    6    0    0  0.23048312199E+01 -0.21324691743E+02 -0.72120003062E+01  0.22628912331E+02  0.00000000000E+00 0. -1.
        -12    1    6    6    0    0  0.52526693459E+01  0.75405347305E+02 -0.27531174088E+02  0.80445773563E+02  0.00000000000E+00 0.  1.
</event>
<event>
12    1  0.2614920E-002  0.2482601E+03  0.7818608E-02  0.1114409E+00
         -1   -1    0    0    0  501 -0.00000000000E+00  0.00000000000E+00  0.29955332439E+02  0.29955332439E+02  0.00000000000E+00 0. -1.
          1   -1    0    0  502    0  0.00000000000E+00 -0.00000000000E+00 -0.22827821704E+04  0.22827821704E+04  0.00000000000E+00 0.  1.
          6    2    1    2  502    0  0.42673585596E+00  0.17872833287E+03 -0.76149883173E+03  0.80082046555E+03  0.17172346445E+03 0.  0.
         24    2    3    3    0    0  0.20280199099E+02  0.14067100850E+03 -0.72830427519E+03  0.74635498542E+03  0.80118836118E+02 0.  0.
         -6    2    1    2    0  501 -0.42673585596E+00 -0.17872833287E+03 -0.14913280063E+04  0.15119170373E+04  0.17288697580E+03 0.  0.
        -24    2    5    5    0    0  0.36769583279E+02 -0.28423935139E+02 -0.49342998385E+03  0.50206678542E+03  0.80237059474E+02 0.  0.
          5    1    3    3  502    0 -0.19853463243E+02  0.38057324373E+02 -0.33194556537E+02  0.54465480121E+02  0.47000000000E+01 0. -1.
        -13    1    4    4    0    0 -0.28958452708E+02  0.56052519157E+02 -0.34660693319E+03  0.35230220411E+03  0.00000000000E+00 0.  1.
         14    1    4    4    0    0  0.49238651806E+02  0.84618489343E+02 -0.38169734200E+03  0.39405278132E+03  0.00000000000E+00 0. -1.
         -5    1    5    5    0  501 -0.37196319135E+02 -0.15030439773E+03 -0.99789802241E+03  0.10098502519E+04  0.47000000000E+01 0.  1.
         11    1    6    6    0    0 -0.21114515479E+02 -0.18510468885E+02 -0.25366541193E+03  0.25521481429E+03  0.00000000000E+00 0. -1.
        -12    1    6    6    0    0  0.57884098758E+02 -0.99134662549E+01 -0.23976457191E+03  0.24685197112E+03  0.00000000000E+00 0.  1.
</event>
<event>
12    1  0.2614920E-002  0.1810228E+03  0.7818608E-02  0.1166817E+00
          2   -1    0    0  502    0  0.00000000000E+00  0.00000000000E+00  0.10782867015E+04  0.10782867015E+04  0.00000000000E+00 0. -1.
         -2   -1    0    0    0  501 -0.00000000000E+00 -0.00000000000E+00 -0.41552816169E+02  0.41552816169E+02  0.00000000000E+00 0.  1.
          6    2    1    2  502    0  0.32257770507E+02 -0.46426463537E+01  0.22143377372E+03  0.28395896548E+03  0.17475027900E+03 0.  0.
         24    2    3    3    0    0  0.84383685120E+02 -0.28834441714E+02  0.13933975193E+03  0.18364011207E+03  0.79725108650E+02 0.  0.
         -6    2    1    2    0  501 -0.32257770507E+02  0.46426463537E+01  0.81530011165E+03  0.83588055223E+03  0.18143844027E+03 0.  0.
        -24    2    5    5    0    0 -0.37365694522E+00 -0.47458724447E+02  0.24845141698E+03  0.26573085066E+03  0.81438984833E+02 0.  0.
          5    1    3    3  502    0 -0.52125914613E+02  0.24191795360E+02  0.82094021795E+02  0.10031885342E+03  0.47000000000E+01 0. -1.
        -13    1    4    4    0    0  0.53659776143E+02 -0.13108634796E+02  0.18945805635E+02  0.58396501891E+02  0.00000000000E+00 0.  1.
         14    1    4    4    0    0  0.30723908977E+02 -0.15725806918E+02  0.12039394629E+03  0.12524361017E+03  0.00000000000E+00 0. -1.
         -5    1    5    5    0  501 -0.31884113562E+02  0.52101370800E+02  0.56684869468E+03  0.57014970157E+03  0.47000000000E+01 0.  1.
         11    1    6    6    0    0 -0.32333125559E+02 -0.38543426060E+02  0.20486863591E+03  0.21095540922E+03  0.00000000000E+00 0. -1.
        -12    1    6    6    0    0  0.31959468614E+02 -0.89152983867E+01  0.43582781065E+02  0.54775441438E+02  0.00000000000E+00 0.  1.
</event>
<event>
12    1  0.2614920E-002  0.1909168E+03  0.7818608E-02  0.1157637E+00
          2   -1    0    0  502    0  0.00000000000E+00  0.00000000000E+00  0.15222660339E+04  0.15222660339E+04  0.00000000000E+00 0. -1.
         -2   -1    0    0    0  501 -0.00000000000E+00 -0.00000000000E+00 -0.75718434073E+02  0.75718434073E+02  0.00000000000E+00 0.  1.
          6    2    1    2  502    0  0.67046668139E+02  0.38757449767E+02  0.13846423582E+04  0.13978199378E+04  0.17512487769E+03 0.  0.
         24    2    3    3    0    0  0.68824567054E+02 -0.27517351914E+02  0.11021029811E+04  0.11075681508E+04  0.81130770830E+02 0.  0.
         -6    2    1    2    0  501 -0.67046668139E+02 -0.38757449767E+02  0.61905241686E+02  0.20016453023E+03  0.17388555027E+03 0.  0.
        -24    2    5    5    0    0  0.23241286879E+02 -0.20934156846E+02 -0.46470978976E+01  0.86494444029E+02  0.80506502783E+02 0.  0.
          5    1    3    3  502    0 -0.17778989149E+01  0.66274801681E+02  0.28253937706E+03  0.29025178699E+03  0.47000000000E+01 0. -1.
        -13    1    4    4    0    0 -0.13065707171E+02 -0.19197853107E+02  0.13631358499E+03  0.13827748812E+03  0.00000000000E+00 0.  1.
         14    1    4    4    0    0  0.81890274225E+02 -0.83194988073E+01  0.96578939612E+03  0.96929066266E+03  0.00000000000E+00 0. -1.
         -5    1    5    5    0  501 -0.90287955018E+02 -0.17823292920E+02  0.66552339584E+02  0.11367008620E+03  0.47000000000E+01 0.  1.
         11    1    6    6    0    0  0.83847018714E+01  0.29213322046E+02 -0.13831801476E+02  0.33392216795E+02  0.00000000000E+00 0. -1.
        -12    1    6    6    0    0  0.14856585007E+02 -0.50147478892E+02  0.91847035783E+01  0.53102227234E+02  0.00000000000E+00 0.  1.
</event>
<event>
12    1  0.2614920E-002  0.2768255E+03  0.7818608E-02  0.1097436E+00
          2   -1    0    0  502    0  0.00000000000E+00  0.00000000000E+00  0.41919614158E+03  0.41919614158E+03  0.00000000000E+00 0.  1.
         -2   -1    0    0    0  501 -0.00000000000E+00 -0.00000000000E+00 -0.18445616519E+03  0.18445616519E+03  0.00000000000E+00 0. -1.
          6    2    1    2  502    0 -0.18383712800E+03 -0.11562315105E+03  0.14589348762E+03  0.31289993280E+03  0.17162941335E+03 0.  0.
         24    2    3    3    0    0 -0.17633788045E+02 -0.55908213115E+02  0.65035075303E+02  0.11860737796E+03  0.80009188922E+02 0.  0.
         -6    2    1    2    0  501  0.18383712800E+03  0.11562315105E+03  0.88846488772E+02  0.29075237398E+03  0.17169287033E+03 0.  0.
        -24    2    5    5    0    0  0.11744646459E+03  0.12766214253E+03  0.10935902525E+03  0.22007344037E+03  0.79885092942E+02 0.  0.
          5    1    3    3  502    0 -0.16620333995E+03 -0.59714937932E+02  0.80858412318E+02  0.19429255484E+03  0.47000000000E+01 0. -1.
        -11    1    4    4    0    0  0.17728320569E+01 -0.11651456768E+02  0.69113228951E+02  0.70110896402E+02  0.00000000000E+00 0.  1.
         12    1    4    4    0    0 -0.19406620102E+02 -0.44256756347E+02 -0.40781536481E+01  0.48496481556E+02  0.00000000000E+00 0. -1.
         -5    1    5    5    0  501  0.66390663403E+02 -0.12038991478E+02 -0.20512536481E+02  0.70678933607E+02  0.47000000000E+01 0.  1.
         13    1    6    6    0    0  0.16357101030E+02  0.66080586814E+02  0.17627321257E+02  0.70320133407E+02  0.00000000000E+00 0. -1.
        -14    1    6    6    0    0  0.10108936356E+03  0.61581555711E+02  0.91731703996E+02  0.14975330697E+03  0.00000000000E+00 0.  1.
</event>
<event>
12    1  0.2614920E-002  0.1787443E+03  0.7818608E-02  0.1169024E+00
          3   -1    0    0  502    0  0.00000000000E+00  0.00000000000E+00  0.23015191754E+03  0.23015191754E+03  0.00000000000E+00 0.  1.
         -3   -1    0    0    0  501 -0.00000000000E+00 -0.00000000000E+00 -0.20022258532E+03  0.20022258532E+03  0.00000000000E+00 0. -1.
          6    2    1    2  502    0 -0.21651263438E+02  0.42358787098E+02 -0.10420363917E+03  0.20688144359E+03  0.17227445903E+03 0.  0.
         24    2    3    3    0    0  0.18883234286E+02  0.86682538002E+02 -0.68036814460E+02  0.13661217855E+03  0.78507580997E+02 0.  0.
         -6    2    1    2    0  501  0.21651263438E+02 -0.42358787098E+02  0.13413297139E+03  0.22349305927E+03  0.17232077493E+03 0.  0.
        -24    2    5    5    0    0 -0.21889532573E+02 -0.56900203795E+02  0.23046444592E+02  0.10320357447E+03  0.80019087389E+02 0.  0.
          5    1    3    3  502    0 -0.40534497725E+02 -0.44323750904E+02 -0.36166824707E+02  0.70269265040E+02  0.47000000000E+01 0. -1.
        -11    1    4    4    0    0  0.84753312927E+01  0.22653201636E+02  0.17068458907E+02  0.29602889628E+02  0.00000000000E+00 0.  1.
         12    1    4    4    0    0  0.10407902994E+02  0.64029336366E+02 -0.85105273367E+02  0.10700928892E+03  0.00000000000E+00 0. -1.
         -5    1    5    5    0  501  0.43540796011E+02  0.14541416697E+02  0.11108652680E+03  0.12028948480E+03  0.47000000000E+01 0.  1.
         13    1    6    6    0    0  0.19049841086E+02 -0.55241930432E+02  0.57057436533E+01  0.58712203449E+02  0.00000000000E+00 0. -1.
        -14    1    6    6    0    0 -0.40939373659E+02 -0.16582733633E+01  0.17340700938E+02  0.44491371019E+02  0.00000000000E+00 0.  1.
</event>
<event>
12    1  0.2614920E-002  0.2071355E+03  0.7818608E-02  0.1143855E+00
         -2   -1    0    0    0  501 -0.00000000000E+00  0.00000000000E+00  0.41125358274E+02  0.41125358274E+02  0.00000000000E+00 0.  1.
          2   -1    0    0  502    0  0.00000000000E+00 -0.00000000000E+00 -0.14563881012E+04  0.14563881012E+04  0.00000000000E+00 0. -1.
          6    2    1    2  502    0 -0.88204521182E+02  0.74784434252E+02 -0.11077159220E+04  0.11270143621E+04  0.17249365054E+03 0.  0.
         24    2    3    3    0    0 -0.83569117063E+02  0.11570252579E+03 -0.81023701330E+03  0.82666195529E+03  0.80716161940E+02 0.  0.
         -6    2    1    2    0  501  0.88204521182E+02 -0.74784434252E+02 -0.30754682090E+03  0.37049909730E+03  0.17120684826E+03 0.  0.
        -24    2    5    5    0    0  0.27655736474E+02 -0.10057489095E+03 -0.14883269966E+03  0.19861668032E+03  0.80107832099E+02 0.  0.
          5    1    3    3  502    0 -0.46354041189E+01 -0.40918091538E+02 -0.29747890870E+03  0.30035240686E+03  0.47000000000E+01 0. -1.
        -11    1    4    4    0    0 -0.48624949294E+02  0.40094567420E+02 -0.17529765235E+03  0.18628265338E+03  0.00000000000E+00 0.  1.
         12    1    4    4    0    0 -0.34944167768E+02  0.75607958370E+02 -0.63493936095E+03  0.64037930191E+03  0.00000000000E+00 0. -1.
         -5    1    5    5    0  501  0.60548784708E+02  0.25790456695E+02 -0.15871412123E+03  0.17188241698E+03  0.47000000000E+01 0.  1.
         13    1    6    6    0    0 -0.23411237198E+02 -0.64636246405E+02 -0.84982659753E+02  0.10930682886E+03  0.00000000000E+00 0. -1.
        -14    1    6    6    0    0  0.51066973672E+02 -0.35938644542E+02 -0.63850039910E+02  0.89309851462E+02  0.00000000000E+00 0.  1.
</event>
<event>
12    1  0.2614920E-002  0.2532254E+03  0.7818608E-02  0.1111283E+00
         -2   -1    0    0    0  501 -0.00000000000E+00  0.00000000000E+00  0.57675824901E+02  0.57675824901E+02  0.00000000000E+00 0.  1.
          2   -1    0    0  502    0  0.00000000000E+00 -0.00000000000E+00 -0.11284517386E+04  0.11284517386E+04  0.00000000000E+00 0. -1.
          6    2    1    2  502    0  0.18252213641E+03 -0.37169001018E+02 -0.60925754524E+03  0.66012338084E+03  0.17283592389E+03 0.  0.
         24    2    3    3    0    0  0.85832011013E+02  0.38931924118E+02 -0.23153430006E+03  0.26283598977E+03  0.81189879811E+02 0.  0.
         -6    2    1    2    0  501 -0.18252213641E+03  0.37169001018E+02 -0.46151836841E+03  0.52600418261E+03  0.17025078803E+03 0.  0.
        -24    2    5    5    0    0 -0.15964570922E+03  0.56343415612E+02 -0.45618290791E+03  0.49531955722E+03  0.92613634769E+02 0.  0.
          5    1    3    3  502    0  0.96690125400E+02 -0.76100925137E+02 -0.37772324518E+03  0.39728739108E+03  0.47000000000E+01 0. -1.
        -11    1    4    4    0    0 -0.96724977088E+01  0.14240613962E+02 -0.90166328500E+01  0.19433269563E+02  0.00000000000E+00 0.  1.
         12    1    4    4    0    0  0.95504508722E+02  0.24691310156E+02 -0.22251766721E+03  0.24340272021E+03  0.00000000000E+00 0. -1.
         -5    1    5    5    0  501 -0.22876427195E+02 -0.19174414594E+02 -0.53354604992E+01  0.30684625384E+02  0.47000000000E+01 0.  1.
         13    1    6    6    0    0 -0.19723754138E+02 -0.15407755907E+02 -0.13970592153E+03  0.14193015863E+03  0.00000000000E+00 0. -1.
        -14    1    6    6    0    0 -0.13992195508E+03  0.71751171520E+02 -0.31647698638E+03  0.35338939859E+03  0.00000000000E+00 0.  1.
</event>
<event>
12    1  0.2614920E-002  0.2411099E+03  0.7818608E-02  0.1119056E+00
          1   -1    0    0  502    0  0.00000000000E+00  0.00000000000E+00  0.56517468547E+03  0.56517468547E+03  0.00000000000E+00 0. -1.
         -1   -1    0    0    0  501 -0.00000000000E+00 -0.00000000000E+00 -0.14684389777E+03  0.14684389777E+03  0.00000000000E+00 0.  1.
          6    2    1    2  502    0  0.15782147437E+02 -0.16905579481E+03  0.14376886471E+02  0.24162346422E+03  0.17130751782E+03 0.  0.
         24    2    3    3    0    0  0.38008849763E+02 -0.75727601038E+02 -0.48391957121E+02  0.12687941961E+03  0.81100329140E+02 0.  0.
         -6    2    1    2    0  501 -0.15782147437E+02  0.16905579481E+03  0.40395390123E+03  0.47039511902E+03  0.17106687507E+03 0.  0.
        -24    2    5    5    0    0 -0.37001335393E+02  0.96572404836E+02  0.35703653229E+03  0.38135902933E+03  0.85230837528E+02 0.  0.
          5    1    3    3  502    0 -0.22226702326E+02 -0.93328193769E+02  0.62768843591E+02  0.11474404461E+03  0.47000000000E+01 0. -1.
        -13    1    4    4    0    0  0.35748977832E+02 -0.63068613036E+02  0.43173274145E+01  0.72624229306E+02  0.00000000000E+00 0.  1.
         14    1    4    4    0    0  0.22598719313E+01 -0.12658988002E+02 -0.52709284535E+02  0.54255190301E+02  0.00000000000E+00 0. -1.
         -5    1    5    5    0  501  0.21219187956E+02  0.72483389971E+02  0.46917368938E+02  0.89036089690E+02  0.47000000000E+01 0.  1.
         11    1    6    6    0    0 -0.62703732651E+02  0.50302450572E+02  0.23391380628E+03  0.24734139037E+03  0.00000000000E+00 0. -1.
        -12    1    6    6    0    0  0.25702397257E+02  0.46269954265E+02  0.12312272601E+03  0.13401763896E+03  0.00000000000E+00 0.  1.
</event>
<event>
12    1  0.2614920E-002  0.2556841E+03  0.7818608E-02  0.1109764E+00
          2   -1    0    0  502    0  0.00000000000E+00  0.00000000000E+00  0.11281945147E+04  0.11281945147E+04  0.00000000000E+00 0.  1.
         -2   -1    0    0    0  501 -0.00000000000E+00 -0.00000000000E+00 -0.31153444585E+03  0.31153444585E+03  0.00000000000E+00 0. -1.
          6    2    1    2  502    0 -0.17522216407E+03  0.69011005974E+02 -0.24090565287E+03  0.35188194693E+03  0.17412652084E+03 0.  0.
         24    2    3    3    0    0 -0.13931876185E+02  0.49843244733E+02 -0.81507248438E+02  0.12425966908E+03  0.78221401112E+02 0.  0.
         -6    2    1    2    0  501  0.17522216407E+03 -0.69011005974E+02  0.10575657217E+04  0.10878470136E+04  0.17175722270E+03 0.  0.
        -24    2    5    5    0    0  0.65978344261E+02 -0.23537490100E+02  0.25570213381E+03  0.27728587686E+03  0.81220200178E+02 0.  0.
          5    1    3    3  502    0 -0.16129028789E+03  0.19167761241E+02 -0.15939840443E+03  0.22762227785E+03  0.47000000000E+01 0. -1.
        -13    1    4    4    0    0 -0.46903591313E+00  0.51029015703E+02 -0.10657181774E+02  0.52132101067E+02  0.00000000000E+00 0.  1.
         14    1    4    4    0    0 -0.13462840272E+02 -0.11857709692E+01 -0.70850066664E+02  0.72127568012E+02  0.00000000000E+00 0. -1.
         -5    1    5    5    0  501  0.10924381981E+03 -0.45473515874E+02  0.80186358792E+03  0.81056113677E+03  0.47000000000E+01 0.  1.
         11    1    6    6    0    0  0.28355964652E+02 -0.44853815649E+02  0.19913570234E+03  0.20608482103E+03  0.00000000000E+00 0. -1.
        -12    1    6    6    0    0  0.37622379609E+02  0.21316325550E+02  0.56566431472E+02  0.71201055834E+02  0.00000000000E+00 0.  1.
</event>
<event>
12    1  0.2614920E-002  0.1747082E+03  0.7818608E-02  0.1173025E+00
          2   -1    0    0  502    0  0.00000000000E+00  0.00000000000E+00  0.14586182048E+04  0.14586182048E+04  0.00000000000E+00 0. -1.
         -2   -1    0    0    0  501 -0.00000000000E+00 -0.00000000000E+00 -0.22752561714E+02  0.22752561714E+02  0.00000000000E+00 0.  1.
          6    2    1    2  502    0 -0.34984629006E+02 -0.15820382592E+02  0.93256627677E+03  0.94902755414E+03  0.17175339639E+03 0.  0.
         24    2    3    3    0    0 -0.14531749914E+02 -0.52833351944E+02  0.30015808646E+03  0.31518964951E+03  0.79038620065E+02 0.  0.
         -6    2    1    2    0  501  0.34984629006E+02  0.15820382592E+02  0.50329936628E+03  0.53234321234E+03  0.16912963919E+03 0.  0.
        -24    2    5    5    0    0  0.14188720160E+02 -0.56456505231E+02  0.31861665867E+03  0.33287840133E+03  0.76829669608E+02 0.  0.
          5    1    3    3  502    0 -0.20452879092E+02  0.37012969352E+02  0.63240819032E+03  0.63383790463E+03  0.47000000000E+01 0. -1.
        -13    1    4    4    0    0  0.10676037975E+01 -0.16684917918E+01 -0.50004838109E+01  0.53785203421E+01  0.00000000000E+00 0.  1.
         14    1    4    4    0    0 -0.15599353711E+02 -0.51164860152E+02  0.30515857027E+03  0.30981112917E+03  0.00000000000E+00 0. -1.
         -5    1    5    5    0  501  0.20795908846E+02  0.72276887822E+02  0.18468270761E+03  0.19946481101E+03  0.47000000000E+01 0.  1.
         11    1    6    6    0    0  0.36543305856E+02 -0.47836694718E+02  0.28680097124E+03  0.29305043878E+03  0.00000000000E+00 0. -1.
        -12    1    6    6    0    0 -0.22354585695E+02 -0.86198105126E+01  0.31815687429E+02  0.39827962557E+02  0.00000000000E+00 0.  1.
</event>
<event>
12    1  0.2614920E-002  0.2145105E+03  0.7818608E-02  0.1138043E+00
         -2   -1    0    0    0  501 -0.00000000000E+00  0.00000000000E+00  0.39905464691E+02  0.39905464691E+02  0.00000000000E+00 0.  1.
          2   -1    0    0  502    0  0.00000000000E+00 -0.00000000000E+00 -0.15704678222E+04  0.15704678222E+04  0.00000000000E+00 0. -1.
          6    2    1    2  502    0  0.45728139463E+02  0.11615425173E+03 -0.35278115133E+03  0.41339241120E+03  0.17565839568E+03 0.  0.
         24    2    3    3    0    0 -0.36847543061E+02  0.63887895696E+02 -0.12161531889E+03  0.16237399075E+03  0.78330214081E+02 0.  0.
         -6    2    1    2    0  501 -0.45728139463E+02 -0.11615425173E+03 -0.11777812061E+04  0.11969808757E+04  0.17323906662E+03 0.  0.
        -24    2    5    5    0    0 -0.40420567268E+02 -0.11485814165E+03 -0.11804330535E+04  0.11893015190E+04  0.78674611404E+02 0.  0.
          5    1    3    3  502    0  0.82575682523E+02  0.52266356035E+02 -0.23116583244E+03  0.25101842045E+03  0.47000000000E+01 0. -1.
        -13    1    4    4    0    0  0.19556110420E+01  0.64050482981E+02 -0.51391223875E+02  0.82142234423E+02  0.00000000000E+00 0.  1.
         14    1    4    4    0    0 -0.38803154103E+02 -0.16258728472E+00 -0.70224095017E+02  0.80231756330E+02  0.00000000000E+00 0. -1.
         -5    1    5    5    0  501 -0.53075721944E+01 -0.12961100819E+01  0.26518473264E+01  0.76793566257E+01  0.47000000000E+01 0.  1.
         11    1    6    6    0    0 -0.58186778048E+02 -0.67384677301E+02 -0.89359052208E+03  0.89801470869E+03  0.00000000000E+00 0. -1.
        -12    1    6    6    0    0  0.17766210780E+02 -0.47473464349E+02 -0.28684253139E+03  0.29128681034E+03  0.00000000000E+00 0.  1.
</event>
<event>
12    1  0.2614920E-002  0.2211552E+03  0.7818608E-02  0.1133025E+00
         -2   -1    0    0    0  501 -0.00000000000E+00  0.00000000000E+00  0.62427997129E+02  0.62427997129E+02  0.00000000000E+00 0.  1.
          2   -1    0    0  502    0  0.00000000000E+00 -0.00000000000E+00 -0.78924204051E+03  0.78924204051E+03  0.00000000000E+00 0. -1.
          6    2    1    2  502    0 -0.11730122940E+03 -0.44210310934E+02 -0.39602246926E+03  0.45252427079E+03  0.17952796297E+03 0.  0.
         24    2    3    3    0    0 -0.12740167960E+03 -0.81819811928E+02 -0.26757287857E+03  0.31821909216E+03  0.82112579314E+02 0.  0.
         -6    2    1    2    0  501  0.11730122940E+03  0.44210310934E+02 -0.33079157413E+03  0.39914576685E+03  0.18487873775E+03 0.  0.
        -24    2    5    5    0    0  0.58276672504E+02  0.68319279855E+02 -0.30899394758E+03  0.33160046930E+03  0.80111903225E+02 0.  0.
          5    1    3    3  502    0  0.10100450200E+02  0.37609500994E+02 -0.12844959069E+03  0.13430517864E+03  0.47000000000E+01 0. -1.
        -11    1    4    4    0    0 -0.11552499271E+03 -0.97003961960E+02 -0.21867699405E+03  0.26566034763E+03  0.00000000000E+00 0.  1.
         12    1    4    4    0    0 -0.11876686884E+02  0.15184150032E+02 -0.48895884516E+02  0.52558744526E+02  0.00000000000E+00 0. -1.
         -5    1    5    5    0  501  0.59024556892E+02 -0.24108968921E+02 -0.21797626547E+02  0.67545297555E+02  0.47000000000E+01 0.  1.
         11    1    6    6    0    0  0.52408736609E+02  0.85908767941E+02 -0.27569102790E+03  0.29348344918E+03  0.00000000000E+00 0. -1.
        -12    1    6    6    0    0  0.58679358947E+01 -0.17589488086E+02 -0.33302919683E+02  0.38117020112E+02  0.00000000000E+00 0.  1.
</event>
<event>
12    1  0.2614920E-002  0.1698482E+03  0.7818608E-02  0.1178006E+00
         -1   -1    0    0    0  501 -0.00000000000E+00  0.00000000000E+00  0.26259543335E+03  0.26259543335E+03  0.00000000000E+00 0.  1.
          1   -1    0    0  502    0  0.00000000000E+00 -0.00000000000E+00 -0.22332588555E+03  0.22332588555E+03  0.00000000000E+00 0. -1.
          6    2    1    2  502    0  0.47500473051E+02  0.20320484852E+02  0.19292382814E+03  0.26446539747E+03  0.17335837433E+03 0.  0.
         24    2    3    3    0    0  0.69796337107E+02  0.90789485408E+01  0.45801853931E+02  0.11516555491E+03  0.78812050057E+02 0.  0.
         -6    2    1    2    0  501 -0.47500473051E+02 -0.20320484852E+02 -0.15365428034E+03  0.22145592144E+03  0.15087700364E+03 0.  0.
        -24    2    5    5    0    0 -0.19264205674E+02  0.32300040823E+02 -0.12771613450E+03  0.15617894289E+03  0.81645875186E+02 0.  0.
          5    1    3    3  502    0 -0.22295864057E+02  0.11241536311E+02  0.14712197421E+03  0.14929984256E+03  0.47000000000E+01 0. -1.
        -13    1    4    4    0    0  0.75362916980E+02 -0.83145494631E+01  0.55990585078E+02  0.94253098654E+02  0.00000000000E+00 0.  1.
         14    1    4    4    0    0 -0.55665798724E+01  0.17393498004E+02 -0.10188731147E+02  0.20912456257E+02  0.00000000000E+00 0. -1.
         -5    1    5    5    0  501 -0.28236267377E+02 -0.52620525675E+02 -0.25938145849E+02  0.65276978544E+02  0.47000000000E+01 0.  1.
         11    1    6    6    0    0  0.90389574020E+01 -0.18897423938E+02 -0.73472321038E+02  0.76400244379E+02  0.00000000000E+00 0. -1.
        -12    1    6    6    0    0 -0.28303163076E+02  0.51197464761E+02 -0.54243813458E+02  0.79778698514E+02  0.00000000000E+00 0.  1.
</event>
<event>
12    1  0.2614920E-002  0.1977110E+03  0.7818608E-02  0.1151685E+00
         -2   -1    0    0    0  501 -0.00000000000E+00  0.00000000000E+00  0.11868246842E+03  0.11868246842E+03  0.00000000000E+00 0. -1.
          2   -1    0    0  502    0  0.00000000000E+00 -0.00000000000E+00 -0.33646224519E+03  0.33646224519E+03  0.00000000000E+00 0.  1.
          6    2    1    2  502    0 -0.88283395877E+02 -0.40331453646E+02 -0.14196851624E+03  0.24343587245E+03  0.17229445798E+03 0.  0.
         24    2    3    3    0    0 -0.11869788919E+03 -0.66574606934E+02 -0.11574165506E+03  0.19523127988E+03  0.78725820038E+02 0.  0.
         -6    2    1    2    0  501  0.88283395877E+02  0.40331453646E+02 -0.75811260527E+02  0.21170884116E+03  0.17219959949E+03 0.  0.
        -24    2    5    5    0    0  0.24626459528E+02  0.44498844515E+02  0.18971885561E+02  0.97360655895E+02  0.80824224107E+02 0.  0.
          5    1    3    3  502    0  0.30414493311E+02  0.26243153287E+02 -0.26226861186E+02  0.48204592577E+02  0.47000000000E+01 0. -1.
        -13    1    4    4    0    0 -0.26174479478E+02 -0.29004916372E+02 -0.80243778736E+02  0.89249384174E+02  0.00000000000E+00 0.  1.
         14    1    4    4    0    0 -0.92523409710E+02 -0.37569690562E+02 -0.35497876323E+02  0.10598189570E+03  0.00000000000E+00 0. -1.
         -5    1    5    5    0  501  0.63656936349E+02 -0.41673908690E+01 -0.94783146087E+02  0.11434818527E+03  0.47000000000E+01 0.  1.
         11    1    6    6    0    0  0.43056824484E+02  0.35824102383E+02 -0.14788898982E+02  0.57930717062E+02  0.00000000000E+00 0. -1.
        -12    1    6    6    0    0 -0.18430364956E+02  0.86747421317E+01  0.33760784542E+02  0.39429938833E+02  0.00000000000E+00 0.  1.
</event>
<event>
12    1  0.2614920E-002  0.2108003E+03  0.7818608E-02  0.1140934E+00
         -2   -1    0    0    0  501 -0.00000000000E+00  0.00000000000E+00  0.26814988894E+02  0.26814988894E+02  0.00000000000E+00 0. -1.
          2   -1    0    0  502    0  0.00000000000E+00 -0.00000000000E+00 -0.18364166058E+04  0.18364166058E+04  0.00000000000E+00 0.  1.
          6    2    1    2  502    0  0.11996055844E+03  0.29485046633E+02 -0.11917505986E+04  0.12100680503E+04  0.16951487693E+03 0.  0.
         24    2    3    3    0    0  0.14593009024E+03 -0.23516856606E+01 -0.10110034489E+04  0.10246506395E+04  0.80497438689E+02 0.  0.
         -6    2    1    2    0  501 -0.11996055844E+03 -0.29485046633E+02 -0.61785101826E+03  0.65316354436E+03  0.17211284485E+03 0.  0.
        -24    2    5    5    0    0 -0.59451376196E+02 -0.54002551613E+02 -0.53987470091E+03  0.55135556209E+03  0.77958459791E+02 0.  0.
          5    1    3    3  502    0 -0.25969531798E+02  0.31836732294E+02 -0.18074714974E+03  0.18541741084E+03  0.47000000000E+01 0. -1.
        -13    1    4    4    0    0  0.14413045313E+03  0.14468392504E+02 -0.96117792918E+03  0.97203185824E+03  0.00000000000E+00 0.  1.
         14    1    4    4    0    0  0.17996371148E+01 -0.16820078165E+02 -0.49825519700E+02  0.52618781216E+02  0.00000000000E+00 0. -1.
         -5    1    5    5    0  501 -0.60509182249E+02  0.24517504979E+02 -0.77976317346E+02  0.10180798227E+03  0.47000000000E+01 0.  1.
         13    1    6    6    0    0 -0.31461583382E+02 -0.72042848231E+02 -0.37482526934E+03  0.38298039864E+03  0.00000000000E+00 0. -1.
        -14    1    6    6    0    0 -0.27989792813E+02  0.18040296618E+02 -0.16504943157E+03  0.16837516345E+03  0.00000000000E+00 0.  1.
</event>
<event>
12    1  0.2614920E-002  0.1777299E+03  0.7818608E-02  0.1170018E+00
          2   -1    0    0  502    0  0.00000000000E+00  0.00000000000E+00  0.10553072783E+04  0.10553072783E+04  0.00000000000E+00 0.  1.
         -2   -1    0    0    0  501 -0.00000000000E+00 -0.00000000000E+00 -0.32085984057E+02  0.32085984057E+02  0.00000000000E+00 0. -1.
          6    2    1    2  502    0  0.21712043284E+02  0.31826543938E+02  0.65144630736E+03  0.67515628792E+03  0.17311666591E+03 0.  0.
         24    2    3    3    0    0  0.57337751586E+02  0.25463741194E+01  0.21105737170E+03  0.23233462619E+03  0.78358551555E+02 0.  0.
         -6    2    1    2    0  501 -0.21712043284E+02 -0.31826543938E+02  0.37177498688E+03  0.41223697444E+03  0.17389174938E+03 0.  0.
        -24    2    5    5    0    0  0.21857000449E+02 -0.67471448329E+02  0.30235937273E+03  0.32274150937E+03  0.87810971880E+02 0.  0.
          5    1    3    3  502    0 -0.35625708302E+02  0.29280169818E+02  0.44038893566E+03  0.44282166172E+03  0.47000000000E+01 0. -1.
        -13    1    4    4    0    0 -0.18260697735E+02 -0.90582708947E+01  0.51698966389E+02  0.55572371544E+02  0.00000000000E+00 0.  1.
         14    1    4    4    0    0  0.75598449321E+02  0.11604645014E+02  0.15935840531E+03  0.17676225465E+03  0.00000000000E+00 0. -1.
         -5    1    5    5    0  501 -0.43569043734E+02  0.35644904392E+02  0.69415614151E+02  0.89495465074E+02  0.47000000000E+01 0.  1.
         11    1    6    6    0    0 -0.25914226829E+02 -0.50487848351E+02  0.10953730340E+03  0.12336527396E+03  0.00000000000E+00 0. -1.
        -12    1    6    6    0    0  0.47771227279E+02 -0.16983599978E+02  0.19282206933E+03  0.19937623541E+03  0.00000000000E+00 0.  1.
</event>
<event>
12    1  0.2614920E-002  0.1890741E+03  0.7818608E-02  0.1159299E+00
          1   -1    0    0  502    0  0.00000000000E+00  0.00000000000E+00  0.11484889869E+04  0.11484889869E+04  0.00000000000E+00 0. -1.
         -1   -1    0    0    0  501 -0.00000000000E+00 -0.00000000000E+00 -0.45256699666E+02  0.45256699666E+02  0.00000000000E+00 0.  1.
          6    2    1    2  502    0  0.76897323386E+02 -0.15731588684E+02  0.88483858700E+03  0.90478423938E+03  0.17185608387E+03 0.  0.
         24    2    3    3    0    0  0.11517186349E+03 -0.21048645708E+02  0.78075889296E+03  0.79366320525E+03  0.81297175841E+02 0.  0.
         -6    2    1    2    0  501 -0.76897323386E+02  0.15731588684E+02  0.21839370022E+03  0.28896144717E+03  0.17216918548E+03 0.  0.
        -24    2    5    5    0    0  0.82905249767E+01  0.44319736378E+02  0.85421142951E+02  0.12840602782E+03  0.84607118372E+02 0.  0.
          5    1    3    3  502    0 -0.38274540106E+02  0.53170570238E+01  0.10407969403E+03  0.11112103413E+03  0.47000000000E+01 0. -1.
        -11    1    4    4    0    0  0.57961201438E+02  0.13454306562E+02  0.18900849844E+03  0.19815330358E+03  0.00000000000E+00 0.  1.
         12    1    4    4    0    0  0.57210662055E+02 -0.34502952270E+02  0.59175039453E+03  0.59550990167E+03  0.00000000000E+00 0. -1.
         -5    1    5    5    0  501 -0.85187848363E+02 -0.28588147694E+02  0.13297255727E+03  0.16055541935E+03  0.47000000000E+01 0.  1.
         11    1    6    6    0    0  0.34144099013E+02  0.27462006040E+02  0.73163731335E+01  0.44424211742E+02  0.00000000000E+00 0. -1.
        -12    1    6    6    0    0 -0.25853574036E+02  0.16857730338E+02  0.78104769818E+02  0.83981816073E+02  0.00000000000E+00 0.  1.
</event>
<event>
12    1  0.2614920E-002  0.2491097E+03  0.7818608E-02  0.1113869E+00
          2   -1    0    0  502    0  0.00000000000E+00  0.00000000000E+00  0.74243955167E+03  0.74243955167E+03  0.00000000000E+00 0.  1.
         -2   -1    0    0    0  501 -0.00000000000E+00 -0.00000000000E+00 -0.10501658043E+03  0.10501658043E+03  0.00000000000E+00 0. -1.
          6    2    1    2  502    0  0.17783119671E+03 -0.40137390115E+02  0.50875568201E+03  0.56588153468E+03  0.16779339292E+03 0.  0.
         24    2    3    3    0    0  0.14404454416E+03 -0.68040349881E+02  0.27067285198E+03  0.32375421898E+03  0.78579142237E+02 0.  0.
         -6    2    1    2    0  501 -0.17783119671E+03  0.40137390115E+02  0.12866728923E+03  0.28157459742E+03  0.17173828340E+03 0.  0.
        -24    2    5    5    0    0 -0.18117099920E+03  0.16301458257E+02  0.61839897114E+02  0.21038965333E+03  0.85737767998E+02 0.  0.
          5    1    3    3  502    0  0.33786652556E+02  0.27902959766E+02  0.23808283003E+03  0.24212731570E+03  0.47000000000E+01 0. -1.
        -11    1    4    4    0    0  0.72782668183E+02 -0.35281230902E+02  0.65424531647E+02  0.10403101164E+03  0.00000000000E+00 0.  1.
         12    1    4    4    0    0  0.71261875974E+02 -0.32759118979E+02  0.20524832033E+03  0.21972320734E+03  0.00000000000E+00 0. -1.
         -5    1    5    5    0  501  0.33398024839E+01  0.23835931858E+02  0.66827392120E+02  0.71184944094E+02  0.47000000000E+01 0.  1.
         13    1    6    6    0    0 -0.12434988340E+03  0.26683180388E+02  0.19666152995E+01  0.12719572789E+03  0.00000000000E+00 0. -1.
        -14    1    6    6    0    0 -0.56821115794E+02 -0.10381722130E+02  0.59873281815E+02  0.83193925438E+02  0.00000000000E+00 0.  1.
</event>
<event>
12    1  0.2614920E-002  0.1919799E+03  0.7818608E-02  0.1156688E+00
         -1   -1    0    0    0  501 -0.00000000000E+00  0.00000000000E+00  0.21669392556E+03  0.21669392556E+03  0.00000000000E+00 0.  1.
          1   -1    0    0  502    0  0.00000000000E+00 -0.00000000000E+00 -0.17061547820E+03  0.17061547820E+03  0.00000000000E+00 0. -1.
          6    2    1    2  502    0 -0.81686695426E+02  0.25793046639E+02  0.33858894518E+02  0.19509196772E+03  0.17197806158E+03 0.  0.
         24    2    3    3    0    0 -0.87644523953E+02  0.48583721769E+02  0.74350629029E+02  0.14801138619E+03  0.79607875265E+02 0.  0.
         -6    2    1    2    0  501  0.81686695426E+02 -0.25793046639E+02  0.12219552840E+02  0.19221743604E+03  0.17163981991E+03 0.  0.
        -24    2    5    5    0    0  0.56617370005E+02 -0.16476924420E+02 -0.59159789046E+02  0.11584753583E+03  0.80273004754E+02 0.  0.
          5    1    3    3  502    0  0.59578285269E+01 -0.22790675129E+02 -0.40491734511E+02  0.47080581531E+02  0.47000000000E+01 0. -1.
        -11    1    4    4    0    0 -0.72263284108E+02  0.66802208473E+02  0.75659258202E+02  0.12413235130E+03  0.00000000000E+00 0.  1.
         12    1    4    4    0    0 -0.15381239845E+02 -0.18218486704E+02 -0.13086291733E+01  0.23879034890E+02  0.00000000000E+00 0. -1.
         -5    1    5    5    0  501  0.25069325421E+02 -0.93161222198E+01  0.71379341885E+02  0.76369900211E+02  0.47000000000E+01 0.  1.
         13    1    6    6    0    0  0.60992504834E+01 -0.39791722656E+02 -0.97121162161E+01  0.41411438634E+02  0.00000000000E+00 0. -1.
        -14    1    6    6    0    0  0.50518119521E+02  0.23314798236E+02 -0.49447672829E+02  0.74436097191E+02  0.00000000000E+00 0.  1.
</event>
<event>
12    1  0.2614920E-002  0.1953376E+03  0.7818608E-02  0.1153733E+00
         -2   -1    0    0    0  501 -0.00000000000E+00  0.00000000000E+00  0.54717131394E+02  0.54717131394E+02  0.00000000000E+00 0. -1.
          2   -1    0    0  502    0  0.00000000000E+00 -0.00000000000E+00 -0.73053277749E+03  0.73053277749E+03  0.00000000000E+00 0.  1.
          6    2    1    2  502    0 -0.28551382690E+02 -0.80033425016E+02 -0.41433696238E+03  0.45634174555E+03  0.17132466186E+03 0.  0.
         24    2    3    3    0    0 -0.22668173330E+02 -0.85928575238E+01 -0.89097410332E+02  0.12326334179E+03  0.81656718145E+02 0.  0.
         -6    2    1    2    0  501  0.28551382690E+02  0.80033425016E+02 -0.26147868371E+03  0.32890816333E+03  0.18052409063E+03 0.  0.
        -24    2    5    5    0    0  0.24744297869E+02  0.12680401295E+03 -0.20720070132E+03  0.25700426105E+03  0.80171825418E+02 0.  0.
          5    1    3    3  502    0 -0.58832093602E+01 -0.71440567492E+02 -0.32523955204E+03  0.33307840376E+03  0.47000000000E+01 0. -1.
        -13    1    4    4    0    0 -0.51481291708E+02 -0.14220946194E+02 -0.42800625215E+02  0.68443058270E+02  0.00000000000E+00 0.  1.
         14    1    4    4    0    0  0.28813118378E+02  0.56280886706E+01 -0.46296785117E+02  0.54820283518E+02  0.00000000000E+00 0. -1.
         -5    1    5    5    0  501  0.38070848211E+01 -0.46770587939E+02 -0.54277982391E+02  0.71903902283E+02  0.47000000000E+01 0.  1.
         13    1    6    6    0    0 -0.13194663468E+02  0.74753974571E+02 -0.61479523582E+02  0.97683098220E+02  0.00000000000E+00 0. -1.
        -14    1    6    6    0    0  0.37938961337E+02  0.52050038384E+02 -0.14572117774E+03  0.15932116283E+03  0.00000000000E+00 0.  1.
</event>
<event>
12    1  0.2614920E-002  0.1720746E+03  0.7818608E-02  0.1175701E+00
         -1   -1    0    0    0  501 -0.00000000000E+00  0.00000000000E+00  0.78214240412E+02  0.78214240412E+02  0.00000000000E+00 0. -1.
          1   -1    0    0  502    0  0.00000000000E+00 -0.00000000000E+00 -0.39728657322E+03  0.39728657322E+03  0.00000000000E+00 0.  1.
          6    2    1    2  502    0 -0.13563513723E+02  0.28667235888E+01 -0.10707066871E+03  0.20182235009E+03  0.17051670267E+03 0.  0.
         24    2    3    3    0    0  0.10919092497E+02 -0.22011999421E+02 -0.12865856457E+03  0.16051283408E+03  0.92777092901E+02 0.  0.
         -6    2    1    2    0  501  0.13563513723E+02 -0.28667235888E+01 -0.21200166410E+03  0.27367846354E+03  0.17251958966E+03 0.  0.
        -24    2    5    5    0    0 -0.46792989874E+02  0.87784547024E+01 -0.64997618435E+02  0.11427081897E+03  0.81033847857E+02 0.  0.
          5    1    3    3  502    0 -0.24482606220E+02  0.24878723010E+02  0.21587895860E+02  0.41309516017E+02  0.47000000000E+01 0. -1.
        -11    1    4    4    0    0  0.12961509272E+02 -0.57857917787E+02 -0.69976551744E+02  0.91718357853E+02  0.00000000000E+00 0.  1.
         12    1    4    4    0    0 -0.20424167750E+01  0.35845918367E+02 -0.58682012824E+02  0.68794476223E+02  0.00000000000E+00 0. -1.
         -5    1    5    5    0  501  0.60356503596E+02 -0.11645178291E+02 -0.14700404567E+03  0.15940764457E+03  0.47000000000E+01 0.  1.
         11    1    6    6    0    0  0.14617557703E+02  0.16115227011E+02  0.34403250811E+01  0.22027468567E+02  0.00000000000E+00 0. -1.
        -12    1    6    6    0    0 -0.61410547576E+02 -0.73367723087E+01 -0.68437943516E+02  0.92243350407E+02  0.00000000000E+00 0.  1.
</event>
<event>
12    1  0.2614920E-002  0.1841594E+03  0.7818608E-02  0.1163837E+00
         -2   -1    0    0    0  501 -0.00000000000E+00  0.00000000000E+00  0.94626165782E+02  0.94626165782E+02  0.00000000000E+00 0.  1.
          2   -1    0    0  502    0  0.00000000000E+00 -0.00000000000E+00 -0.35950109742E+03  0.35950109742E+03  0.00000000000E+00 0. -1.
          6    2    1    2  502    0  0.13459024454E+02  0.87786735978E+02 -0.12078419213E+03  0.21267612874E+03  0.15084647266E+03 0.  0.
         24    2    3    3    0    0  0.29585895951E+02  0.11517632625E+03 -0.10063643059E+03  0.17475136197E+03  0.79179770011E+02 0.  0.
         -6    2    1    2    0  501 -0.13459024454E+02 -0.87786735978E+02 -0.14409073951E+03  0.24145113446E+03  0.17218842228E+03 0.  0.
        -24    2    5    5    0    0 -0.67236253726E+02 -0.92642000650E+02 -0.92174792146E+02  0.16639835587E+03  0.78031829599E+02 0.  0.
          5    1    3    3  502    0 -0.16126871497E+02 -0.27389590276E+02 -0.20147761537E+02  0.37924766772E+02  0.47000000000E+01 0. -1.
        -11    1    4    4    0    0  0.52433531806E+02  0.63759501218E+02 -0.39009535320E+02  0.91303302783E+02  0.00000000000E+00 0.  1.
         12    1    4    4    0    0 -0.22847635855E+02  0.51416825036E+02 -0.61626895273E+02  0.83448059186E+02  0.00000000000E+00 0. -1.
         -5    1    5    5    0  501  0.53777229272E+02  0.48552646720E+01 -0.51915947360E+02  0.75052778586E+02  0.47000000000E+01 0.  1.
         13    1    6    6    0    0  0.54724061842E+00 -0.45658690813E+01 -0.45703565051E+02  0.45934328025E+02  0.00000000000E+00 0. -1.
        -14    1    6    6    0    0 -0.67783494344E+02 -0.88076131568E+02 -0.46471227095E+02  0.12046402785E+03  0.00000000000E+00 0.  1.
</event>
<event>
12    1  0.2614920E-002  0.1994015E+03  0.7818608E-02  0.1150245E+00
          2   -1    0    0  502    0  0.00000000000E+00  0.00000000000E+00  0.74774195147E+03  0.74774195147E+03  0.00000000000E+00 0. -1.
         -2   -1    0    0    0  501 -0.00000000000E+00 -0.00000000000E+00 -0.53231811004E+02  0.53231811004E+02  0.00000000000E+00 0.  1.
          6    2    1    2  502    0  0.17983747620E+02  0.10325837031E+03  0.33335318617E+03  0.38819823352E+03  0.16907931736E+03 0.  0.
         24    2    3    3    0    0  0.68972795724E+02  0.10064227165E+03  0.27045327318E+03  0.30704888938E+03  0.79043874560E+02 0.  0.
         -6    2    1    2    0  501 -0.17983747620E+02 -0.10325837031E+03  0.36115695429E+03  0.41277552896E+03  0.17018691328E+03 0.  0.
        -24    2    5    5    0    0 -0.73642215500E+02 -0.39984581850E+02  0.21118449473E+03  0.24068466348E+03  0.79424641837E+02 0.  0.
          5    1    3    3  502    0 -0.50989048104E+02  0.26160986509E+01  0.62899912996E+02  0.81149344135E+02  0.47000000000E+01 0. -1.
        -11    1    4    4    0    0  0.31967718608E+02  0.92369255133E+02  0.13687326639E+03  0.16819127617E+03  0.00000000000E+00 0.  1.
         12    1    4    4    0    0  0.37005077116E+02  0.82730165222E+01  0.13358000678E+03  0.13885761321E+03  0.00000000000E+00 0. -1.
         -5    1    5    5    0  501  0.55658467880E+02 -0.63273788456E+02  0.14997245957E+03  0.17209086548E+03  0.47000000000E+01 0.  1.
         13    1    6    6    0    0  0.56733571324E+01 -0.36980478189E+01  0.95818928641E+02  0.96057949305E+02  0.00000000000E+00 0. -1.
        -14    1    6    6    0    0 -0.79315572633E+02 -0.36286534031E+02  0.11536556609E+03  0.14462671417E+03  0.00000000000E+00 0.  1.
</event>
<event>
12    1  0.2614920E-002  0.2002642E+03  0.7818608E-02  0.1149516E+00
         -2   -1    0    0    0  501 -0.00000000000E+00  0.00000000000E+00  0.36657534853E+02  0.36657534853E+02  0.00000000000E+00 0. -1.
          2   -1    0    0  502    0  0.00000000000E+00 -0.00000000000E+00 -0.11857919288E+04  0.11857919288E+04  0.00000000000E+00 0.  1.
          6    2    1    2  502    0 -0.88515260609E+02  0.10163555746E+02 -0.42101128867E+03  0.46879746190E+03  0.18596318418E+03 0.  0.
         24    2    3    3    0    0  0.12715429364E+02 -0.40870302279E+02 -0.15661552389E+03  0.18108351074E+03  0.80191968344E+02 0.  0.
         -6    2    1    2    0  501  0.88515260609E+02 -0.10163555746E+02 -0.72812310528E+03  0.75365200176E+03  0.17288676664E+03 0.  0.
        -24    2    5    5    0    0  0.10640443238E+03  0.26002739088E+02 -0.37094227081E+03  0.39416867549E+03  0.75978489026E+02 0.  0.
          5    1    3    3  502    0 -0.10123068997E+03  0.51033858026E+02 -0.26439576478E+03  0.28771395116E+03  0.47000000000E+01 0. -1.
        -11    1    4    4    0    0  0.94941957787E+01 -0.31491771169E+02 -0.16490838312E+03  0.16815661220E+03  0.00000000000E+00 0.  1.
         12    1    4    4    0    0  0.32212335851E+01 -0.93785311106E+01  0.82928592296E+01  0.12926898538E+02  0.00000000000E+00 0. -1.
         -5    1    5    5    0  501 -0.17889171773E+02 -0.36166294834E+02 -0.35718083447E+03  0.35948332626E+03  0.47000000000E+01 0.  1.
         11    1    6    6    0    0  0.28498069532E+02  0.27612346860E+02 -0.49632061285E+02  0.63544654957E+02  0.00000000000E+00 0. -1.
        -12    1    6    6    0    0  0.77906362851E+02 -0.16096077724E+01 -0.32131020953E+03  0.33062402054E+03  0.00000000000E+00 0.  1.
</event>
<event>
12    1  0.2614920E-002  0.1803513E+03  0.7818608E-02  0.1167463E+00
          1   -1    0    0  502    0  0.00000000000E+00  0.00000000000E+00  0.50671235039E+03  0.50671235039E+03  0.00000000000E+00 0.  1.
         -1   -1    0    0    0  501 -0.00000000000E+00 -0.00000000000E+00 -0.10382501861E+03  0.10382501861E+03  0.00000000000E+00 0. -1.
          6    2    1    2  502    0 -0.39769768047E+02  0.39913845784E+02  0.12692568906E+02  0.18059216850E+03  0.17110721926E+03 0.  0.
         24    2    3    3    0    0 -0.34773074434E+02 -0.25144593764E+02  0.51547915326E+02  0.10450409159E+03  0.80140503383E+02 0.  0.
         -6    2    1    2    0  501  0.39769768047E+02 -0.39913845784E+02  0.39019476288E+03  0.42994520050E+03  0.17154058679E+03 0.  0.
        -24    2    5    5    0    0 -0.17199425583E+01  0.13388638944E+02  0.89308622506E+02  0.12153458065E+03  0.81316728815E+02 0.  0.
          5    1    3    3  502    0 -0.49966936130E+01  0.65058439548E+02 -0.38855346420E+02  0.76088076917E+02  0.47000000000E+01 0. -1.
        -13    1    4    4    0    0  0.12829921657E+02 -0.28564531997E+01  0.50234126258E+02  0.51925269913E+02  0.00000000000E+00 0.  1.
         14    1    4    4    0    0 -0.47602996092E+02 -0.22288140564E+02  0.13137890678E+01  0.52578821672E+02  0.00000000000E+00 0. -1.
         -5    1    5    5    0  501  0.41489710605E+02 -0.53302484728E+02  0.30088614037E+03  0.30841061985E+03  0.47000000000E+01 0.  1.
         11    1    6    6    0    0 -0.24265224019E+02 -0.19903401068E+02  0.10555952059E+02  0.33111547754E+02  0.00000000000E+00 0. -1.
        -12    1    6    6    0    0  0.22545281461E+02  0.33292040012E+02  0.78752670447E+02  0.88423032898E+02  0.00000000000E+00 0.  1.
</event>
<event>
12    1  0.2614920E-002  0.2277272E+03  0.7818608E-02  0.1128250E+00
          2   -1    0    0  502    0  0.00000000000E+00  0.00000000000E+00  0.11644481305E+04  0.11644481305E+04  0.00000000000E+00 0. -1.
         -2   -1    0    0    0  501 -0.00000000000E+00 -0.00000000000E+00 -0.44624563583E+02  0.44624563583E+02  0.00000000000E+00 0.  1.
          6    2    1    2  502    0 -0.13816947207E+03  0.42019546148E+02  0.53518659822E+03  0.58196364912E+03  0.17720199975E+03 0.  0.
         24    2    3    3    0    0 -0.10625140364E+03  0.94622024812E+02  0.42887236043E+03  0.45903850519E+03  0.80883616086E+02 0.  0.
         -6    2    1    2    0  501  0.13816947207E+03 -0.42019546148E+02  0.58463696868E+03  0.62710904494E+03  0.17495406206E+03 0.  0.
        -24    2    5    5    0    0  0.10562216710E+03 -0.93461091662E+02  0.47155707682E+03  0.49859946705E+03  0.79651327737E+02 0.  0.
          5    1    3    3  502    0 -0.31918068433E+02 -0.52602478664E+02  0.10631423779E+03  0.12292514393E+03  0.47000000000E+01 0. -1.
        -11    1    4    4    0    0 -0.40589605453E+02  0.45608115266E+02  0.79792981676E+02  0.10047156898E+03  0.00000000000E+00 0.  1.
         12    1    4    4    0    0 -0.65661798187E+02  0.49013909545E+02  0.34907937875E+03  0.35856693621E+03  0.00000000000E+00 0. -1.
         -5    1    5    5    0  501  0.32547304974E+02  0.51441545515E+02  0.11307989186E+03  0.12850957789E+03  0.47000000000E+01 0.  1.
         13    1    6    6    0    0  0.31797422558E+02 -0.95956188285E+01  0.23082933532E+03  0.23320663375E+03  0.00000000000E+00 0. -1.
        -14    1    6    6    0    0  0.73824744541E+02 -0.83865472834E+02  0.24072774150E+03  0.26539283330E+03  0.00000000000E+00 0.  1.
</event>
<event>
12    1  0.2614920E-002  0.1734159E+03  0.7818608E-02  0.1174332E+00
         -2   -1    0    0    0  501 -0.00000000000E+00  0.00000000000E+00  0.21307852057E+02  0.21307852057E+02  0.00000000000E+00 0. -1.
          2   -1    0    0  502    0  0.00000000000E+00 -0.00000000000E+00 -0.15465268425E+04  0.15465268425E+04  0.00000000000E+00 0.  1.
          6    2    1    2  502    0 -0.17308381791E+02 -0.93491448933E+01 -0.52669118957E+03  0.55417932851E+03  0.17124290465E+03 0.  0.
         24    2    3    3    0    0  0.28010538160E+02  0.42799406738E+02 -0.22712367137E+03  0.24671215319E+03  0.81641563979E+02 0.  0.
         -6    2    1    2    0  501  0.17308381791E+02  0.93491448933E+01 -0.99852780083E+03  0.10136553660E+04  0.17335641148E+03 0.  0.
        -24    2    5    5    0    0  0.24464712891E+02 -0.57251088996E+02 -0.47548525236E+03  0.48632017683E+03  0.80900431463E+02 0.  0.
          5    1    3    3  502    0 -0.45318919952E+02 -0.52148551631E+02 -0.29956751820E+03  0.30746717532E+03  0.47000000000E+01 0. -1.
        -13    1    4    4    0    0  0.38678788481E+02  0.43925563581E+02 -0.22851835584E+03  0.23589434663E+03  0.00000000000E+00 0.  1.
         14    1    4    4    0    0 -0.10668250321E+02 -0.11261568431E+01  0.13946844657E+01  0.10817806566E+02  0.00000000000E+00 0. -1.
         -5    1    5    5    0  501 -0.71563310997E+01  0.66600233890E+02 -0.52304254847E+03  0.52733518917E+03  0.47000000000E+01 0.  1.
         11    1    6    6    0    0  0.27818989195E+02 -0.19508016181E+02 -0.58764363722E+02  0.67880109743E+02  0.00000000000E+00 0. -1.
        -12    1    6    6    0    0 -0.33542763037E+01 -0.37743072816E+02 -0.41672088864E+03  0.41844006709E+03  0.00000000000E+00 0.  1.
</event>
<event>
12    1  0.2614920E-002  0.3199412E+03  0.7818608E-02  0.1075676E+00
          1   -1    0    0  502    0  0.00000000000E+00  0.00000000000E+00  0.20633855818E+04  0.20633855818E+04  0.00000000000E+00 0.  1.
         -1   -1    0    0    0  501 -0.00000000000E+00 -0.00000000000E+00 -0.82502222995E+02  0.82502222995E+02  0.00000000000E+00 0. -1.
          6    2    1    2  502    0  0.18736534199E+03 -0.19491877587E+03  0.31304314279E+03  0.44764618300E+03  0.17114904424E+03 0.  0.
         24    2    3    3    0    0  0.26526454258E+02 -0.95968452758E+02  0.94129511640E+02  0.15849988413E+03  0.79675916102E+02 0.  0.
         -6    2    1    2    0  501 -0.18736534199E+03  0.19491877587E+03  0.16678402160E+04  0.16982416218E+04  0.17098104938E+03 0.  0.
        -24    2    5    5    0    0 -0.11311039166E+03  0.10797056366E+03  0.62636215005E+03  0.65049525880E+03  0.79768009844E+02 0.  0.
          5    1    3    3  502    0  0.16083888773E+03 -0.98950323117E+02  0.21891363115E+03  0.28914629888E+03  0.47000000000E+01 0. -1.
        -13    1    4    4    0    0 -0.25490411083E+01  0.30684157027E+01 -0.10678888120E+02  0.11399624422E+02  0.00000000000E+00 0.  1.
         14    1    4    4    0    0  0.29075495366E+02 -0.99036868460E+02  0.10480839976E+03  0.14710025971E+03  0.00000000000E+00 0. -1.
         -5    1    5    5    0  501 -0.74254950332E+02  0.86948212211E+02  0.10414780659E+04  0.10477463629E+04  0.47000000000E+01 0.  1.
         13    1    6    6    0    0 -0.29006201915E+02 -0.80335686868E+01  0.74866419036E+02  0.80690015954E+02  0.00000000000E+00 0. -1.
        -14    1    6    6    0    0 -0.84104189744E+02  0.11600413235E+03  0.55149573101E+03  0.56980524285E+03  0.00000000000E+00 0.  1.
</event>
<event>
12    1  0.2614920E-002  0.2746540E+03  0.7818608E-02  0.1098645E+00
         -1   -1    0    0    0  501 -0.00000000000E+00  0.00000000000E+00  0.74623307938E+03  0.74623307938E+03  0.00000000000E+00 0.  1.
          1   -1    0    0  502    0  0.00000000000E+00 -0.00000000000E+00 -0.10215422193E+03  0.10215422193E+03  0.00000000000E+00 0. -1.
          6    2    1    2  502    0 -0.16291430666E+03 -0.13836382637E+03  0.27850360181E+03  0.39103634314E+03  0.17221946949E+03 0.  0.
         24    2    3    3    0    0 -0.12612439356E+03 -0.10517200555E+03  0.10953253707E+03  0.21488724325E+03  0.84915471083E+02 0.  0.
         -6    2    1    2    0  501  0.16291430666E+03  0.13836382637E+03  0.36557525564E+03  0.45735095817E+03  0.17273972224E+03 0.  0.
        -24    2    5    5    0    0  0.12749799711E+03  0.79598791483E+02  0.13926223624E+03  0.22081910607E+03  0.82312819727E+02 0.  0.
          5    1    3    3  502    0 -0.36789913103E+02 -0.33191820819E+02  0.16897106474E+03  0.17614909990E+03  0.47000000000E+01 0. -1.
        -13    1    4    4    0    0 -0.54179684963E+02 -0.66526756671E+02  0.10138282844E+03  0.13281462840E+03  0.00000000000E+00 0.  1.
         14    1    4    4    0    0 -0.71944708597E+02 -0.38645248882E+02  0.81497086356E+01  0.82072614842E+02  0.00000000000E+00 0. -1.
         -5    1    5    5    0  501  0.35416309556E+02  0.58765034888E+02  0.22631301940E+03  0.23653185210E+03  0.47000000000E+01 0.  1.
         11    1    6    6    0    0  0.52822993613E+02  0.25627358195E+02  0.62934527008E+01  0.59047757699E+02  0.00000000000E+00 0. -1.
        -12    1    6    6    0    0  0.74675003493E+02  0.53971433288E+02  0.13296878354E+03  0.16177134837E+03  0.00000000000E+00 0.  1.
</event>
<event>
12    1  0.2614920E-002  0.1761328E+03  0.7818608E-02  0.1171599E+00
          2   -1    0    0  502    0  0.00000000000E+00  0.00000000000E+00  0.66652413104E+03  0.66652413104E+03  0.00000000000E+00 0.  1.
         -2   -1    0    0    0  501 -0.00000000000E+00 -0.00000000000E+00 -0.50470129149E+02  0.50470129149E+02  0.00000000000E+00 0. -1.
          6    2    1    2  502    0  0.50415253236E+02  0.17068973537E+02  0.21419474838E+03  0.27966645664E+03  0.17175822868E+03 0.  0.
         24    2    3    3    0    0  0.10282070919E+02 -0.13095638289E+02  0.21368416372E+03  0.22923901543E+03  0.81316589000E+02 0.  0.
         -6    2    1    2    0  501 -0.50415253236E+02 -0.17068973537E+02  0.40185925351E+03  0.43732780355E+03  0.16410880692E+03 0.  0.
        -24    2    5    5    0    0  0.91943623092E+01 -0.39428517349E+02  0.32529485709E+03  0.33764103279E+03  0.80904750772E+02 0.  0.
          5    1    3    3  502    0  0.40133182317E+02  0.30164611826E+02  0.51058465254E+00  0.50427441201E+02  0.47000000000E+01 0. -1.
        -13    1    4    4    0    0 -0.41836626372E+01  0.13273510591E+02  0.19115358391E+03  0.19165954648E+03  0.00000000000E+00 0.  1.
         14    1    4    4    0    0  0.14465733556E+02 -0.26369148880E+02  0.22530579815E+02  0.37579468953E+02  0.00000000000E+00 0. -1.
         -5    1    5    5    0  501 -0.59609615545E+02  0.22359543813E+02  0.76564396428E+02  0.99686770764E+02  0.47000000000E+01 0.  1.
         11    1    6    6    0    0  0.16185114231E+02  0.11973171291E+02  0.21521267659E+02  0.29469979896E+02  0.00000000000E+00 0. -1.
        -12    1    6    6    0    0 -0.69907519217E+01 -0.51401688641E+02  0.30377358943E+03  0.30817105289E+03  0.00000000000E+00 0.  1.
</event>
<event>
12    1  0.2614920E-002  0.1715659E+03  0.7818608E-02  0.1176225E+00
         -2   -1    0    0    0  501 -0.00000000000E+00  0.00000000000E+00  0.10176636208E+03  0.10176636208E+03  0.00000000000E+00 0.  1.
          2   -1    0    0  502    0  0.00000000000E+00 -0.00000000000E+00 -0.30554156609E+03  0.30554156609E+03  0.00000000000E+00 0. -1.
          6    2    1    2  502    0 -0.24093262494E+00  0.35521562391E+01 -0.55086769093E+02  0.18059607176E+03  0.17195264797E+03 0.  0.
         24    2    3    3    0    0 -0.32764656561E+02 -0.45161461325E+02 -0.68591776800E+02  0.12030275217E+03  0.81577202856E+02 0.  0.
         -6    2    1    2    0  501  0.24093262494E+00 -0.35521562391E+01 -0.14868843491E+03  0.22671185640E+03  0.17110622226E+03 0.  0.
        -24    2    5    5    0    0 -0.58735518975E+02 -0.28119344747E+02 -0.12973238371E+03  0.15990474247E+03  0.67070683195E+02 0.  0.
          5    1    3    3  502    0  0.32523723936E+02  0.48713617564E+02  0.13505007707E+02  0.60293319596E+02  0.47000000000E+01 0. -1.
        -13    1    4    4    0    0 -0.55899032301E+02 -0.48813451776E+02 -0.43691463735E+02  0.86118516533E+02  0.00000000000E+00 0.  1.
         14    1    4    4    0    0  0.23134375741E+02  0.36519904515E+01 -0.24900313064E+02  0.34184235634E+02  0.00000000000E+00 0. -1.
         -5    1    5    5    0  501  0.58976451600E+02  0.24567188508E+02 -0.18956051202E+02  0.66807113930E+02  0.47000000000E+01 0.  1.
         11    1    6    6    0    0  0.99959835887E+01 -0.55964722346E+00 -0.50389016370E+02  0.51373980415E+02  0.00000000000E+00 0. -1.
        -12    1    6    6    0    0 -0.68731502564E+02 -0.27559697523E+02 -0.79343367339E+02  0.10853076206E+03  0.00000000000E+00 0.  1.
</event>
<event>
12    1  0.2614920E-002  0.1836974E+03  0.7818608E-02  0.1164272E+00
          4   -1    0    0  502    0  0.00000000000E+00  0.00000000000E+00  0.10215685481E+03  0.10215685481E+03  0.00000000000E+00 0.  1.
         -4   -1    0    0    0  501 -0.00000000000E+00 -0.00000000000E+00 -0.34257179500E+03  0.34257179500E+03  0.00000000000E+00 0. -1.
          6    2    1    2  502    0 -0.36396480138E+02  0.89926835598E+01 -0.74018700620E+02  0.19024813107E+03  0.17120166825E+03 0.  0.
         24    2    3    3    0    0  0.26634775755E+02 -0.40460880800E+02 -0.27218818397E+02  0.97345422696E+02  0.79929801016E+02 0.  0.
         -6    2    1    2    0  501  0.36396480138E+02 -0.89926835598E+01 -0.16639623956E+03  0.25448051874E+03  0.18885723114E+03 0.  0.
        -24    2    5    5    0    0  0.84336591052E+02 -0.80913067808E+01 -0.48253120789E+02  0.12689151754E+03  0.81209381978E+02 0.  0.
          5    1    3    3  502    0 -0.63031255893E+02  0.49453564359E+02 -0.46799882222E+02  0.92902708374E+02  0.47000000000E+01 0. -1.
        -11    1    4    4    0    0 -0.32157662288E+01  0.58732828011E+01  0.22279778916E+02  0.23264246212E+02  0.00000000000E+00 0.  1.
         12    1    4    4    0    0  0.29850541984E+02 -0.46334163601E+02 -0.49498597313E+02  0.74081176484E+02  0.00000000000E+00 0. -1.
         -5    1    5    5    0  501 -0.47940110914E+02 -0.90137677898E+00 -0.11814311877E+03  0.12758900120E+03  0.47000000000E+01 0.  1.
         13    1    6    6    0    0  0.41435141895E+02 -0.97222465916E+01 -0.67535611066E+02  0.79827638226E+02  0.00000000000E+00 0. -1.
        -14    1    6    6    0    0  0.42901449157E+02  0.16309398108E+01  0.19282490278E+02  0.47063879311E+02  0.00000000000E+00 0.  1.
</event>
<event>
12    1  0.2614920E-002  0.1762965E+03  0.7818608E-02  0.1171436E+00
          2   -1    0    0  502    0  0.00000000000E+00  0.00000000000E+00  0.10548978194E+04  0.10548978194E+04  0.00000000000E+00 0.  1.
         -2   -1    0    0    0  501 -0.00000000000E+00 -0.00000000000E+00 -0.31049844581E+02  0.31049844581E+02  0.00000000000E+00 0. -1.
          6    2    1    2  502    0  0.93832931556E+01 -0.23150067169E+02  0.63543916888E+03  0.65951645781E+03  0.17480002568E+03 0.  0.
         24    2    3    3    0    0  0.31113918637E+02 -0.77635622966E+02  0.45964199448E+03  0.47413136563E+03  0.80835777376E+02 0.  0.
         -6    2    1    2    0  501 -0.93832931556E+01  0.23150067169E+02  0.38840880597E+03  0.42643120620E+03  0.17423605042E+03 0.  0.
        -24    2    5    5    0    0  0.59318519865E+02  0.29626415170E+02  0.25945139376E+03  0.28009602123E+03  0.82111778152E+02 0.  0.
          5    1    3    3  502    0 -0.21730625481E+02  0.54485555797E+02  0.17579717441E+03  0.18538509218E+03  0.47000000000E+01 0. -1.
        -13    1    4    4    0    0  0.64995458192E+01 -0.25982373228E+02  0.34466272811E+03  0.34570178473E+03  0.00000000000E+00 0.  1.
         14    1    4    4    0    0  0.24614372817E+02 -0.51653249737E+02  0.11497926636E+03  0.12842958090E+03  0.00000000000E+00 0. -1.
         -5    1    5    5    0  501 -0.68701813020E+02 -0.64763480009E+01  0.12895741221E+03  0.14633518497E+03  0.47000000000E+01 0.  1.
         11    1    6    6    0    0  0.50192645502E+02  0.50726995763E+02  0.12710419404E+03  0.14576695751E+03  0.00000000000E+00 0. -1.
        -12    1    6    6    0    0  0.91258743626E+01 -0.21100580593E+02  0.13234719973E+03  0.13432906372E+03  0.00000000000E+00 0.  1.
</event>
<event>
12    1  0.2614920E-002  0.1776687E+03  0.7818608E-02  0.1170079E+00
          3   -1    0    0  502    0  0.00000000000E+00  0.00000000000E+00  0.13527447453E+03  0.13527447453E+03  0.00000000000E+00 0.  1.
         -3   -1    0    0    0  501 -0.00000000000E+00 -0.00000000000E+00 -0.23493647220E+03  0.23493647220E+03  0.00000000000E+00 0. -1.
          6    2    1    2  502    0 -0.28670064860E+02  0.32750674220E+02 -0.64802875291E+02  0.18837261688E+03  0.17143585058E+03 0.  0.
         24    2    3    3    0    0  0.36539038448E+02  0.38861280145E+01  0.32145140223E+01  0.89712369408E+02  0.81778804117E+02 0.  0.
         -6    2    1    2    0  501  0.28670064860E+02 -0.32750674220E+02 -0.34859122379E+02  0.18183832985E+03  0.17307640078E+03 0.  0.
        -24    2    5    5    0    0  0.61496507225E+02 -0.17503320896E+02 -0.75952927237E+02  0.12687608918E+03  0.78996887322E+02 0.  0.
          5    1    3    3  502    0 -0.65209103308E+02  0.28864546205E+02 -0.68017389313E+02  0.98660247470E+02  0.47000000000E+01 0. -1.
        -13    1    4    4    0    0 -0.19469405090E+02 -0.92913262212E+01 -0.18294656604E+02  0.28285702002E+02  0.00000000000E+00 0.  1.
         14    1    4    4    0    0  0.56008443537E+02  0.13177454236E+02  0.21509170626E+02  0.61426667406E+02  0.00000000000E+00 0. -1.
         -5    1    5    5    0  501 -0.32826442365E+02 -0.15247353324E+02  0.41093804858E+02  0.54962240669E+02  0.47000000000E+01 0.  1.
         13    1    6    6    0    0 -0.14822230468E+02  0.61202269426E+00 -0.35810811370E+02  0.38761931051E+02  0.00000000000E+00 0. -1.
        -14    1    6    6    0    0  0.76318737693E+02 -0.18115343590E+02 -0.40142115867E+02  0.88114158129E+02  0.00000000000E+00 0.  1.
</event>
<event>
12    1  0.2614920E-002  0.1899416E+03  0.7818608E-02  0.1158514E+00
         -2   -1    0    0    0  501 -0.00000000000E+00  0.00000000000E+00  0.25319618232E+02  0.25319618232E+02  0.00000000000E+00 0. -1.
          2   -1    0    0  502    0  0.00000000000E+00 -0.00000000000E+00 -0.14534138406E+04  0.14534138406E+04  0.00000000000E+00 0.  1.
          6    2    1    2  502    0  0.71307223592E+02  0.27814748302E+02 -0.60606656017E+03  0.63476869303E+03  0.17249996503E+03 0.  0.
         24    2    3    3    0    0  0.75141846756E+02 -0.15728924471E+02 -0.56390172561E+03  0.57385302143E+03  0.73677933309E+02 0.  0.
         -6    2    1    2    0  501 -0.71307223592E+02 -0.27814748302E+02 -0.82202766221E+03  0.84396476581E+03  0.17518181452E+03 0.  0.
        -24    2    5    5    0    0  0.21225846061E+02 -0.55213504995E+01 -0.24637916539E+03  0.26048156429E+03  0.81651272777E+02 0.  0.
          5    1    3    3  502    0 -0.38346231641E+01  0.43543672772E+02 -0.42164834557E+02  0.60915671601E+02  0.47000000000E+01 0. -1.
        -11    1    4    4    0    0  0.61311193278E+02  0.80858765895E+01 -0.50566916606E+03  0.50943669805E+03  0.00000000000E+00 0.  1.
         12    1    4    4    0    0  0.13830653478E+02 -0.23814801060E+02 -0.58232559558E+02  0.64416323380E+02  0.00000000000E+00 0. -1.
         -5    1    5    5    0  501 -0.92533069653E+02 -0.22293397802E+02 -0.57564849682E+03  0.58348320152E+03  0.47000000000E+01 0.  1.
         13    1    6    6    0    0  0.98743673312E+01  0.30969449819E+02 -0.45022484835E+02  0.55530478955E+02  0.00000000000E+00 0. -1.
        -14    1    6    6    0    0  0.11351478730E+02 -0.36490800318E+02 -0.20135668055E+03  0.20495108534E+03  0.00000000000E+00 0.  1.
</event>
<event>
12    1  0.2614920E-002  0.1701321E+03  0.7818608E-02  0.1177710E+00
          2   -1    0    0  502    0  0.00000000000E+00  0.00000000000E+00  0.26775678100E+04  0.26775678100E+04  0.00000000000E+00 0. -1.
         -2   -1    0    0    0  501 -0.00000000000E+00 -0.00000000000E+00 -0.29221032258E+02  0.29221032258E+02  0.00000000000E+00 0.  1.
          6    2    1    2  502    0 -0.11012432572E+02  0.41884990846E+01  0.24061334150E+04  0.24123353439E+04  0.17246734106E+03 0.  0.
         24    2    3    3    0    0 -0.51350839491E+02  0.24438867598E+02  0.21471294240E+04  0.21493858776E+04  0.80378607261E+02 0.  0.
         -6    2    1    2    0  501  0.11012432572E+02 -0.41884990846E+01  0.24221336272E+03  0.29445349828E+03  0.16702314921E+03 0.  0.
        -24    2    5    5    0    0 -0.32426665315E+02 -0.27531808749E+02  0.22322442145E+03  0.24140130490E+03  0.81461393074E+02 0.  0.
          5    1    3    3  502    0  0.40338406919E+02 -0.20250368513E+02  0.25900399101E+03  0.26294946635E+03  0.47000000000E+01 0. -1.
        -11    1    4    4    0    0 -0.64783590846E+01 -0.26990263041E+02  0.86029805888E+03  0.86074571944E+03  0.00000000000E+00 0.  1.
         12    1    4    4    0    0 -0.44872480406E+02  0.51429130638E+02  0.12868313651E+04  0.12886401581E+04  0.00000000000E+00 0. -1.
         -5    1    5    5    0  501  0.43439097887E+02  0.23343309664E+02  0.18988941272E+02  0.53052193375E+02  0.47000000000E+01 0.  1.
         13    1    6    6    0    0 -0.11740039307E+02  0.20728695197E+02  0.18816875874E+02  0.30357571463E+02  0.00000000000E+00 0. -1.
        -14    1    6    6    0    0 -0.20686626008E+02 -0.48260503945E+02  0.20440754558E+03  0.21104373344E+03  0.00000000000E+00 0.  1.
</event>
<event>
12    1  0.2614920E-002  0.3713316E+03  0.7818608E-02  0.1054185E+00
         -2   -1    0    0    0  501 -0.00000000000E+00  0.00000000000E+00  0.45762104051E+03  0.45762104051E+03  0.00000000000E+00 0. -1.
          2   -1    0    0  502    0  0.00000000000E+00 -0.00000000000E+00 -0.33025704593E+03  0.33025704593E+03  0.00000000000E+00 0.  1.
          6    2    1    2  502    0  0.32569980065E+03 -0.46373923888E+02 -0.52898351539E+02  0.37534565902E+03  0.17278665223E+03 0.  0.
         24    2    3    3    0    0  0.27973147759E+03 -0.73668716657E+02  0.34066493846E+00  0.29975084893E+03  0.78572743439E+02 0.  0.
         -6    2    1    2    0  501 -0.32569980065E+03  0.46373923888E+02  0.18026234611E+03  0.41253242742E+03  0.17163213360E+03 0.  0.
        -24    2    5    5    0    0 -0.17797328249E+03  0.21296150921E+02  0.17452840406E+03  0.26250913937E+03  0.79516470656E+02 0.  0.
          5    1    3    3  502    0  0.45968323062E+02  0.27294792770E+02 -0.53239016477E+02  0.75594810093E+02  0.47000000000E+01 0. -1.
        -11    1    4    4    0    0  0.12821598416E+03 -0.15236863805E+02 -0.34532826110E+02  0.13365633802E+03  0.00000000000E+00 0.  1.
         12    1    4    4    0    0  0.15151549343E+03 -0.58431852852E+02  0.34873491048E+02  0.16609451091E+03  0.00000000000E+00 0. -1.
         -5    1    5    5    0  501 -0.14772651816E+03  0.25077772966E+02  0.57339420572E+01  0.15002328805E+03  0.47000000000E+01 0.  1.
         11    1    6    6    0    0 -0.29691983930E+02  0.85259042604E+01  0.81099500790E+02  0.86783834794E+02  0.00000000000E+00 0. -1.
        -12    1    6    6    0    0 -0.14828129856E+03  0.12770246661E+02  0.93428903265E+02  0.17572530457E+03  0.00000000000E+00 0.  1.
</event>
<event>
12    1  0.2614920E-002  0.1751018E+03  0.7818608E-02  0.1172629E+00
          2   -1    0    0  502    0  0.00000000000E+00  0.00000000000E+00  0.11277904658E+04  0.11277904658E+04  0.00000000000E+00 0.  1.
         -2   -1    0    0    0  501 -0.00000000000E+00 -0.00000000000E+00 -0.27508573218E+02  0.27508573218E+02  0.00000000000E+00 0. -1.
          6    2    1    2  502    0 -0.61815155438E+01 -0.34370096031E+02  0.61030575196E+03  0.63472530606E+03  0.17083204805E+03 0.  0.
         24    2    3    3    0    0 -0.54682437216E+02 -0.49071772714E+02  0.51794182467E+03  0.52926600697E+03  0.80377637267E+02 0.  0.
         -6    2    1    2    0  501  0.61815155438E+01  0.34370096031E+02  0.48997614063E+03  0.52057373297E+03  0.17233942797E+03 0.  0.
        -24    2    5    5    0    0 -0.17430257233E+01  0.64866195305E+02  0.47379927910E+03  0.48484431548E+03  0.79859826841E+02 0.  0.
          5    1    3    3  502    0  0.48500921672E+02  0.14701676682E+02  0.92363927291E+02  0.10545929909E+03  0.47000000000E+01 0. -1.
        -11    1    4    4    0    0 -0.56205709010E+01 -0.49467257859E+02  0.37156034730E+03  0.37488090389E+03  0.00000000000E+00 0.  1.
         12    1    4    4    0    0 -0.49061866315E+02  0.39548514510E+00  0.14638147737E+03  0.15438510308E+03  0.00000000000E+00 0. -1.
         -5    1    5    5    0  501  0.79245412671E+01 -0.30496099274E+02  0.16176861532E+02  0.35729417491E+02  0.47000000000E+01 0.  1.
         11    1    6    6    0    0  0.19707266912E+01 -0.18794122082E+02  0.10134143849E+03  0.10308826289E+03  0.00000000000E+00 0. -1.
        -12    1    6    6    0    0 -0.37137524145E+01  0.83660317388E+02  0.37245784061E+03  0.38175605260E+03  0.00000000000E+00 0.  1.
</event>
<event>
12    1  0.2614920E-002  0.1911357E+03  0.7818608E-02  0.1157441E+00
         -2   -1    0    0    0  501 -0.00000000000E+00  0.00000000000E+00  0.18090062212E+03  0.18090062212E+03  0.00000000000E+00 0. -1.
          2   -1    0    0  502    0  0.00000000000E+00 -0.00000000000E+00 -0.20460835196E+03  0.20460835196E+03  0.00000000000E+00 0.  1.
          6    2    1    2  502    0 -0.43522403804E+02 -0.73311849451E+02 -0.33733481536E+02  0.19304246538E+03  0.16987824687E+03 0.  0.
         24    2    3    3    0    0 -0.57426439568E+02 -0.10974567777E+03 -0.13755064869E+02  0.14897464050E+03  0.81623109176E+02 0.  0.
         -6    2    1    2    0  501  0.43522403804E+02  0.73311849451E+02  0.10025751699E+02  0.19246650870E+03  0.17226147094E+03 0.  0.
        -24    2    5    5    0    0  0.12149384571E+02 -0.65279681974E+00  0.58565609624E+02  0.98481174519E+02  0.78234119250E+02 0.  0.
          5    1    3    3  502    0  0.13904035764E+02  0.36433828321E+02 -0.19978416668E+02  0.44067824875E+02  0.47000000000E+01 0. -1.
        -13    1    4    4    0    0  0.20017671736E+02 -0.15280627772E+02 -0.89538246525E+01  0.26727808416E+02  0.00000000000E+00 0.  1.
         14    1    4    4    0    0 -0.77444111304E+02 -0.94465050000E+02 -0.48012402162E+01  0.12224683208E+03  0.00000000000E+00 0. -1.
         -5    1    5    5    0  501  0.31373019233E+02  0.73964646271E+02 -0.48539857925E+02  0.93985334181E+02  0.47000000000E+01 0.  1.
         13    1    6    6    0    0  0.32182481126E+02 -0.55755059337E+01  0.68272007155E+02  0.75682661944E+02  0.00000000000E+00 0. -1.
        -14    1    6    6    0    0 -0.20033096555E+02  0.49227091140E+01 -0.97063975317E+01  0.22798512575E+02  0.00000000000E+00 0.  1.
</event>
<event>
12    1  0.2614920E-002  0.1997708E+03  0.7818608E-02  0.1149933E+00
          2   -1    0    0  502    0  0.00000000000E+00  0.00000000000E+00  0.17214405175E+04  0.17214405175E+04  0.00000000000E+00 0.  1.
         -2   -1    0    0    0  501 -0.00000000000E+00 -0.00000000000E+00 -0.25066184807E+02  0.25066184807E+02  0.00000000000E+00 0. -1.
          6    2    1    2  502    0  0.25249647567E+01 -0.10154317791E+03  0.10864047642E+04  0.11045674468E+04  0.17168733329E+03 0.  0.
         24    2    3    3    0    0  0.31683492699E+02 -0.11899662621E+03  0.10126514574E+04  0.10232256809E+04  0.79773298743E+02 0.  0.
         -6    2    1    2    0  501 -0.25249647567E+01  0.10154317791E+03  0.60996956855E+03  0.64193925557E+03  0.17235353450E+03 0.  0.
        -24    2    5    5    0    0  0.57591255756E+02  0.27769774913E+02  0.35934386116E+03  0.37381277392E+03  0.80746927193E+02 0.  0.
          5    1    3    3  502    0 -0.29158527942E+02  0.17453448298E+02  0.73753306823E+02  0.81341765881E+02  0.47000000000E+01 0. -1.
        -13    1    4    4    0    0 -0.82446608106E+01  0.89978630557E+01  0.10911385176E+03  0.10979421031E+03  0.00000000000E+00 0.  1.
         14    1    4    4    0    0  0.39928153510E+02 -0.12799448927E+03  0.90353760561E+03  0.91343147059E+03  0.00000000000E+00 0. -1.
         -5    1    5    5    0  501 -0.60116220513E+02  0.73773403001E+02  0.25062570738E+03  0.26812648165E+03  0.47000000000E+01 0.  1.
         11    1    6    6    0    0  0.63172742853E+02  0.36504723547E+02  0.18077870849E+03  0.19494699722E+03  0.00000000000E+00 0. -1.
        -12    1    6    6    0    0 -0.55814870974E+01 -0.87349486345E+01  0.17856515267E+03  0.17886577670E+03  0.00000000000E+00 0.  1.
</event>
<event>
12    1  0.2614920E-002  0.2264480E+03  0.7818608E-02  0.1129165E+00
          2   -1    0    0  502    0  0.00000000000E+00  0.00000000000E+00  0.18244505796E+04  0.18244505796E+04  0.00000000000E+00 0.  1.
         -2   -1    0    0    0  501 -0.00000000000E+00 -0.00000000000E+00 -0.29919525904E+02  0.29919525904E+02  0.00000000000E+00 0. -1.
          6    2    1    2  502    0 -0.56802942294E+02 -0.13598594443E+03  0.11247965288E+04  0.11473268939E+04  0.17167707760E+03 0.  0.
         24    2    3    3    0    0  0.27687850403E+02 -0.68065890984E+02  0.56019107830E+03  0.57238930387E+03  0.91738151322E+02 0.  0.
         -6    2    1    2    0  501  0.56802942294E+02  0.13598594443E+03  0.66973452487E+03  0.70704321155E+03  0.17218309404E+03 0.  0.
        -24    2    5    5    0    0  0.97133885080E+02  0.11735111830E+03  0.59994743539E+03  0.62418085853E+03  0.80365056650E+02 0.  0.
          5    1    3    3  502    0 -0.84490792697E+02 -0.67920053444E+02  0.56460545049E+03  0.57493759003E+03  0.47000000000E+01 0. -1.
        -13    1    4    4    0    0 -0.15465807702E+02 -0.17038558654E+02  0.37152762477E+03  0.37223954607E+03  0.00000000000E+00 0.  1.
         14    1    4    4    0    0  0.43153658105E+02 -0.51027332331E+02  0.18866345353E+03  0.20014975780E+03  0.00000000000E+00 0. -1.
         -5    1    5    5    0  501 -0.40330942787E+02  0.18634826129E+02  0.69787089479E+02  0.82862353025E+02  0.47000000000E+01 0.  1.
         11    1    6    6    0    0  0.50818202232E+02  0.11000402369E+03  0.48776382133E+03  0.50259021111E+03  0.00000000000E+00 0. -1.
        -12    1    6    6    0    0  0.46315682848E+02  0.73470946104E+01  0.11218361406E+03  0.12159064742E+03  0.00000000000E+00 0.  1.
</event>
<event>
12    1  0.2614920E-002  0.1800610E+03  0.7818608E-02  0.1167744E+00
         -2   -1    0    0    0  501 -0.00000000000E+00  0.00000000000E+00  0.22505542363E+02  0.22505542363E+02  0.00000000000E+00 0.  1.
          2   -1    0    0  502    0  0.00000000000E+00 -0.00000000000E+00 -0.18021221387E+04  0.18021221387E+04  0.00000000000E+00 0. -1.
          6    2    1    2  502    0  0.64305231829E+02 -0.24865838030E+02 -0.12774241105E+04  0.12893582765E+04  0.16086930854E+03 0.  0.
         24    2    3    3    0    0  0.30829755808E+02 -0.44639634747E+02 -0.11885083047E+04  0.11922000496E+04  0.76457813186E+02 0.  0.
         -6    2    1    2    0  501 -0.64305231829E+02  0.24865838030E+02 -0.50219248578E+03  0.53526940448E+03  0.17193769177E+03 0.  0.
        -24    2    5    5    0    0 -0.10075920510E+03  0.35257648034E+02 -0.45707781331E+03  0.47615675309E+03  0.80060020806E+02 0.  0.
          5    1    3    3  502    0  0.33475476022E+02  0.19773796717E+02 -0.88915805858E+02  0.97158226944E+02  0.47000000000E+01 0. -1.
        -13    1    4    4    0    0  0.29244066579E+02 -0.41878175892E+02 -0.35209383791E+03  0.35577952125E+03  0.00000000000E+00 0.  1.
         14    1    4    4    0    0  0.15856892290E+01 -0.27614588555E+01 -0.83641446674E+03  0.83642052834E+03  0.00000000000E+00 0. -1.
         -5    1    5    5    0  501  0.36453973270E+02 -0.10391810004E+02 -0.45114672468E+02  0.59112651389E+02  0.47000000000E+01 0.  1.
         11    1    6    6    0    0 -0.19285195623E+01 -0.20043631330E+02 -0.64501920468E+02  0.67571917900E+02  0.00000000000E+00 0. -1.
        -12    1    6    6    0    0 -0.98830685537E+02  0.55301279364E+02 -0.39257589284E+03  0.40858483519E+03  0.00000000000E+00 0.  1.
</event>
<event>
12    1  0.2614920E-002  0.1849450E+03  0.7818608E-02  0.1163101E+00
         -2   -1    0    0    0  501 -0.00000000000E+00  0.00000000000E+00  0.13041760412E+03  0.13041760412E+03  0.00000000000E+00 0.  1.
          2   -1    0    0  502    0  0.00000000000E+00 -0.00000000000E+00 -0.27046842047E+03  0.27046842047E+03  0.00000000000E+00 0. -1.
          6    2    1    2  502    0 -0.50947965324E+02  0.44187633331E+02 -0.10555698663E+03  0.21460189269E+03  0.17425111996E+03 0.  0.
         24    2    3    3    0    0  0.64119406809E+00  0.22321864428E+02 -0.12976434528E+03  0.15338392613E+03  0.78671257317E+02 0.  0.
         -6    2    1    2    0  501  0.50947965324E+02 -0.44187633331E+02 -0.34493829724E+02  0.18628413191E+03  0.17018728331E+03 0.  0.
        -24    2    5    5    0    0  0.83135381200E+02 -0.34299899210E+02 -0.68898770243E+02  0.13791485489E+03  0.78647898674E+02 0.  0.
          5    1    3    3  502    0 -0.51589159392E+02  0.21865768903E+02  0.24207358651E+02  0.61217966557E+02  0.47000000000E+01 0. -1.
        -13    1    4    4    0    0  0.19127020247E+02  0.20892505918E+02 -0.69338195762E+01  0.29161919707E+02  0.00000000000E+00 0.  1.
         14    1    4    4    0    0 -0.18485826179E+02  0.14293585097E+01 -0.12283052570E+03  0.12422200642E+03  0.00000000000E+00 0. -1.
         -5    1    5    5    0  501 -0.32187415876E+02 -0.98877341210E+01  0.34404940520E+02  0.48369277015E+02  0.47000000000E+01 0.  1.
         11    1    6    6    0    0  0.67119663397E+02  0.13564632580E+02 -0.45983930541E+02  0.82483758035E+02  0.00000000000E+00 0. -1.
        -12    1    6    6    0    0  0.16015717803E+02 -0.47864531790E+02 -0.22914839702E+02  0.55431096857E+02  0.00000000000E+00 0.  1.
</event>
<event>
12    1  0.2614920E-002  0.1924137E+03  0.7818608E-02  0.1156302E+00
         -2   -1    0    0    0  501 -0.00000000000E+00  0.00000000000E+00  0.43087236912E+02  0.43087236912E+02  0.00000000000E+00 0.  1.
          2   -1    0    0  502    0  0.00000000000E+00 -0.00000000000E+00 -0.12383806871E+04  0.12383806871E+04  0.00000000000E+00 0. -1.
          6    2    1    2  502    0 -0.78133715631E+02 -0.41903381811E+02 -0.24018584668E+03  0.30689762325E+03  0.16922215955E+03 0.  0.
         24    2    3    3    0    0 -0.94699327126E+02 -0.77570899740E+02 -0.21516201893E+03  0.26004814860E+03  0.79656375488E+02 0.  0.
         -6    2    1    2    0  501  0.78133715631E+02  0.41903381811E+02 -0.95510760348E+03  0.97457030073E+03  0.17232517497E+03 0.  0.
        -24    2    5    5    0    0  0.53753688068E+02 -0.31548501810E+02 -0.71753786208E+03  0.72466824596E+03  0.79991976111E+02 0.  0.
          5    1    3    3  502    0  0.16565611495E+02  0.35667517929E+02 -0.25023827752E+02  0.46849474648E+02  0.47000000000E+01 0. -1.
        -11    1    4    4    0    0 -0.39775984355E+02 -0.20538485893E+01 -0.22002877004E+02  0.45502459515E+02  0.00000000000E+00 0.  1.
         12    1    4    4    0    0 -0.54923342771E+02 -0.75517051150E+02 -0.19315914193E+03  0.21454568909E+03  0.00000000000E+00 0. -1.
         -5    1    5    5    0  501  0.24380027563E+02  0.73451883621E+02 -0.23756974140E+03  0.24990205477E+03  0.47000000000E+01 0.  1.
         13    1    6    6    0    0  0.47445385851E+02  0.16373979460E+02 -0.45087564681E+03  0.45366068898E+03  0.00000000000E+00 0. -1.
        -14    1    6    6    0    0  0.63083022168E+01 -0.47922481270E+02 -0.26666221526E+03  0.27100755697E+03  0.00000000000E+00 0.  1.
</event>
<event>
12    1  0.2614920E-002  0.1800999E+03  0.7818608E-02  0.1167706E+00
         -1   -1    0    0    0  501 -0.00000000000E+00  0.00000000000E+00  0.14666359490E+03  0.14666359490E+03  0.00000000000E+00 0. -1.
          1   -1    0    0  502    0  0.00000000000E+00 -0.00000000000E+00 -0.23838340237E+03  0.23838340237E+03  0.00000000000E+00 0.  1.
          6    2    1    2  502    0 -0.12898012286E+02  0.51759305544E+02 -0.97644632596E+02  0.20499315751E+03  0.17216949765E+03 0.  0.
         24    2    3    3    0    0  0.11363169450E+01  0.10069847110E+03 -0.66196100328E+02  0.14496729223E+03  0.80573685651E+02 0.  0.
         -6    2    1    2    0  501  0.12898012286E+02 -0.51759305544E+02  0.59248251261E+01  0.18005383976E+03  0.17186883728E+03 0.  0.
        -24    2    5    5    0    0 -0.57489023019E+02 -0.16743596687E+02 -0.11913874633E+02  0.99302717075E+02  0.78318282745E+02 0.  0.
          5    1    3    3  502    0 -0.14034329231E+02 -0.48939165552E+02 -0.31448532268E+02  0.60025865289E+02  0.47000000000E+01 0. -1.
        -13    1    4    4    0    0  0.18151137733E+02 -0.52977025908E+01 -0.21634484580E+02  0.28732914520E+02  0.00000000000E+00 0.  1.
         14    1    4    4    0    0 -0.17014820788E+02  0.10599617369E+03 -0.44561615748E+02  0.11623437771E+03  0.00000000000E+00 0. -1.
         -5    1    5    5    0  501  0.70387035305E+02 -0.35015708857E+02  0.17838699759E+02  0.80751122685E+02  0.47000000000E+01 0.  1.
         13    1    6    6    0    0 -0.22890300911E+02 -0.16757392407E+02  0.32411344128E+02  0.43072860415E+02  0.00000000000E+00 0. -1.
        -14    1    6    6    0    0 -0.34598722108E+02  0.13795720251E-01 -0.44325218762E+02  0.56229856661E+02  0.00000000000E+00 0.  1.
</event>
<event>
12    1  0.2614920E-002  0.2067766E+03  0.7818608E-02  0.1144144E+00
          2   -1    0    0  502    0  0.00000000000E+00  0.00000000000E+00  0.32758362327E+04  0.32758362327E+04  0.00000000000E+00 0. -1.
         -2   -1    0    0    0  501 -0.00000000000E+00 -0.00000000000E+00 -0.13054490572E+02  0.13054490572E+02  0.00000000000E+00 0.  1.
          6    2    1    2  502    0 -0.79782720253E+02 -0.77664838684E+02  0.16626345667E+04  0.16756758299E+04  0.17646153980E+03 0.  0.
         24    2    3    3    0    0 -0.12014830856E+03 -0.81485973258E+02  0.14211513114E+04  0.14307672054E+04  0.79675380312E+02 0.  0.
         -6    2    1    2    0  501  0.79782720253E+02  0.77664838684E+02  0.16001471755E+04  0.16132148934E+04  0.17202964696E+03 0.  0.
        -24    2    5    5    0    0  0.11398665431E+03  0.43917772538E+02  0.13853389108E+04  0.13930480154E+04  0.80604884402E+02 0.  0.
          5    1    3    3  502    0  0.40365588307E+02  0.38211345735E+01  0.24148325525E+03  0.24490862450E+03  0.47000000000E+01 0. -1.
        -13    1    4    4    0    0 -0.10395456091E+03 -0.97356169817E+02  0.11843788386E+04  0.11929115675E+04  0.00000000000E+00 0.  1.
         14    1    4    4    0    0 -0.16193747652E+02  0.15870196560E+02  0.23677247281E+03  0.23785563791E+03  0.00000000000E+00 0. -1.
         -5    1    5    5    0  501 -0.34203934054E+02  0.33747066146E+02  0.21480826467E+03  0.22016687796E+03  0.47000000000E+01 0.  1.
         11    1    6    6    0    0  0.71835152056E+02 -0.11191986818E+02  0.87487101704E+03  0.87788657929E+03  0.00000000000E+00 0. -1.
        -12    1    6    6    0    0  0.42151502250E+02  0.55109759356E+02  0.51046789377E+03  0.51516143615E+03  0.00000000000E+00 0.  1.
</event>
<event>
12    1  0.2614920E-002  0.2126187E+03  0.7818608E-02  0.1139509E+00
         -2   -1    0    0    0  501 -0.00000000000E+00  0.00000000000E+00  0.38558326465E+02  0.38558326465E+02  0.00000000000E+00 0. -1.
          2   -1    0    0  502    0  0.00000000000E+00 -0.00000000000E+00 -0.16988682340E+04  0.16988682340E+04  0.00000000000E+00 0.  1.
          6    2    1    2  502    0  0.25855871337E+02 -0.12263228537E+03 -0.13129475877E+04  0.13300050651E+04  0.17139107806E+03 0.  0.
         24    2    3    3    0    0 -0.96263328384E+01 -0.64400419226E+02 -0.11292331346E+04  0.11339871391E+04  0.80742052260E+02 0.  0.
         -6    2    1    2    0  501 -0.25855871337E+02  0.12263228537E+03 -0.34736231983E+03  0.40742149537E+03  0.17211766368E+03 0.  0.
        -24    2    5    5    0    0 -0.10407371350E+02  0.17980153930E+02 -0.60801371283E+02  0.10192191762E+03  0.79118084081E+02 0.  0.
          5    1    3    3  502    0  0.35482204176E+02 -0.58231866145E+02 -0.18371445308E+03  0.19601792601E+03  0.47000000000E+01 0. -1.
        -13    1    4    4    0    0 -0.24807075950E+01  0.13394459854E+02 -0.46126614923E+03  0.46146725332E+03  0.00000000000E+00 0.  1.
         14    1    4    4    0    0 -0.71456252433E+01 -0.77794879081E+02 -0.66796698542E+03  0.67251988579E+03  0.00000000000E+00 0. -1.
         -5    1    5    5    0  501 -0.15448499987E+02  0.10465213144E+03 -0.28656094855E+03  0.30549957774E+03  0.47000000000E+01 0.  1.
         11    1    6    6    0    0 -0.37244838671E+02  0.33953276732E+02 -0.40706339030E+02  0.64784327160E+02  0.00000000000E+00 0. -1.
        -12    1    6    6    0    0  0.26837467321E+02 -0.15973122802E+02 -0.20095032254E+02  0.37137590464E+02  0.00000000000E+00 0.  1.
</event>
<event>
12    1  0.2614920E-002  0.1985361E+03  0.7818608E-02  0.1150980E+00
         -2   -1    0    0    0  501 -0.00000000000E+00  0.00000000000E+00  0.19489744274E+02  0.19489744274E+02  0.00000000000E+00 0.  1.
          2   -1    0    0  502    0  0.00000000000E+00 -0.00000000000E+00 -0.20740278233E+04  0.20740278233E+04  0.00000000000E+00 0. -1.
          6    2    1    2  502    0  0.60306952911E+02  0.77697985856E+02 -0.11919566667E+04  0.12083643381E+04  0.17236523031E+03 0.  0.
         24    2    3    3    0    0  0.69465502868E+02  0.11530815885E+03 -0.85379808148E+03  0.86796498009E+03  0.79187215682E+02 0.  0.
         -6    2    1    2    0  501 -0.60306952911E+02 -0.77697985856E+02 -0.86258141231E+03  0.88515322950E+03  0.17255619740E+03 0.  0.
        -24    2    5    5    0    0 -0.77627088723E+02  0.80734386017E+01 -0.47031913672E+03  0.48322225632E+03  0.78819498332E+02 0.  0.
          5    1    3    3  502    0 -0.91585499573E+01 -0.37610172991E+02 -0.33815858525E+03  0.34039935800E+03  0.47000000000E+01 0. -1.
        -13    1    4    4    0    0  0.32377099389E+02  0.99342664787E+01 -0.92309081808E+02  0.98325646703E+02  0.00000000000E+00 0.  1.
         14    1    4    4    0    0  0.37088403479E+02  0.10537389237E+03 -0.76148899968E+03  0.76963933339E+03  0.00000000000E+00 0. -1.
         -5    1    5    5    0  501  0.17320135812E+02 -0.85771424458E+02 -0.39226227558E+03  0.40193097318E+03  0.47000000000E+01 0.  1.
         13    1    6    6    0    0 -0.78616954982E+02 -0.10390494774E+02 -0.44418551995E+03  0.45120878108E+03  0.00000000000E+00 0. -1.
        -14    1    6    6    0    0  0.98986625884E+00  0.18463933376E+02 -0.26133616771E+02  0.32013475232E+02  0.00000000000E+00 0.  1.
</event>
<event>
12    1  0.2614920E-002  0.4221044E+03  0.7818608E-02  0.1036384E+00
         -1   -1    0    0    0  501 -0.00000000000E+00  0.00000000000E+00  0.94065720972E+02  0.94065720972E+02  0.00000000000E+00 0. -1.
          1   -1    0    0  502    0  0.00000000000E+00 -0.00000000000E+00 -0.20750254544E+04  0.20750254544E+04  0.00000000000E+00 0.  1.
          6    2    1    2  502    0 -0.10201424540E+03 -0.37168102296E+03 -0.67095779656E+03  0.79286438146E+03  0.17290423225E+03 0.  0.
         24    2    3    3    0    0 -0.13598966270E+03 -0.25333755284E+03 -0.49326112685E+03  0.57662908757E+03  0.80755565287E+02 0.  0.
         -6    2    1    2    0  501  0.10201424540E+03  0.37168102296E+03 -0.13100019368E+04  0.13762267939E+04  0.17129338746E+03 0.  0.
        -24    2    5    5    0    0  0.18620710881E+02  0.24446326463E+03 -0.96649460053E+03  0.10005165069E+04  0.82537561945E+02 0.  0.
          5    1    3    3  502    0  0.33975417295E+02 -0.11834347012E+03 -0.17769666971E+03  0.21623529389E+03  0.47000000000E+01 0. -1.
        -11    1    4    4    0    0 -0.51581121928E+02 -0.10405315466E+03 -0.27886410588E+03  0.30208088434E+03  0.00000000000E+00 0.  1.
         12    1    4    4    0    0 -0.84408540768E+02 -0.14928439818E+03 -0.21439702097E+03  0.27454820323E+03  0.00000000000E+00 0. -1.
         -5    1    5    5    0  501  0.83393534520E+02  0.12721775833E+03 -0.34350733630E+03  0.37571028696E+03  0.47000000000E+01 0.  1.
         13    1    6    6    0    0  0.70520370189E+01  0.57658540482E+02 -0.11673068287E+03  0.13038516342E+03  0.00000000000E+00 0. -1.
        -14    1    6    6    0    0  0.11568673862E+02  0.18680472415E+03 -0.84976391766E+03  0.87013134350E+03  0.00000000000E+00 0.  1.
</event>
<event>
12    1  0.2614920E-002  0.1882163E+03  0.7818608E-02  0.1160080E+00
          2   -1    0    0  502    0  0.00000000000E+00  0.00000000000E+00  0.91200226727E+03  0.91200226727E+03  0.00000000000E+00 0. -1.
         -2   -1    0    0    0  501 -0.00000000000E+00 -0.00000000000E+00 -0.42613705095E+02  0.42613705095E+02  0.00000000000E+00 0.  1.
          6    2    1    2  502    0  0.52198985081E+02 -0.95942216594E+01  0.27570393095E+03  0.32898759794E+03  0.17147419317E+03 0.  0.
         24    2    3    3    0    0  0.48612961997E+02 -0.71350306555E+02  0.19115042889E+03  0.22411597025E+03  0.78964519488E+02 0.  0.
         -6    2    1    2    0  501 -0.52198985081E+02  0.95942216594E+01  0.59368463122E+03  0.62562837442E+03  0.19008587112E+03 0.  0.
        -24    2    5    5    0    0 -0.71870647546E+02 -0.60327116874E+02  0.35812821034E+03  0.37908246530E+03  0.81504290970E+02 0.  0.
          5    1    3    3  502    0  0.35860230836E+01  0.61756084895E+02  0.84553502060E+02  0.10487162769E+03  0.47000000000E+01 0. -1.
        -11    1    4    4    0    0 -0.13539862460E+02 -0.10275165802E+02  0.36908716248E+01  0.17393373481E+02  0.00000000000E+00 0.  1.
         12    1    4    4    0    0  0.62152824458E+02 -0.61075140753E+02  0.18745955727E+03  0.20672259677E+03  0.00000000000E+00 0. -1.
         -5    1    5    5    0  501  0.19671662466E+02  0.69921338533E+02  0.23555642088E+03  0.24654590912E+03  0.47000000000E+01 0.  1.
         13    1    6    6    0    0 -0.11060189742E+02 -0.32481144419E+02  0.34658420692E+02  0.48770469187E+02  0.00000000000E+00 0. -1.
        -14    1    6    6    0    0 -0.60810457804E+02 -0.27845972455E+02  0.32346978965E+03  0.33031199611E+03  0.00000000000E+00 0.  1.
</event>
<event>
12    1  0.2614920E-002  0.1750146E+03  0.7818608E-02  0.1172717E+00
         -3   -1    0    0    0  501 -0.00000000000E+00  0.00000000000E+00  0.11557858794E+03  0.11557858794E+03  0.00000000000E+00 0. -1.
          3   -1    0    0  502    0  0.00000000000E+00 -0.00000000000E+00 -0.26724420466E+03  0.26724420466E+03  0.00000000000E+00 0.  1.
          6    2    1    2  502    0 -0.14050270678E+02 -0.26110251334E+02 -0.93149859519E+02  0.19793451538E+03  0.17211048986E+03 0.  0.
         24    2    3    3    0    0 -0.38359059822E+02  0.46025725922E+02 -0.49064563062E+02  0.10984297318E+03  0.77899695066E+02 0.  0.
         -6    2    1    2    0  501  0.14050270678E+02  0.26110251334E+02 -0.58515757199E+02  0.18488827721E+03  0.17285955536E+03 0.  0.
        -24    2    5    5    0    0 -0.47907130255E+02  0.31135867052E+02 -0.71018756519E+02  0.12130847432E+03  0.80047153717E+02 0.  0.
          5    1    3    3  502    0  0.24308789143E+02 -0.72135977256E+02 -0.44085296458E+02  0.88091542205E+02  0.47000000000E+01 0. -1.
        -13    1    4    4    0    0 -0.20445041534E+02 -0.20624357221E+02 -0.11223576063E+02  0.31134104993E+02  0.00000000000E+00 0.  1.
         14    1    4    4    0    0 -0.17914018288E+02  0.66650083143E+02 -0.37840986998E+02  0.78708868186E+02  0.00000000000E+00 0. -1.
         -5    1    5    5    0  501  0.61957400933E+02 -0.50256157183E+01  0.12502999320E+02  0.63579802892E+02  0.47000000000E+01 0.  1.
         11    1    6    6    0    0  0.18263762817E+02  0.14429607728E+02 -0.40140501757E+02  0.46400845819E+02  0.00000000000E+00 0. -1.
        -12    1    6    6    0    0 -0.66170893073E+02  0.16706259324E+02 -0.30878254762E+02  0.74907628502E+02  0.00000000000E+00 0.  1.
</event>
<event>
12    1  0.2614920E-002  0.1764007E+03  0.7818608E-02  0.1171333E+00
         -2   -1    0    0    0  501 -0.00000000000E+00  0.00000000000E+00  0.13407311989E+03  0.13407311989E+03  0.00000000000E+00 0. -1.
          2   -1    0    0  502    0  0.00000000000E+00 -0.00000000000E+00 -0.37649393804E+03  0.37649393804E+03  0.00000000000E+00 0.  1.
          6    2    1    2  502    0  0.11917050288E+02 -0.20838774732E+02  0.38257018850E+02  0.17723100914E+03  0.17137958014E+03 0.  0.
         24    2    3    3    0    0 -0.98555485397E+01  0.38519034231E+02  0.63134428497E+02  0.10912542159E+03  0.79633873072E+02 0.  0.
         -6    2    1    2    0  501 -0.11917050288E+02  0.20838774732E+02 -0.28067783699E+03  0.33333604879E+03  0.17820382325E+03 0.  0.
        -24    2    5    5    0    0 -0.44591716841E+02 -0.15066249179E+02 -0.75602385405E+02  0.12254032914E+03  0.84172433209E+02 0.  0.
          5    1    3    3  502    0  0.21772598828E+02 -0.59357808962E+02 -0.24877409647E+02  0.68105587548E+02  0.47000000000E+01 0. -1.
        -13    1    4    4    0    0  0.27787248609E+02  0.42468463449E+02  0.30964620040E+02  0.59451738975E+02  0.00000000000E+00 0.  1.
         14    1    4    4    0    0 -0.37642797149E+02 -0.39494292178E+01  0.32169808457E+02  0.49673682615E+02  0.00000000000E+00 0. -1.
         -5    1    5    5    0  501  0.32674666552E+02  0.35905023911E+02 -0.20507545159E+03  0.21079571965E+03  0.47000000000E+01 0.  1.
         13    1    6    6    0    0  0.19865017674E+02 -0.19419705720E+02 -0.40221979799E+02  0.48883039558E+02  0.00000000000E+00 0. -1.
        -14    1    6    6    0    0 -0.64456734514E+02  0.43534565415E+01 -0.35380405606E+02  0.73657289585E+02  0.00000000000E+00 0.  1.
</event>
<event>
12    1  0.2614920E-002  0.2592506E+03  0.7818608E-02  0.1107594E+00
          2   -1    0    0  502    0  0.00000000000E+00  0.00000000000E+00  0.51143990225E+03  0.51143990225E+03  0.00000000000E+00 0.  1.
         -2   -1    0    0    0  501 -0.00000000000E+00 -0.00000000000E+00 -0.13464792600E+03  0.13464792600E+03  0.00000000000E+00 0. -1.
          6    2    1    2  502    0  0.19657064732E+03 -0.24653569663E+01  0.23988421041E+03  0.35477030297E+03  0.17225398716E+03 0.  0.
         24    2    3    3    0    0  0.10498737163E+03 -0.13956232460E+02  0.22475756886E+03  0.26111966554E+03  0.80314322180E+02 0.  0.
         -6    2    1    2    0  501 -0.19657064732E+03  0.24653569663E+01  0.13690776585E+03  0.29131752528E+03  0.16575906253E+03 0.  0.
        -24    2    5    5    0    0 -0.16102475915E+03 -0.56429650554E+02  0.94306878696E+02  0.21026780188E+03  0.78774885696E+02 0.  0.
          5    1    3    3  502    0  0.91583275693E+02  0.11490875494E+02  0.15126641548E+02  0.93650637429E+02  0.47000000000E+01 0. -1.
        -11    1    4    4    0    0  0.11544434276E+03 -0.11191030138E+02  0.22114604877E+03  0.24971625962E+03  0.00000000000E+00 0.  1.
         12    1    4    4    0    0 -0.10456971137E+02 -0.27652023225E+01  0.36115200873E+01  0.11403405920E+02  0.00000000000E+00 0. -1.
         -5    1    5    5    0  501 -0.35545888166E+02  0.58895007520E+02  0.42600887154E+02  0.81049723396E+02  0.47000000000E+01 0.  1.
         11    1    6    6    0    0  0.41631671873E+01 -0.17737772171E+02  0.76714551889E+01  0.19768959187E+02  0.00000000000E+00 0. -1.
        -12    1    6    6    0    0 -0.16518792634E+03 -0.38691878383E+02  0.86635423507E+02  0.19049884269E+03  0.00000000000E+00 0.  1.
</event>
<event>
12    1  0.2614920E-002  0.2002489E+03  0.7818608E-02  0.1149529E+00
         -2   -1    0    0    0  501 -0.00000000000E+00  0.00000000000E+00  0.33419259659E+02  0.33419259659E+02  0.00000000000E+00 0. -1.
          2   -1    0    0  502    0  0.00000000000E+00 -0.00000000000E+00 -0.15156765714E+04  0.15156765714E+04  0.00000000000E+00 0.  1.
          6    2    1    2  502    0 -0.99389500717E+02  0.23634383944E+02 -0.38693672785E+03  0.43558058871E+03  0.17196965124E+03 0.  0.
         24    2    3    3    0    0 -0.12790057328E+03  0.35600080568E+02 -0.24220388781E+03  0.28750714700E+03  0.79823016259E+02 0.  0.
         -6    2    1    2    0  501  0.99389500717E+02 -0.23634383944E+02 -0.10953205838E+04  0.11135152423E+04  0.17248813430E+03 0.  0.
        -24    2    5    5    0    0  0.11840860892E+03  0.26163367433E+02 -0.85738838493E+03  0.86963952846E+03  0.80330233326E+02 0.  0.
          5    1    3    3  502    0  0.28511072568E+02 -0.11965696623E+02 -0.14473284003E+03  0.14807344171E+03  0.47000000000E+01 0. -1.
        -13    1    4    4    0    0 -0.37515427429E+02  0.31405352076E+02 -0.15225347095E+03  0.15992130205E+03  0.00000000000E+00 0.  1.
         14    1    4    4    0    0 -0.90385145856E+02  0.41947284915E+01 -0.89950416865E+02  0.12758584495E+03  0.00000000000E+00 0. -1.
         -5    1    5    5    0  501 -0.19019108199E+02 -0.49797751378E+02 -0.23793219892E+03  0.24387571384E+03  0.47000000000E+01 0.  1.
         11    1    6    6    0    0  0.59038703885E+02 -0.22581184599E+02 -0.27289224853E+03  0.28011722146E+03  0.00000000000E+00 0. -1.
        -12    1    6    6    0    0  0.59369905030E+02  0.48744552032E+02 -0.58449613640E+03  0.58952230700E+03  0.00000000000E+00 0.  1.
</event>
<event>
12    1  0.2614920E-002  0.2451673E+03  0.7818608E-02  0.1116398E+00
         -2   -1    0    0    0  501 -0.00000000000E+00  0.00000000000E+00  0.20095740078E+03  0.20095740078E+03  0.00000000000E+00 0. -1.
          2   -1    0    0  502    0  0.00000000000E+00 -0.00000000000E+00 -0.31782738006E+03  0.31782738006E+03  0.00000000000E+00 0.  1.
          6    2    1    2  502    0  0.94592216405E+02 -0.14737974253E+03  0.45034103961E+01  0.24530324000E+03  0.17171174374E+03 0.  0.
         24    2    3    3    0    0 -0.14763778612E+02 -0.65877428176E+02  0.23732834579E+02  0.10748734235E+03  0.80202722062E+02 0.  0.
         -6    2    1    2    0  501 -0.94592216405E+02  0.14737974253E+03 -0.12137338968E+03  0.27348154084E+03  0.17144146973E+03 0.  0.
        -24    2    5    5    0    0 -0.89374360795E+02  0.37720311769E+02 -0.30703153326E+02  0.13101891931E+03  0.82538932053E+02 0.  0.
          5    1    3    3  502    0  0.10935599502E+03 -0.81502314357E+02 -0.19229424183E+02  0.13781589765E+03  0.47000000000E+01 0. -1.
        -13    1    4    4    0    0 -0.19524677311E+02  0.13742646430E+02  0.12461670917E+02  0.26932630712E+02  0.00000000000E+00 0.  1.
         14    1    4    4    0    0  0.47608986997E+01 -0.79620074606E+02  0.11271163662E+02  0.80554711638E+02  0.00000000000E+00 0. -1.
         -5    1    5    5    0  501 -0.52178556106E+01  0.10965943076E+03 -0.90670236357E+02  0.14246262153E+03  0.47000000000E+01 0.  1.
         13    1    6    6    0    0 -0.92507987722E+02  0.50260621393E+02 -0.88783891632E+01  0.10565360216E+03  0.00000000000E+00 0. -1.
        -14    1    6    6    0    0  0.31336269275E+01 -0.12540309623E+02 -0.21824764163E+02  0.25365317146E+02  0.00000000000E+00 0.  1.
</event>
<event>
12    1  0.2614920E-002  0.3088863E+03  0.7818608E-02  0.1080881E+00
          1   -1    0    0  502    0  0.00000000000E+00  0.00000000000E+00  0.16860371186E+03  0.16860371186E+03  0.00000000000E+00 0. -1.
         -1   -1    0    0    0  501 -0.00000000000E+00 -0.00000000000E+00 -0.82569614762E+03  0.82569614762E+03  0.00000000000E+00 0.  1.
          6    2    1    2  502    0  0.13499028398E+03  0.21827992076E+03 -0.60758126868E+03  0.68169246019E+03  0.17228207003E+03 0.  0.
         24    2    3    3    0    0  0.72300294116E+02  0.14720089731E+03 -0.23649795664E+03  0.29866873132E+03  0.79851680480E+02 0.  0.
         -6    2    1    2    0  501 -0.13499028398E+03 -0.21827992076E+03 -0.49511167077E+02  0.31260739929E+03  0.17147457494E+03 0.  0.
        -24    2    5    5    0    0 -0.10804022701E+03 -0.90178001541E+02 -0.76820046327E+02  0.17880055282E+03  0.79142627923E+02 0.  0.
          5    1    3    3  502    0  0.62689989863E+02  0.71079023454E+02 -0.37108331204E+03  0.38302372887E+03  0.47000000000E+01 0. -1.
        -11    1    4    4    0    0  0.31173370600E+02  0.12455090337E+03 -0.20582031531E+03  0.24258340578E+03  0.00000000000E+00 0.  1.
         12    1    4    4    0    0  0.41126923516E+02  0.22649993931E+02 -0.30677641328E+02  0.56085325536E+02  0.00000000000E+00 0. -1.
         -5    1    5    5    0  501 -0.26950056966E+02 -0.12810191922E+03  0.27308879250E+02  0.13380684648E+03  0.47000000000E+01 0.  1.
         13    1    6    6    0    0 -0.11565421851E+03 -0.63975145227E+02 -0.52384560948E+02  0.14217193707E+03  0.00000000000E+00 0. -1.
        -14    1    6    6    0    0  0.76139914949E+01 -0.26202856314E+02 -0.24435485379E+02  0.36628615742E+02  0.00000000000E+00 0.  1.
</event>
<event>
12    1  0.2614920E-002  0.1711942E+03  0.7818608E-02  0.1176608E+00
         -1   -1    0    0    0  501 -0.00000000000E+00  0.00000000000E+00  0.69398039849E+02  0.69398039849E+02  0.00000000000E+00 0. -1.
          1   -1    0    0  502    0  0.00000000000E+00 -0.00000000000E+00 -0.53674478937E+03  0.53674478937E+03  0.00000000000E+00 0.  1.
          6    2    1    2  502    0  0.25129285573E+02 -0.65809261758E+01 -0.96080037282E+02  0.19819295424E+03  0.17138927610E+03 0.  0.
         24    2    3    3    0    0  0.10968323360E+02  0.58398344430E+02 -0.28654694360E+02  0.10337151506E+03  0.79585852186E+02 0.  0.
         -6    2    1    2    0  501 -0.25129285573E+02  0.65809261758E+01 -0.37126671224E+03  0.40794987498E+03  0.16706088500E+03 0.  0.
        -24    2    5    5    0    0  0.28699891940E+02 -0.19769140892E+02 -0.31065979048E+03  0.32258480395E+03  0.79604947029E+02 0.  0.
          5    1    3    3  502    0  0.14160962213E+02 -0.64979270605E+02 -0.67425342922E+02  0.94821439176E+02  0.47000000000E+01 0. -1.
        -11    1    4    4    0    0  0.24373540415E+02  0.74478217816E+02 -0.21745801246E+02  0.81326221314E+02  0.00000000000E+00 0.  1.
         12    1    4    4    0    0 -0.13405217055E+02 -0.16079873387E+02 -0.69088931139E+01  0.22045293749E+02  0.00000000000E+00 0. -1.
         -5    1    5    5    0  501 -0.53829177513E+02  0.26350067068E+02 -0.60606921760E+02  0.85365071027E+02  0.47000000000E+01 0.  1.
         13    1    6    6    0    0  0.38483696911E+02  0.12931747092E+02 -0.83184294010E+02  0.92562691084E+02  0.00000000000E+00 0. -1.
        -14    1    6    6    0    0 -0.97838049704E+01 -0.32700887984E+02 -0.22747549647E+03  0.23002211287E+03  0.00000000000E+00 0.  1.
</event>
<event>
12    1  0.2614920E-002  0.2476205E+03  0.7818608E-02  0.1114818E+00
         -2   -1    0    0    0  501 -0.00000000000E+00  0.00000000000E+00  0.38447383596E+02  0.38447383596E+02  0.00000000000E+00 0. -1.
          2   -1    0    0  502    0  0.00000000000E+00 -0.00000000000E+00 -0.18147971101E+04  0.18147971101E+04  0.00000000000E+00 0.  1.
          6    2    1    2  502    0 -0.95758679267E+02  0.15017039848E+03 -0.12114734910E+04  0.12365638370E+04  0.17234044845E+03 0.  0.
         24    2    3    3    0    0 -0.68696853362E+02  0.93835604112E+02 -0.10976725867E+04  0.11066458347E+04  0.79091830589E+02 0.  0.
         -6    2    1    2    0  501  0.95758679267E+02 -0.15017039848E+03 -0.56487623549E+03  0.61668065675E+03  0.17172360862E+03 0.  0.
        -24    2    5    5    0    0  0.13240014695E+03 -0.12877647597E+03 -0.50293070056E+03  0.54145010198E+03  0.78203220468E+02 0.  0.
          5    1    3    3  502    0 -0.27061825905E+02  0.56334794365E+02 -0.11380090433E+03  0.12991800223E+03  0.47000000000E+01 0. -1.
        -13    1    4    4    0    0 -0.71437633919E+02  0.45430284493E+02 -0.85474899291E+03  0.85893136348E+03  0.00000000000E+00 0.  1.
         14    1    4    4    0    0  0.27407805567E+01  0.48405319620E+02 -0.24292359379E+03  0.24771447125E+03  0.00000000000E+00 0. -1.
         -5    1    5    5    0  501 -0.36641467679E+02 -0.21393922503E+02 -0.61945534924E+02  0.75230554768E+02  0.47000000000E+01 0.  1.
         11    1    6    6    0    0  0.49380463638E+02 -0.88001817731E+02 -0.18996839317E+03  0.21510634699E+03  0.00000000000E+00 0. -1.
        -12    1    6    6    0    0  0.83019683308E+02 -0.40774658244E+02 -0.31296230739E+03  0.32634375499E+03  0.00000000000E+00 0.  1.
</event>
<event>
12    1  0.2614920E-002  0.1729938E+03  0.7818608E-02  0.1174761E+00
          1   -1    0    0  502    0  0.00000000000E+00  0.00000000000E+00  0.13573038274E+04  0.13573038274E+04  0.00000000000E+00 0. -1.
         -1   -1    0    0    0  501 -0.00000000000E+00 -0.00000000000E+00 -0.23123380299E+02  0.23123380299E+02  0.00000000000E+00 0.  1.
          6    2    1    2  502    0 -0.30028451785E+02  0.11043652552E+02  0.51041405184E+03  0.53823129557E+03  0.16776994079E+03 0.  0.
         24    2    3    3    0    0 -0.53204487752E+02 -0.71215532602E+01  0.16432083029E+03  0.19085583393E+03  0.80889925452E+02 0.  0.
         -6    2    1    2    0  501  0.30028451785E+02 -0.11043652552E+02  0.82376639524E+03  0.84219591211E+03  0.17227655172E+03 0.  0.
        -24    2    5    5    0    0  0.58938841938E+02 -0.49562565097E+02  0.38366760696E+03  0.39944479610E+03  0.80156581476E+02 0.  0.
          5    1    3    3  502    0  0.23176035967E+02  0.18165205812E+02  0.34609322155E+03  0.34737546164E+03  0.47000000000E+01 0. -1.
        -13    1    4    4    0    0 -0.63388262340E+01 -0.35782251304E+02  0.35458653841E+02  0.50772693041E+02  0.00000000000E+00 0.  1.
         14    1    4    4    0    0 -0.46865661518E+02  0.28660698044E+02  0.12886217645E+03  0.14008314088E+03  0.00000000000E+00 0. -1.
         -5    1    5    5    0  501 -0.28910390154E+02  0.38518912545E+02  0.44009878828E+03  0.44275111601E+03  0.47000000000E+01 0.  1.
         11    1    6    6    0    0  0.53633414006E+02  0.70471480415E+01  0.17503403469E+03  0.18320239817E+03  0.00000000000E+00 0. -1.
        -12    1    6    6    0    0  0.53054279323E+01 -0.56609713138E+02  0.20863357227E+03  0.21624239794E+03  0.00000000000E+00 0.  1.
</event>
<event>
12    1  0.2614920E-002  0.1989542E+03  0.7818608E-02  0.1150624E+00
          2   -1    0    0  502    0  0.00000000000E+00  0.00000000000E+00  0.10792391282E+03  0.10792391282E+03  0.00000000000E+00 0. -1.
         -2   -1    0    0    0  501 -0.00000000000E+00 -0.00000000000E+00 -0.36921872827E+03  0.36921872827E+03  0.00000000000E+00 0.  1.
          6    2    1    2  502    0 -0.55432398424E+02 -0.81665671102E+02 -0.14991229232E+03  0.24889251255E+03  0.17242898475E+03 0.  0.
         24    2    3    3    0    0 -0.34372108200E+02  0.24028871161E+02 -0.65086250301E+02  0.11166124974E+03  0.80456113772E+02 0.  0.
         -6    2    1    2    0  501  0.55432398424E+02  0.81665671102E+02 -0.11138252314E+03  0.22825012854E+03  0.17306074681E+03 0.  0.
        -24    2    5    5    0    0  0.95553670557E+01  0.65707869299E+02 -0.13727868687E+03  0.17300472384E+03  0.81709041566E+02 0.  0.
          5    1    3    3  502    0 -0.21060290223E+02 -0.10569454226E+03 -0.84826042017E+02  0.13723126281E+03  0.47000000000E+01 0. -1.
        -13    1    4    4    0    0  0.17401646195E+02  0.17279097910E+02 -0.52512887206E+02  0.57956775597E+02  0.00000000000E+00 0.  1.
         14    1    4    4    0    0 -0.51773754396E+02  0.67497732508E+01 -0.12573363095E+02  0.53704474140E+02  0.00000000000E+00 0. -1.
         -5    1    5    5    0  501  0.45877031368E+02  0.15957801802E+02  0.25896163728E+02  0.55245404708E+02  0.47000000000E+01 0.  1.
         13    1    6    6    0    0  0.15874370555E+02 -0.12359850689E+02 -0.75953544429E+01  0.21504672950E+02  0.00000000000E+00 0. -1.
        -14    1    6    6    0    0 -0.63190034993E+01  0.78067719988E+02 -0.12968333242E+03  0.15150005089E+03  0.00000000000E+00 0.  1.
</event>
<event>
12    1  0.2614920E-002  0.2697323E+03  0.7818608E-02  0.1101433E+00
         -2   -1    0    0    0  501 -0.00000000000E+00  0.00000000000E+00  0.12940252303E+03  0.12940252303E+03  0.00000000000E+00 0. -1.
          2   -1    0    0  502    0  0.00000000000E+00 -0.00000000000E+00 -0.58619118991E+03  0.58619118991E+03  0.00000000000E+00 0.  1.
          6    2    1    2  502    0  0.20350642993E+03 -0.39961315891E+02 -0.15515554563E+03  0.31017875986E+03  0.17066296006E+03 0.  0.
         24    2    3    3    0    0  0.70661370197E+02 -0.56175795479E+02 -0.25926047657E+02  0.12407912957E+03  0.81084654610E+02 0.  0.
         -6    2    1    2    0  501 -0.20350642993E+03  0.39961315891E+02 -0.30163312125E+03  0.40541495309E+03  0.17426121359E+03 0.  0.
        -24    2    5    5    0    0 -0.12992070508E+03  0.56410065326E+02 -0.28736651216E+03  0.32853162333E+03  0.72746341060E+02 0.  0.
          5    1    3    3  502    0  0.13284505974E+03  0.16214479588E+02 -0.12922949797E+03  0.18609963028E+03  0.47000000000E+01 0. -1.
        -11    1    4    4    0    0  0.79691340337E+02 -0.50742246623E+02 -0.43169231832E+02  0.10387043802E+03  0.00000000000E+00 0.  1.
         12    1    4    4    0    0 -0.90299701409E+01 -0.54335488560E+01  0.17243184175E+02  0.20208691557E+02  0.00000000000E+00 0. -1.
         -5    1    5    5    0  501 -0.73585724853E+02 -0.16448749436E+02 -0.14266609092E+02  0.76883329761E+02  0.47000000000E+01 0.  1.
         11    1    6    6    0    0 -0.12945160497E+03  0.39744538083E+02 -0.21362430673E+03  0.25292823243E+03  0.00000000000E+00 0. -1.
        -12    1    6    6    0    0 -0.46910011393E+00  0.16665527243E+02 -0.73742205435E+02  0.75603390900E+02  0.00000000000E+00 0.  1.
</event>
<event>
12    1  0.2614920E-002  0.1783304E+03  0.7818608E-02  0.1169429E+00
          1   -1    0    0  502    0  0.00000000000E+00  0.00000000000E+00  0.44302858624E+03  0.44302858624E+03  0.00000000000E+00 0.  1.
         -1   -1    0    0    0  501 -0.00000000000E+00 -0.00000000000E+00 -0.82487280176E+02  0.82487280176E+02  0.00000000000E+00 0. -1.
          6    2    1    2  502    0 -0.44901068128E+02  0.14797670668E+02  0.27455438302E+03  0.32715724369E+03  0.17151290299E+03 0.  0.
         24    2    3    3    0    0  0.33576829098E+02  0.35997654122E+02  0.17825092985E+03  0.20104354601E+03  0.78878887195E+02 0.  0.
         -6    2    1    2    0  501  0.44901068128E+02 -0.14797670668E+02  0.85986923049E+02  0.19835862272E+03  0.17238710885E+03 0.  0.
        -24    2    5    5    0    0 -0.69291520249E+01  0.33971741255E+02  0.10208885132E+01  0.87425560542E+02  0.80250196704E+02 0.  0.
          5    1    3    3  502    0 -0.78477897227E+02 -0.21199983454E+02  0.96303453166E+02  0.12611369768E+03  0.47000000000E+01 0. -1.
        -13    1    4    4    0    0 -0.13949455818E+02  0.23144444973E+02  0.12751285869E+03  0.13034485713E+03  0.00000000000E+00 0.  1.
         14    1    4    4    0    0  0.47526284916E+02  0.12853209149E+02  0.50738071163E+02  0.70698688876E+02  0.00000000000E+00 0. -1.
         -5    1    5    5    0  501  0.51830220153E+02 -0.48769411923E+02  0.84966034536E+02  0.11093306218E+03  0.47000000000E+01 0.  1.
         11    1    6    6    0    0  0.34961916092E+01 -0.25734459796E+02  0.58578574939E+01  0.26623303160E+02  0.00000000000E+00 0. -1.
        -12    1    6    6    0    0 -0.10425343634E+02  0.59706201051E+02 -0.48369689807E+01  0.60802257382E+02  0.00000000000E+00 0.  1.
</event>
<event>
12    1  0.2614920E-002  0.1782978E+03  0.7818608E-02  0.1169461E+00
         -3   -1    0    0    0  501 -0.00000000000E+00  0.00000000000E+00  0.21282116796E+02  0.21282116796E+02  0.00000000000E+00 0. -1.
          3   -1    0    0  502    0  0.00000000000E+00 -0.00000000000E+00 -0.16964824425E+04  0.16964824425E+04  0.00000000000E+00 0.  1.
          6    2    1    2  502    0 -0.34311666183E+02 -0.27368566129E+02 -0.11345883781E+04  0.11485154207E+04  0.17283100122E+03 0.  0.
         24    2    3    3    0    0  0.41731227273E+02  0.25410531921E+01 -0.75212670366E+03  0.75739379077E+03  0.78758006934E+02 0.  0.
         -6    2    1    2    0  501  0.34311666183E+02  0.27368566129E+02 -0.54061194757E+03  0.56924913857E+03  0.17279171006E+03 0.  0.
        -24    2    5    5    0    0 -0.16985060076E+02 -0.22903923260E+02 -0.42315296128E+03  0.43149072405E+03  0.79452717568E+02 0.  0.
          5    1    3    3  502    0 -0.76042893455E+02 -0.29909619321E+02 -0.38246167445E+03  0.39112162993E+03  0.47000000000E+01 0. -1.
        -11    1    4    4    0    0  0.13970466916E+02  0.39717909707E+02 -0.31194734632E+03  0.31477584592E+03  0.00000000000E+00 0.  1.
         12    1    4    4    0    0  0.27760760356E+02 -0.37176856515E+02 -0.44017935733E+03  0.44261794485E+03  0.00000000000E+00 0. -1.
         -5    1    5    5    0  501  0.51296726258E+02  0.50272489389E+02 -0.11745898628E+03  0.13775841453E+03  0.47000000000E+01 0.  1.
         11    1    6    6    0    0  0.27490236445E+02  0.64579983717E+01 -0.97543756618E+02  0.10154901919E+03  0.00000000000E+00 0. -1.
        -12    1    6    6    0    0 -0.44475296521E+02 -0.29361921631E+02 -0.32560920467E+03  0.32994170486E+03  0.00000000000E+00 0.  1.
</event>
<event>
12    1  0.2614920E-002  0.2460585E+03  0.7818608E-02  0.1115821E+00
          1   -1    0    0  502    0  0.00000000000E+00  0.00000000000E+00  0.11688613654E+03  0.11688613654E+03  0.00000000000E+00 0.  1.
         -1   -1    0    0    0  501 -0.00000000000E+00 -0.00000000000E+00 -0.57123172989E+03  0.57123172989E+03  0.00000000000E+00 0. -1.
          6    2    1    2  502    0  0.12365561708E+03 -0.12591827548E+03 -0.12230156136E+03  0.27496632320E+03  0.17176345144E+03 0.  0.
         24    2    3    3    0    0  0.14233493730E+03 -0.11899828385E+03 -0.61898408564E+02  0.21118988432E+03  0.79686437512E+02 0.  0.
         -6    2    1    2    0  501 -0.12365561708E+03  0.12591827548E+03 -0.33204403199E+03  0.41315154323E+03  0.17115733920E+03 0.  0.
        -24    2    5    5    0    0 -0.83233022509E+02  0.60285376888E+02 -0.80567756626E+02  0.15008487754E+03  0.73974619668E+02 0.  0.
          5    1    3    3  502    0 -0.18679320223E+02 -0.69199916347E+01 -0.60403152796E+02  0.63776438878E+02  0.47000000000E+01 0. -1.
        -11    1    4    4    0    0  0.74989862499E+02 -0.12789310943E+02 -0.20418371152E+02  0.78765194296E+02  0.00000000000E+00 0.  1.
         12    1    4    4    0    0  0.67345074801E+02 -0.10620897290E+03 -0.41480037412E+02  0.13242469003E+03  0.00000000000E+00 0. -1.
         -5    1    5    5    0  501 -0.40422594568E+02  0.65632898594E+02 -0.25147627536E+03  0.26306666570E+03  0.47000000000E+01 0.  1.
         11    1    6    6    0    0 -0.56424333315E+02  0.89363533534E+01 -0.71394339337E+02  0.91436948170E+02  0.00000000000E+00 0. -1.
        -12    1    6    6    0    0 -0.26808689193E+02  0.51349023535E+02 -0.91734172890E+01  0.58647929367E+02  0.00000000000E+00 0.  1.
</event>
<event>
12    1  0.2614920E-002  0.2274661E+03  0.7818608E-02  0.1128436E+00
          2   -1    0    0  502    0  0.00000000000E+00  0.00000000000E+00  0.13084415621E+04  0.13084415621E+04  0.00000000000E+00 0. -1.
         -2   -1    0    0    0  501 -0.00000000000E+00 -0.00000000000E+00 -0.54586312172E+02  0.54586312172E+02  0.00000000000E+00 0.  1.
          6    2    1    2  502    0 -0.73191770970E+02  0.12826127447E+03  0.26764427852E+03  0.35075188317E+03  0.17200416814E+03 0.  0.
         24    2    3    3    0    0 -0.83449382205E+02  0.23258960376E+02  0.12657987563E+03  0.17453621895E+03  0.83280539040E+02 0.  0.
         -6    2    1    2    0  501  0.73191770970E+02 -0.12826127447E+03  0.98621097141E+03  0.10122759911E+04  0.17401899944E+03 0.  0.
        -24    2    5    5    0    0  0.39066555469E+02 -0.64153110437E+01  0.23803592623E+03  0.25346181268E+03  0.77552797120E+02 0.  0.
          5    1    3    3  502    0  0.10257611235E+02  0.10500231410E+03  0.14106440289E+03  0.17621566422E+03  0.47000000000E+01 0. -1.
        -13    1    4    4    0    0 -0.60980490151E+02  0.52948171733E+02  0.70391344751E+02  0.10713109019E+03  0.00000000000E+00 0.  1.
         14    1    4    4    0    0 -0.22468892055E+02 -0.29689211357E+02  0.56188530882E+02  0.67405128765E+02  0.00000000000E+00 0. -1.
         -5    1    5    5    0  501  0.34125215501E+02 -0.12184596343E+03  0.74817504518E+03  0.75881417842E+03  0.47000000000E+01 0.  1.
         13    1    6    6    0    0 -0.17697692739E+02  0.14228157060E+02  0.10391900767E+03  0.10637109070E+03  0.00000000000E+00 0. -1.
        -14    1    6    6    0    0  0.56764248208E+02 -0.20643468104E+02  0.13411691856E+03  0.14709072199E+03  0.00000000000E+00 0.  1.
</event>
<event>
12    1  0.2614920E-002  0.3292522E+03  0.7818608E-02  0.1071468E+00
          1   -1    0    0  502    0  0.00000000000E+00  0.00000000000E+00  0.99492259784E+03  0.99492259784E+03  0.00000000000E+00 0.  1.
         -1   -1    0    0    0  501 -0.00000000000E+00 -0.00000000000E+00 -0.12758567959E+03  0.12758567959E+03  0.00000000000E+00 0. -1.
          6    2    1    2  502    0 -0.19347844599E+03 -0.20370287138E+03  0.64764845143E+03  0.72635081356E+03  0.17090412177E+03 0.  0.
         24    2    3    3    0    0 -0.20669823377E+03 -0.16294129326E+03  0.61191695934E+03  0.67035886264E+03  0.75263634659E+02 0.  0.
         -6    2    1    2    0  501  0.19347844599E+03  0.20370287138E+03  0.21968846682E+03  0.39615746387E+03  0.17247882436E+03 0.  0.
        -24    2    5    5    0    0  0.20493917931E+03  0.21798870377E+03  0.20085505761E+03  0.36947000019E+03  0.81524135606E+02 0.  0.
          5    1    3    3  502    0  0.13219787775E+02 -0.40761578125E+02  0.35731492091E+02  0.55991950913E+02  0.47000000000E+01 0. -1.
        -11    1    4    4    0    0 -0.70838025230E+02 -0.98021891541E+02  0.31560828840E+03  0.33798655113E+03  0.00000000000E+00 0.  1.
         12    1    4    4    0    0 -0.13586020854E+03 -0.64919401716E+02  0.29630867095E+03  0.33237231151E+03  0.00000000000E+00 0. -1.
         -5    1    5    5    0  501 -0.11460733317E+02 -0.14285832388E+02  0.18833409204E+02  0.26687463676E+02  0.47000000000E+01 0.  1.
         11    1    6    6    0    0  0.11706329299E+03  0.15504327884E+03  0.88245582449E+02  0.21337646473E+03  0.00000000000E+00 0. -1.
        -12    1    6    6    0    0  0.87875886323E+02  0.62945424928E+02  0.11260947517E+03  0.15609353546E+03  0.00000000000E+00 0.  1.
</event>
<event>
12    1  0.2614920E-002  0.1861628E+03  0.7818608E-02  0.1161968E+00
          1   -1    0    0  502    0  0.00000000000E+00  0.00000000000E+00  0.66004776053E+02  0.66004776053E+02  0.00000000000E+00 0. -1.
         -1   -1    0    0    0  501 -0.00000000000E+00 -0.00000000000E+00 -0.61493667092E+03  0.61493667092E+03  0.00000000000E+00 0.  1.
          6    2    1    2  502    0  0.21449421345E+02 -0.58951699158E+02 -0.14215803049E+03  0.23286379857E+03  0.17343950687E+03 0.  0.
         24    2    3    3    0    0 -0.42627309070E+02 -0.42259846303E+02 -0.25142262059E+02  0.98330436937E+02  0.73714038003E+02 0.  0.
         -6    2    1    2    0  501 -0.21449421345E+02  0.58951699158E+02 -0.40677386438E+03  0.44807764840E+03  0.17712487613E+03 0.  0.
        -24    2    5    5    0    0 -0.14404579689E+02 -0.32624608032E+02 -0.14088183346E+03  0.16672997747E+03  0.81727213472E+02 0.  0.
          5    1    3    3  502    0  0.64076730415E+02 -0.16691852854E+02 -0.11701576843E+03  0.13453336164E+03  0.47000000000E+01 0. -1.
        -13    1    4    4    0    0 -0.32797685989E+02  0.39017374755E+01  0.15090290591E+02  0.36312926509E+02  0.00000000000E+00 0.  1.
         14    1    4    4    0    0 -0.98296230809E+01 -0.46161583779E+02 -0.40232552650E+02  0.62017510428E+02  0.00000000000E+00 0. -1.
         -5    1    5    5    0  501 -0.70448416560E+01  0.91576307190E+02 -0.26589203092E+03  0.28134767093E+03  0.47000000000E+01 0.  1.
         11    1    6    6    0    0  0.16075457599E+02  0.18930009000E+02 -0.20231441069E+02  0.32032433337E+02  0.00000000000E+00 0. -1.
        -12    1    6    6    0    0 -0.30480037289E+02 -0.51554617032E+02 -0.12065039240E+03  0.13469754413E+03  0.00000000000E+00 0.  1.
</event>
<event>
12    1  0.2614920E-002  0.1813413E+03  0.7818608E-02  0.1166511E+00
         -1   -1    0    0    0  501 -0.00000000000E+00  0.00000000000E+00  0.36206564540E+02  0.36206564540E+02  0.00000000000E+00 0.  1.
          1   -1    0    0  502    0  0.00000000000E+00 -0.00000000000E+00 -0.93959280759E+03  0.93959280759E+03  0.00000000000E+00 0. -1.
          6    2    1    2  502    0 -0.40467813281E+02  0.39437688411E+02 -0.53818363527E+03  0.56757491480E+03  0.17119194915E+03 0.  0.
         24    2    3    3    0    0  0.73406677270E+01 -0.28731939244E+02 -0.17273098166E+03  0.19272763787E+03  0.80178180551E+02 0.  0.
         -6    2    1    2    0  501  0.40467813281E+02 -0.39437688411E+02 -0.36520260777E+03  0.40822445733E+03  0.17343957927E+03 0.  0.
        -24    2    5    5    0    0  0.87769130189E+02  0.17753163470E+01 -0.23360883083E+03  0.26236514678E+03  0.80967971714E+02 0.  0.
          5    1    3    3  502    0 -0.47808481008E+02  0.68169627654E+02 -0.36545265361E+03  0.37484727693E+03  0.47000000000E+01 0. -1.
        -13    1    4    4    0    0  0.60711101312E+01  0.13506413094E+02  0.97076104750E-01  0.14808477189E+02  0.00000000000E+00 0.  1.
         14    1    4    4    0    0  0.12695575958E+01 -0.42238352338E+02 -0.17282805777E+03  0.17791916068E+03  0.00000000000E+00 0. -1.
         -5    1    5    5    0  501 -0.47301316908E+02 -0.41213004758E+02 -0.13159377695E+03  0.14585931055E+03  0.47000000000E+01 0.  1.
         13    1    6    6    0    0  0.68780932411E+02  0.11159124341E+02 -0.23069092648E+03  0.24098474283E+03  0.00000000000E+00 0. -1.
        -14    1    6    6    0    0  0.18988197778E+02 -0.93838079937E+01 -0.29179043518E+01  0.21380403951E+02  0.00000000000E+00 0.  1.
</event>
<event>
12    1  0.2614920E-002  0.1904632E+03  0.7818608E-02  0.1158044E+00
          1   -1    0    0  502    0  0.00000000000E+00  0.00000000000E+00  0.20439883166E+04  0.20439883166E+04  0.00000000000E+00 0.  1.
         -1   -1    0    0    0  501 -0.00000000000E+00 -0.00000000000E+00 -0.55460177544E+02  0.55460177544E+02  0.00000000000E+00 0. -1.
          6    2    1    2  502    0 -0.80919664572E+02  0.15195962986E+02  0.12807127942E+03  0.22923265660E+03  0.17136641688E+03 0.  0.
         24    2    3    3    0    0 -0.95641795213E+01  0.55910987243E+02  0.30922415915E+02  0.10191686761E+03  0.78824742770E+02 0.  0.
         -6    2    1    2    0  501  0.80919664572E+02 -0.15195962986E+02  0.18604568596E+04  0.18702158375E+04  0.17212972727E+03 0.  0.
        -24    2    5    5    0    0  0.11265195645E+03  0.24643400915E+01  0.10558652825E+04  0.10647914025E+04  0.78947448742E+02 0.  0.
          5    1    3    3  502    0 -0.71355485050E+02 -0.40715024257E+02  0.97148863501E+02  0.12731578899E+03  0.47000000000E+01 0. -1.
        -11    1    4    4    0    0 -0.65763133902E+01  0.90875246517E+01  0.50018508579E+02  0.51260922764E+02  0.00000000000E+00 0.  1.
         12    1    4    4    0    0 -0.29878661311E+01  0.46823462592E+02 -0.19096092664E+02  0.50655944845E+02  0.00000000000E+00 0. -1.
         -5    1    5    5    0  501 -0.31732291880E+02 -0.17660303078E+02  0.80459157706E+03  0.80542443503E+03  0.47000000000E+01 0.  1.
         11    1    6    6    0    0  0.58664292389E+02 -0.14717026586E+02  0.26128587467E+03  0.26819470237E+03  0.00000000000E+00 0. -1.
        -12    1    6    6    0    0  0.53987664063E+02  0.17181366677E+02  0.79457940787E+03  0.79659670012E+03  0.00000000000E+00 0.  1.
</event>
<event>
12    1  0.2614920E-002  0.1720105E+03  0.7818608E-02  0.1175767E+00
         -1   -1    0    0    0  501 -0.00000000000E+00  0.00000000000E+00  0.16562564071E+03  0.16562564071E+03  0.00000000000E+00 0.  1.
          1   -1    0    0  502    0  0.00000000000E+00 -0.00000000000E+00 -0.17979540240E+03  0.17979540240E+03  0.00000000000E+00 0. -1.
          6    2    1    2  502    0 -0.55321349721E+01  0.15415500915E+02  0.67421975257E+01  0.17233451633E+03  0.17142195339E+03 0.  0.
         24    2    3    3    0    0 -0.40569409447E+02  0.60952162462E+02  0.16251434961E+02  0.11390752133E+03  0.85730806518E+02 0.  0.
         -6    2    1    2    0  501  0.55321349721E+01 -0.15415500915E+02 -0.20911959214E+02  0.17308652678E+03  0.17103623455E+03 0.  0.
        -24    2    5    5    0    0  0.47728584923E+02  0.13571871551E+02 -0.56621641056E+02  0.11049196209E+03  0.80871811742E+02 0.  0.
          5    1    3    3  502    0  0.35037274474E+02 -0.45536661546E+02 -0.95092374356E+01  0.58426994994E+02  0.47000000000E+01 0. -1.
        -13    1    4    4    0    0 -0.28384458489E+02 -0.10542323412E+02 -0.16327639752E+02  0.34400725086E+02  0.00000000000E+00 0.  1.
         14    1    4    4    0    0 -0.12184950958E+02  0.71494485873E+02  0.32579074713E+02  0.79506796246E+02  0.00000000000E+00 0. -1.
         -5    1    5    5    0  501 -0.42196449951E+02 -0.28987372466E+02  0.35709681842E+02  0.62594564686E+02  0.47000000000E+01 0.  1.
         13    1    6    6    0    0 -0.10436424225E+02 -0.22954909878E+02 -0.84277281558E+01  0.26587091604E+02  0.00000000000E+00 0. -1.
        -14    1    6    6    0    0  0.58165009148E+02  0.36526781429E+02 -0.48193912900E+02  0.83904870486E+02  0.00000000000E+00 0.  1.
</event>
<event>
12    1  0.2614920E-002  0.2331875E+03  0.7818608E-02  0.1124416E+00
          2   -1    0    0  502    0  0.00000000000E+00  0.00000000000E+00  0.72780340251E+03  0.72780340251E+03  0.00000000000E+00 0.  1.
         -2   -1    0    0    0  501 -0.00000000000E+00 -0.00000000000E+00 -0.81278519154E+02  0.81278519154E+02  0.00000000000E+00 0. -1.
          6    2    1    2  502    0  0.11543439344E+03 -0.11625702286E+03  0.42984971742E+03  0.48614420600E+03  0.15724062742E+03 0.  0.
         24    2    3    3    0    0  0.12579566974E+03 -0.13321738056E+03  0.34734721731E+03  0.40115148687E+03  0.81859666754E+02 0.  0.
         -6    2    1    2    0  501 -0.11543439344E+03  0.11625702286E+03  0.21667516594E+03  0.32293771566E+03  0.17464205139E+03 0.  0.
        -24    2    5    5    0    0 -0.92254219573E+02  0.15115721814E+03  0.15394390600E+03  0.24735567372E+03  0.78273606675E+02 0.  0.
          5    1    3    3  502    0 -0.10361276306E+02  0.16960357701E+02  0.82502500113E+02  0.84992719129E+02  0.47000000000E+01 0. -1.
        -11    1    4    4    0    0  0.82696698613E+02 -0.36173237077E+02  0.20103772610E+03  0.22037108331E+03  0.00000000000E+00 0.  1.
         12    1    4    4    0    0  0.43098971128E+02 -0.97044143482E+02  0.14630949120E+03  0.18078040356E+03  0.00000000000E+00 0. -1.
         -5    1    5    5    0  501 -0.23180173862E+02 -0.34900195282E+02  0.62731259936E+02  0.75582041943E+02  0.47000000000E+01 0.  1.
         13    1    6    6    0    0 -0.68235211755E+02  0.14282198282E+03  0.15549426246E+03  0.22188426839E+03  0.00000000000E+00 0. -1.
        -14    1    6    6    0    0 -0.24019007818E+02  0.83352353200E+01 -0.15503564609E+01  0.25471405331E+02  0.00000000000E+00 0.  1.
</event>
<event>
12    1  0.2614920E-002  0.1869051E+03  0.7818608E-02  0.1161283E+00
          2   -1    0    0  502    0  0.00000000000E+00  0.00000000000E+00  0.42436278695E+03  0.42436278695E+03  0.00000000000E+00 0.  1.
         -2   -1    0    0    0  501 -0.00000000000E+00 -0.00000000000E+00 -0.95830942146E+02  0.95830942146E+02  0.00000000000E+00 0. -1.
          6    2    1    2  502    0 -0.14662057483E+02 -0.85682531011E+02  0.26499099948E+03  0.32679651729E+03  0.17035040903E+03 0.  0.
         24    2    3    3    0    0 -0.61497242357E+02 -0.15818428733E+02  0.12046461392E+03  0.15951085308E+03  0.83065369055E+02 0.  0.
         -6    2    1    2    0  501  0.14662057483E+02  0.85682531011E+02  0.63540845320E+02  0.19339721180E+03  0.16065046050E+03 0.  0.
        -24    2    5    5    0    0  0.41066021111E+02  0.11046542453E+03  0.46705606917E+02  0.15318681068E+03  0.85998588017E+02 0.  0.
          5    1    3    3  502    0  0.46835184874E+02 -0.69864102278E+02  0.14452638556E+03  0.16728566421E+03  0.47000000000E+01 0. -1.
        -11    1    4    4    0    0 -0.38669751674E+02 -0.37291102510E+02  0.11602491826E+03  0.12785835005E+03  0.00000000000E+00 0.  1.
         12    1    4    4    0    0 -0.22827490683E+02  0.21472673777E+02  0.44396956621E+01  0.31652503022E+02  0.00000000000E+00 0. -1.
         -5    1    5    5    0  501 -0.26403963628E+02 -0.24782893521E+02  0.16835238402E+02  0.40210401125E+02  0.47000000000E+01 0.  1.
         13    1    6    6    0    0  0.46347971804E+00  0.42781697098E+02 -0.22388951507E+02  0.48288234277E+02  0.00000000000E+00 0. -1.
        -14    1    6    6    0    0  0.40602541393E+02  0.67683727434E+02  0.69094558424E+02  0.10489857640E+03  0.00000000000E+00 0.  1.
</event>
<event>
12    1  0.2614920E-002  0.2417770E+03  0.7818608E-02  0.1118615E+00
          4   -1    0    0  502    0  0.00000000000E+00  0.00000000000E+00  0.39232177020E+03  0.39232177020E+03  0.00000000000E+00 0. -1.
         -4   -1    0    0    0  501 -0.00000000000E+00 -0.00000000000E+00 -0.20231398814E+03  0.20231398814E+03  0.00000000000E+00 0.  1.
          6    2    1    2  502    0 -0.17100926531E+03 -0.93281358096E+01 -0.57390442075E+02  0.24926347134E+03  0.17177727545E+03 0.  0.
         24    2    3    3    0    0 -0.44577023205E+02  0.46944105199E+02 -0.38564314788E+02  0.10952017088E+03  0.79477049798E+02 0.  0.
         -6    2    1    2    0  501  0.17100926531E+03  0.93281358096E+01  0.24739822413E+03  0.34537228700E+03  0.16954336432E+03 0.  0.
        -24    2    5    5    0    0  0.55954061500E+02  0.22576270675E+02  0.35110193645E+02  0.10350143119E+03  0.76415152719E+02 0.  0.
          5    1    3    3  502    0 -0.12643224211E+03 -0.56272241009E+02 -0.18826127287E+02  0.13974330045E+03  0.47000000000E+01 0. -1.
        -11    1    4    4    0    0 -0.61596569063E+02  0.41358770375E+02 -0.87082710940E+01  0.74702872721E+02  0.00000000000E+00 0.  1.
         12    1    4    4    0    0  0.17019545858E+02  0.55853348241E+01 -0.29856043694E+02  0.34817298163E+02  0.00000000000E+00 0. -1.
         -5    1    5    5    0  501  0.11505520381E+03 -0.13248134866E+02  0.21228803049E+03  0.24187085581E+03  0.47000000000E+01 0.  1.
         11    1    6    6    0    0 -0.41155674475E+01  0.26536124114E+02  0.33955119659E+02  0.43290344530E+02  0.00000000000E+00 0. -1.
        -12    1    6    6    0    0  0.60069628948E+02 -0.39598534386E+01  0.11550739856E+01  0.60211086662E+02  0.00000000000E+00 0.  1.
</event>
<event>
12    1  0.2614920E-002  0.1804081E+03  0.7818608E-02  0.1167409E+00
          1   -1    0    0  502    0  0.00000000000E+00  0.00000000000E+00  0.21788557279E+04  0.21788557279E+04  0.00000000000E+00 0.  1.
         -1   -1    0    0    0  501 -0.00000000000E+00 -0.00000000000E+00 -0.22637907395E+02  0.22637907395E+02  0.00000000000E+00 0. -1.
          6    2    1    2  502    0 -0.57982293582E+02  0.42254548372E+02  0.17414245510E+04  0.17513411717E+04  0.17172373042E+03 0.  0.
         24    2    3    3    0    0 -0.26298710197E+02  0.90277710933E+02  0.13576568510E+04  0.13632563728E+04  0.79963276175E+02 0.  0.
         -6    2    1    2    0  501  0.57982293582E+02 -0.42254548372E+02  0.41479326949E+03  0.45015246360E+03  0.15948790186E+03 0.  0.
        -24    2    5    5    0    0  0.56664718868E+02 -0.36905189065E+02  0.12764088451E+03  0.16290877986E+03  0.75327231542E+02 0.  0.
          5    1    3    3  502    0 -0.31683583385E+02 -0.48023162560E+02  0.38376769993E+03  0.38808479886E+03  0.47000000000E+01 0. -1.
        -11    1    4    4    0    0 -0.94903527831E+01 -0.14380920236E+02  0.16425313186E+03  0.16515437925E+03  0.00000000000E+00 0.  1.
         12    1    4    4    0    0 -0.16808357413E+02  0.10465863117E+03  0.11934037192E+04  0.11981019935E+04  0.00000000000E+00 0. -1.
         -5    1    5    5    0  501  0.13175747139E+01 -0.53493593074E+01  0.28715238498E+03  0.28724368374E+03  0.47000000000E+01 0.  1.
         11    1    6    6    0    0 -0.36488953224E+01  0.18659574969E+02  0.20104291319E+02  0.27670863820E+02  0.00000000000E+00 0. -1.
        -12    1    6    6    0    0  0.60313614190E+02 -0.55564764034E+02  0.10753659320E+03  0.13523791604E+03  0.00000000000E+00 0.  1.
</event>
<event>
12    1  0.2614920E-002  0.1752004E+03  0.7818608E-02  0.1172531E+00
          1   -1    0    0  502    0  0.00000000000E+00  0.00000000000E+00  0.31337116830E+03  0.31337116830E+03  0.00000000000E+00 0. -1.
         -1   -1    0    0    0  501 -0.00000000000E+00 -0.00000000000E+00 -0.10041098771E+03  0.10041098771E+03  0.00000000000E+00 0.  1.
          6    2    1    2  502    0 -0.42298827372E+02  0.18136740322E+02  0.73369493498E+02  0.18875506580E+03  0.16771183662E+03 0.  0.
         24    2    3    3    0    0 -0.85092198933E+02  0.15332657213E+01  0.16739019370E+02  0.11570680354E+03  0.76582219827E+02 0.  0.
         -6    2    1    2    0  501  0.42298827372E+02 -0.18136740322E+02  0.13959068709E+03  0.22502709021E+03  0.17039219248E+03 0.  0.
        -24    2    5    5    0    0  0.20091935640E+02 -0.37162669735E+02  0.16351460206E+03  0.18695379592E+03  0.80186949196E+02 0.  0.
          5    1    3    3  502    0  0.42793371561E+02  0.16603474600E+02  0.56630474128E+02  0.73048262254E+02  0.47000000000E+01 0. -1.
        -11    1    4    4    0    0 -0.38568193049E+02 -0.31980353717E+02 -0.12073635946E+02  0.51536600818E+02  0.00000000000E+00 0.  1.
         12    1    4    4    0    0 -0.46524005884E+02  0.33513619438E+02  0.28812655317E+02  0.64170202725E+02  0.00000000000E+00 0. -1.
         -5    1    5    5    0  501  0.22206891732E+02  0.19025929413E+02 -0.23923914972E+02  0.38073294289E+02  0.47000000000E+01 0.  1.
         11    1    6    6    0    0  0.20937099510E+02 -0.37835164970E+02  0.28177396629E+02  0.51612280757E+02  0.00000000000E+00 0. -1.
        -12    1    6    6    0    0 -0.84516386988E+00  0.67249523493E+00  0.13533720543E+03  0.13534151516E+03  0.00000000000E+00 0.  1.
</event>
<event>
12    1  0.2614920E-002  0.2247121E+03  0.7818608E-02  0.1130418E+00
          2   -1    0    0  502    0  0.00000000000E+00  0.00000000000E+00  0.27944619681E+03  0.27944619681E+03  0.00000000000E+00 0.  1.
         -2   -1    0    0    0  501 -0.00000000000E+00 -0.00000000000E+00 -0.18211830286E+03  0.18211830286E+03  0.00000000000E+00 0. -1.
          6    2    1    2  502    0 -0.14630930439E+03 -0.27603529503E+00  0.28479518837E+02  0.22731918324E+03  0.17162878351E+03 0.  0.
         24    2    3    3    0    0 -0.12966104170E+03  0.19356085555E+02 -0.36076745126E+02  0.15766154880E+03  0.79805943686E+02 0.  0.
         -6    2    1    2    0  501  0.14630930439E+03  0.27603529503E+00  0.68848375109E+02  0.23424531643E+03  0.16948239073E+03 0.  0.
        -24    2    5    5    0    0  0.62507250888E+02 -0.58938924859E+02  0.12647983875E+02  0.11715659088E+03  0.78643130742E+02 0.  0.
          5    1    3    3  502    0 -0.16648262692E+02 -0.19632120850E+02  0.64556263963E+02  0.69657634446E+02  0.47000000000E+01 0. -1.
        -11    1    4    4    0    0 -0.29729426968E+02 -0.28926819537E+02 -0.18584385112E+01  0.41521723351E+02  0.00000000000E+00 0.  1.
         12    1    4    4    0    0 -0.99931614730E+02  0.48282905092E+02 -0.34218306615E+02  0.11613982544E+03  0.00000000000E+00 0. -1.
         -5    1    5    5    0  501  0.83802053502E+02  0.59214960154E+02  0.56200391234E+02  0.11708872555E+03  0.47000000000E+01 0.  1.
         13    1    6    6    0    0  0.31350817296E+02 -0.49565330872E+02  0.42951725170E+02  0.72694198287E+02  0.00000000000E+00 0. -1.
        -14    1    6    6    0    0  0.31156433592E+02 -0.93735939866E+01 -0.30303741295E+02  0.44462392591E+02  0.00000000000E+00 0.  1.
</event>
<event>
12    1  0.2614920E-002  0.2095723E+03  0.7818608E-02  0.1141905E+00
         -2   -1    0    0    0  501 -0.00000000000E+00  0.00000000000E+00  0.18137191122E+03  0.18137191122E+03  0.00000000000E+00 0.  1.
          2   -1    0    0  502    0  0.00000000000E+00 -0.00000000000E+00 -0.38136010530E+03  0.38136010530E+03  0.00000000000E+00 0. -1.
          6    2    1    2  502    0 -0.10681499939E+03  0.53416594589E+02  0.69923169745E+02  0.22116180462E+03  0.17251236908E+03 0.  0.
         24    2    3    3    0    0 -0.11902108808E+03  0.67958032855E+02  0.89237808163E+02  0.19367385662E+03  0.10373939799E+03 0.  0.
         -6    2    1    2    0  501  0.10681499939E+03 -0.53416594589E+02 -0.26991136382E+03  0.34157021189E+03  0.17191651654E+03 0.  0.
        -24    2    5    5    0    0  0.70322537051E+01 -0.59536959424E+02 -0.90404531258E+02  0.13604929291E+03  0.82111684304E+02 0.  0.
          5    1    3    3  502    0  0.12206088692E+02 -0.14541438266E+02 -0.19314638418E+02  0.27487948000E+02  0.47000000000E+01 0. -1.
        -13    1    4    4    0    0 -0.11883434363E+02 -0.19654566526E+02  0.41209149678E+02  0.47177452398E+02  0.00000000000E+00 0.  1.
         14    1    4    4    0    0 -0.10713765372E+03  0.87612599380E+02  0.48028658485E+02  0.14649640423E+03  0.00000000000E+00 0. -1.
         -5    1    5    5    0  501  0.99782745687E+02  0.61203648358E+01 -0.17950683257E+03  0.20552091898E+03  0.47000000000E+01 0.  1.
         11    1    6    6    0    0  0.17447053900E+02  0.28969609969E+01 -0.65805515449E+02  0.68140721571E+02  0.00000000000E+00 0. -1.
        -12    1    6    6    0    0 -0.10414800195E+02 -0.62433920421E+02 -0.24599015810E+02  0.67908571337E+02  0.00000000000E+00 0.  1.
</event>
<event>
12    1  0.2614920E-002  0.1680383E+03  0.7818608E-02  0.1179909E+00
         -1   -1    0    0    0  501 -0.00000000000E+00  0.00000000000E+00  0.15817505408E+03  0.15817505408E+03  0.00000000000E+00 0. -1.
          1   -1    0    0  502    0  0.00000000000E+00 -0.00000000000E+00 -0.19181860640E+03  0.19181860640E+03  0.00000000000E+00 0.  1.
          6    2    1    2  502    0 -0.87898132021E+01 -0.82791293909E+01 -0.62042192190E+02  0.17408134297E+03  0.16220134266E+03 0.  0.
         24    2    3    3    0    0  0.49661541612E+02 -0.24845646761E+02 -0.56301730454E+02  0.11287633273E+03  0.80545681206E+02 0.  0.
         -6    2    1    2    0  501  0.87898132021E+01  0.82791293909E+01  0.28398639869E+02  0.17591231751E+03  0.17318445630E+03 0.  0.
        -24    2    5    5    0    0  0.22158200480E+02 -0.10751325909E+02  0.83713829174E+02  0.11572318082E+03  0.76008371424E+02 0.  0.
          5    1    3    3  502    0 -0.58451354814E+02  0.16566517370E+02 -0.57404617360E+01  0.61205010239E+02  0.47000000000E+01 0. -1.
        -11    1    4    4    0    0 -0.73843288506E+01 -0.36369443234E+02 -0.34674340513E+02  0.50789512734E+02  0.00000000000E+00 0.  1.
         12    1    4    4    0    0  0.57045870463E+02  0.11523796473E+02 -0.21627389941E+02  0.62086820000E+02  0.00000000000E+00 0. -1.
         -5    1    5    5    0  501 -0.13368387278E+02  0.19030455300E+02 -0.55315189305E+02  0.60189136687E+02  0.47000000000E+01 0.  1.
         11    1    6    6    0    0  0.84554953339E+00 -0.33007736181E+02  0.79930520709E+01  0.33972260496E+02  0.00000000000E+00 0. -1.
        -12    1    6    6    0    0  0.21312650947E+02  0.22256410272E+02  0.75720777103E+02  0.81750920323E+02  0.00000000000E+00 0.  1.
</event>
<event>
12    1  0.2614920E-002  0.2451112E+03  0.7818608E-02  0.1116434E+00
          2   -1    0    0  502    0  0.00000000000E+00  0.00000000000E+00  0.82860721723E+03  0.82860721723E+03  0.00000000000E+00 0.  1.
         -2   -1    0    0    0  501 -0.00000000000E+00 -0.00000000000E+00 -0.13296379151E+03  0.13296379151E+03  0.00000000000E+00 0. -1.
          6    2    1    2  502    0 -0.17265047882E+03 -0.22403335148E+02  0.23937444642E+02  0.24667855610E+03  0.17311040270E+03 0.  0.
         24    2    3    3    0    0 -0.16893168393E+03 -0.25001463822E+02  0.69459101940E+02  0.20069061213E+03  0.79304274305E+02 0.  0.
         -6    2    1    2    0  501  0.17265047882E+03  0.22403335148E+02  0.67170598108E+03  0.71489245264E+03  0.17196568424E+03 0.  0.
        -24    2    5    5    0    0  0.11581948166E+03 -0.48321407813E+02  0.34899020135E+03  0.37963238047E+03  0.81101620672E+02 0.  0.
          5    1    3    3  502    0 -0.37187948831E+01  0.25981286737E+01 -0.45521657299E+02  0.45987943977E+02  0.47000000000E+01 0. -1.
        -13    1    4    4    0    0 -0.83539026065E+02  0.26444087204E+02  0.42669911738E+02  0.97461684736E+02  0.00000000000E+00 0.  1.
         14    1    4    4    0    0 -0.85392657870E+02 -0.51445551025E+02  0.26789190202E+02  0.10322892739E+03  0.00000000000E+00 0. -1.
         -5    1    5    5    0  501  0.56830997157E+02  0.70724742961E+02  0.32271577973E+03  0.33526007217E+03  0.47000000000E+01 0.  1.
         13    1    6    6    0    0  0.90701319904E+02 -0.24567083401E+02  0.32297067789E+03  0.33636338950E+03  0.00000000000E+00 0. -1.
        -14    1    6    6    0    0  0.25118161757E+02 -0.23754324412E+02  0.26019523462E+02  0.43268990970E+02  0.00000000000E+00 0.  1.
</event>
<event>
12    1  0.2614920E-002  0.1785677E+03  0.7818608E-02  0.1169196E+00
         -1   -1    0    0    0  501 -0.00000000000E+00  0.00000000000E+00  0.11215645883E+02  0.11215645883E+02  0.00000000000E+00 0.  1.
          1   -1    0    0  502    0  0.00000000000E+00 -0.00000000000E+00 -0.28516923592E+04  0.28516923592E+04  0.00000000000E+00 0. -1.
          6    2    1    2  502    0  0.42641909695E+02 -0.18636791090E+02 -0.13399426402E+04  0.13517651559E+04  0.17221235486E+03 0.  0.
         24    2    3    3    0    0 -0.39312013734E+02  0.12833975029E+02 -0.57126444145E+03  0.57807586557E+03  0.78220834563E+02 0.  0.
         -6    2    1    2    0  501 -0.42641909695E+02  0.18636791090E+02 -0.15005340730E+04  0.15111428491E+04  0.17258199119E+03 0.  0.
        -24    2    5    5    0    0 -0.81041893651E+02  0.93899191706E+01 -0.13667628532E+04  0.13715832107E+04  0.80894054256E+02 0.  0.
          5    1    3    3  502    0  0.81953923430E+02 -0.31470766119E+02 -0.76867819880E+03  0.77368929035E+03  0.47000000000E+01 0. -1.
        -11    1    4    4    0    0 -0.18018325213E+01  0.34859018643E+02 -0.12773094381E+03  0.13241446970E+03  0.00000000000E+00 0.  1.
         12    1    4    4    0    0 -0.37510181213E+02 -0.22025043614E+02 -0.44353349764E+03  0.44566139587E+03  0.00000000000E+00 0. -1.
         -5    1    5    5    0  501  0.38399983955E+02  0.92468719193E+01 -0.13377121986E+03  0.13955963840E+03  0.47000000000E+01 0.  1.
         11    1    6    6    0    0 -0.24167369725E+02 -0.30982788290E+02 -0.30315447369E+03  0.30569041504E+03  0.00000000000E+00 0. -1.
        -12    1    6    6    0    0 -0.56874523926E+02  0.40372707461E+02 -0.10636083795E+04  0.10658927957E+04  0.00000000000E+00 0.  1.
</event>
<event>
12    1  0.2614920E-002  0.1838045E+03  0.7818608E-02  0.1164171E+00
         -2   -1    0    0    0  501 -0.00000000000E+00  0.00000000000E+00  0.31256923415E+02  0.31256923415E+02  0.00000000000E+00 0. -1.
          2   -1    0    0  502    0  0.00000000000E+00 -0.00000000000E+00 -0.11510437143E+04  0.11510437143E+04  0.00000000000E+00 0.  1.
          6    2    1    2  502    0  0.22070471079E+02 -0.61562940664E+02 -0.41203255511E+03  0.45090156800E+03  0.17106810397E+03 0.  0.
         24    2    3    3    0    0  0.57481365146E+02  0.17770415699E+01 -0.30918788798E+03  0.32494522507E+03  0.81761751473E+02 0.  0.
         -6    2    1    2    0  501 -0.22070471079E+02  0.61562940664E+02 -0.70775423577E+03  0.73139906971E+03  0.17248605615E+03 0.  0.
        -24    2    5    5    0    0  0.43343434897E+02 -0.10953174517E+02 -0.32176194347E+03  0.33321606434E+03  0.74186062602E+02 0.  0.
          5    1    3    3  502    0 -0.35410894067E+02 -0.63339982234E+02 -0.10284466713E+03  0.12595634293E+03  0.47000000000E+01 0. -1.
        -13    1    4    4    0    0  0.25401834585E+02  0.81499560451E+01 -0.18597078580E+02  0.32519629695E+02  0.00000000000E+00 0.  1.
         14    1    4    4    0    0  0.32079530561E+02 -0.63729144752E+01 -0.29059080940E+03  0.29242559537E+03  0.00000000000E+00 0. -1.
         -5    1    5    5    0  501 -0.65413905976E+02  0.72516115181E+02 -0.38599229230E+03  0.39818300537E+03  0.47000000000E+01 0.  1.
         13    1    6    6    0    0  0.45040415313E+02  0.16760653688E+02 -0.11558135390E+03  0.12517431003E+03  0.00000000000E+00 0. -1.
        -14    1    6    6    0    0 -0.16969804157E+01 -0.27713828204E+02 -0.20618058957E+03  0.20804175430E+03  0.00000000000E+00 0.  1.
</event>
<event>
12    1  0.2614920E-002  0.2350650E+03  0.7818608E-02  0.1123125E+00
         -1   -1    0    0    0  501 -0.00000000000E+00  0.00000000000E+00  0.23716781207E+03  0.23716781207E+03  0.00000000000E+00 0. -1.
          1   -1    0    0  502    0  0.00000000000E+00 -0.00000000000E+00 -0.27036536238E+03  0.27036536238E+03  0.00000000000E+00 0.  1.
          6    2    1    2  502    0  0.14964809297E+03 -0.53408818871E+02  0.77724672945E+02  0.24817350097E+03  0.17407443274E+03 0.  0.
         24    2    3    3    0    0  0.38975068191E+02  0.20269143605E+02 -0.63137321494E+01  0.90815615562E+02  0.79232055970E+02 0.  0.
         -6    2    1    2    0  501 -0.14964809297E+03  0.53408818871E+02 -0.11092222325E+03  0.25935967348E+03  0.17238517035E+03 0.  0.
        -24    2    5    5    0    0 -0.10106009663E+03  0.10141220905E+03 -0.93121650871E+02  0.18862022738E+03  0.80052289417E+02 0.  0.
          5    1    3    3  502    0  0.11067302478E+03 -0.73677962476E+02  0.84038405095E+02  0.15735788540E+03  0.47000000000E+01 0. -1.
        -11    1    4    4    0    0  0.17386360750E+02  0.24524933545E+02  0.33694127238E+02  0.45155864689E+02  0.00000000000E+00 0.  1.
         12    1    4    4    0    0  0.21588707441E+02 -0.42557899392E+01 -0.40007859387E+02  0.45659750873E+02  0.00000000000E+00 0. -1.
         -5    1    5    5    0  501 -0.48587996338E+02 -0.48003390184E+02 -0.17800572377E+02  0.70739446098E+02  0.47000000000E+01 0.  1.
         11    1    6    6    0    0 -0.57219783720E+01  0.88748796702E+01  0.14291309801E+02  0.17769244820E+02  0.00000000000E+00 0. -1.
        -12    1    6    6    0    0 -0.95338118259E+02  0.92537329384E+02 -0.10741296067E+03  0.17085098256E+03  0.00000000000E+00 0.  1.
</event>
<event>
12    1  0.2614920E-002  0.2190098E+03  0.7818608E-02  0.1134623E+00
          2   -1    0    0  502    0  0.00000000000E+00  0.00000000000E+00  0.86048632061E+03  0.86048632061E+03  0.00000000000E+00 0.  1.
         -2   -1    0    0    0  501 -0.00000000000E+00 -0.00000000000E+00 -0.62381657070E+02  0.62381657070E+02  0.00000000000E+00 0. -1.
          6    2    1    2  502    0  0.12861158450E+03  0.25150781107E+02  0.54696026220E+03  0.58858971449E+03  0.17349012111E+03 0.  0.
         24    2    3    3    0    0  0.83420036489E+02 -0.35575697518E+01  0.51145726860E+03  0.52417699855E+03  0.78749155004E+02 0.  0.
         -6    2    1    2    0  501 -0.12861158450E+03 -0.25150781107E+02  0.25114440133E+03  0.33427826318E+03  0.17746815336E+03 0.  0.
        -24    2    5    5    0    0 -0.11644154081E+03 -0.17383327609E+02  0.79980924578E+02  0.16244267585E+03  0.78293436102E+02 0.  0.
          5    1    3    3  502    0  0.45191548008E+02  0.28708350859E+02  0.35502993598E+02  0.64412715940E+02  0.47000000000E+01 0. -1.
        -11    1    4    4    0    0  0.52263755555E+01 -0.30889111403E+02  0.16575347636E+03  0.16868807643E+03  0.00000000000E+00 0.  1.
         12    1    4    4    0    0  0.78193660933E+02  0.27331541652E+02  0.34570379224E+03  0.35548892212E+03  0.00000000000E+00 0. -1.
         -5    1    5    5    0  501 -0.12170043683E+02 -0.77674534974E+01  0.17116347676E+03  0.17183558733E+03  0.47000000000E+01 0.  1.
         13    1    6    6    0    0 -0.55313367352E+02  0.12691249991E+02  0.75115384514E+02  0.94143281358E+02  0.00000000000E+00 0. -1.
        -14    1    6    6    0    0 -0.61128173461E+02 -0.30074577600E+02  0.48655400645E+01  0.68299394497E+02  0.00000000000E+00 0.  1.
</event>
<event>
12    1  0.2614920E-002  0.1809168E+03  0.7818608E-02  0.1166919E+00
         -1   -1    0    0    0  501 -0.00000000000E+00  0.00000000000E+00  0.64080132860E+02  0.64080132860E+02  0.00000000000E+00 0.  1.
          1   -1    0    0  502    0  0.00000000000E+00 -0.00000000000E+00 -0.52474224640E+03  0.52474224640E+03  0.00000000000E+00 0. -1.
          6    2    1    2  502    0  0.11935462790E+02 -0.54451883287E+02 -0.18054117850E+03  0.25455259264E+03  0.17057093077E+03 0.  0.
         24    2    3    3    0    0 -0.56871282382E+02 -0.13411993547E+02 -0.99723338739E+02  0.14065678959E+03  0.80158367227E+02 0.  0.
         -6    2    1    2    0  501 -0.11935462790E+02  0.54451883287E+02 -0.28012093504E+03  0.33426978662E+03  0.17366948244E+03 0.  0.
        -24    2    5    5    0    0 -0.26082048989E+02  0.88745038499E+02 -0.12505154550E+03  0.17475567448E+03  0.79659912099E+02 0.  0.
          5    1    3    3  502    0  0.68806745172E+02 -0.41039889740E+02 -0.80817839760E+02  0.11389580306E+03  0.47000000000E+01 0. -1.
        -13    1    4    4    0    0 -0.36484095403E+02 -0.41331776142E+02 -0.88578390640E+02  0.10433377317E+03  0.00000000000E+00 0.  1.
         14    1    4    4    0    0 -0.20387186980E+02  0.27919782594E+02 -0.11144948099E+02  0.36323016411E+02  0.00000000000E+00 0. -1.
         -5    1    5    5    0  501  0.14146586199E+02 -0.34293155213E+02 -0.15506938954E+03  0.15951411213E+03  0.47000000000E+01 0.  1.
         11    1    6    6    0    0 -0.22595115783E+02 -0.87262462431E+01 -0.30105147231E+02  0.38639442550E+02  0.00000000000E+00 0. -1.
        -12    1    6    6    0    0 -0.34869332063E+01  0.97471284743E+02 -0.94946398265E+02  0.13611623193E+03  0.00000000000E+00 0.  1.
</event>
<event>
12    1  0.2614920E-002  0.2171129E+03  0.7818608E-02  0.1136054E+00
         -3   -1    0    0    0  501 -0.00000000000E+00  0.00000000000E+00  0.64625413414E+03  0.64625413414E+03  0.00000000000E+00 0.  1.
          3   -1    0    0  502    0  0.00000000000E+00 -0.00000000000E+00 -0.97707770163E+02  0.97707770163E+02  0.00000000000E+00 0. -1.
          6    2    1    2  502    0 -0.47106431925E+02  0.12375408955E+03  0.46171351194E+03  0.51028455266E+03  0.17226975060E+03 0.  0.
         24    2    3    3    0    0 -0.30465716820E+02  0.14848630910E+03  0.29579758141E+03  0.34164653178E+03  0.79055674175E+02 0.  0.
         -6    2    1    2    0  501  0.47106431925E+02 -0.12375408955E+03  0.86832852038E+02  0.23367735164E+03  0.17184606445E+03 0.  0.
        -24    2    5    5    0    0  0.78790025209E+02 -0.86992021225E+02  0.96055795256E+01  0.14234585997E+03  0.79966223269E+02 0.  0.
          5    1    3    3  502    0 -0.16640715105E+02 -0.24732219553E+02  0.16591593052E+03  0.16863802088E+03  0.47000000000E+01 0. -1.
        -13    1    4    4    0    0 -0.22803837450E+02  0.90176909591E+02  0.25111089867E+03  0.26778456538E+03  0.00000000000E+00 0.  1.
         14    1    4    4    0    0 -0.76618793703E+01  0.58309399509E+02  0.44686682747E+02  0.73861966407E+02  0.00000000000E+00 0. -1.
         -5    1    5    5    0  501 -0.31683593283E+02 -0.36762068322E+02  0.77227272513E+02  0.91331491669E+02  0.47000000000E+01 0.  1.
         13    1    6    6    0    0  0.61954939255E+02 -0.89844609082E+02 -0.17281696099E+02  0.11049491074E+03  0.00000000000E+00 0. -1.
        -14    1    6    6    0    0  0.16835085954E+02  0.28525878566E+01  0.26887275624E+02  0.31850949233E+02  0.00000000000E+00 0.  1.
</event>
<event>
12    1  0.2614920E-002  0.2322943E+03  0.7818608E-02  0.1125035E+00
          1   -1    0    0  502    0  0.00000000000E+00  0.00000000000E+00  0.91666741859E+03  0.91666741859E+03  0.00000000000E+00 0.  1.
         -1   -1    0    0    0  501 -0.00000000000E+00 -0.00000000000E+00 -0.69370425979E+02  0.69370425979E+02  0.00000000000E+00 0. -1.
          6    2    1    2  502    0 -0.14900815575E+03 -0.50407118208E+02  0.61599721121E+03  0.65845555954E+03  0.17136759213E+03 0.  0.
         24    2    3    3    0    0 -0.11548067941E+03 -0.99485372365E+02  0.42794438769E+03  0.46117727606E+03  0.79466687157E+02 0.  0.
         -6    2    1    2    0  501  0.14900815575E+03  0.50407118208E+02  0.23129978141E+03  0.32758228503E+03  0.17048828857E+03 0.  0.
        -24    2    5    5    0    0  0.74649522861E+02 -0.30334569582E+02  0.16134721287E+03  0.19733683106E+03  0.80100963913E+02 0.  0.
          5    1    3    3  502    0 -0.33527476344E+02  0.49078254157E+02  0.18805282352E+03  0.19727828349E+03  0.47000000000E+01 0. -1.
        -11    1    4    4    0    0 -0.58340717119E+02 -0.65178745774E+02  0.33857548121E+03  0.34969310066E+03  0.00000000000E+00 0.  1.
         12    1    4    4    0    0 -0.57139962291E+02 -0.34306626592E+02  0.89368906479E+02  0.11148417540E+03  0.00000000000E+00 0. -1.
         -5    1    5    5    0  501  0.74358632893E+02  0.80741687790E+02  0.69952568542E+02  0.13024545397E+03  0.47000000000E+01 0.  1.
         13    1    6    6    0    0 -0.10274916743E+02 -0.16722510106E+02  0.73668700465E+01  0.20963946017E+02  0.00000000000E+00 0. -1.
        -14    1    6    6    0    0  0.84924439604E+02 -0.13612059476E+02  0.15398034282E+03  0.17637288505E+03  0.00000000000E+00 0.  1.
</event>
<event>
12    1  0.2614920E-002  0.1839250E+03  0.7818608E-02  0.1164058E+00
          2   -1    0    0  502    0  0.00000000000E+00  0.00000000000E+00  0.63349822549E+03  0.63349822549E+03  0.00000000000E+00 0. -1.
         -2   -1    0    0    0  501 -0.00000000000E+00 -0.00000000000E+00 -0.10694203572E+03  0.10694203572E+03  0.00000000000E+00 0.  1.
          6    2    1    2  502    0  0.63765715516E+02 -0.81437504424E+00  0.13410973857E+01  0.18396276229E+03  0.17255077422E+03 0.  0.
         24    2    3    3    0    0  0.31645627513E+02  0.49325363434E+02  0.56702779777E+02  0.10252137659E+03  0.62136866708E+02 0.  0.
         -6    2    1    2    0  501 -0.63765715516E+02  0.81437504424E+00  0.52521509239E+03  0.55647749892E+03  0.17248067675E+03 0.  0.
        -24    2    5    5    0    0 -0.37124642669E+02 -0.61040986789E+02  0.22435437063E+03  0.24813500032E+03  0.78306153012E+02 0.  0.
          5    1    3    3  502    0  0.32120088003E+02 -0.50139738478E+02 -0.55361682391E+02  0.81441385702E+02  0.47000000000E+01 0. -1.
        -13    1    4    4    0    0 -0.14901212048E+02  0.32709006436E+02  0.25542371515E+02  0.44094647806E+02  0.00000000000E+00 0.  1.
         14    1    4    4    0    0  0.46546839561E+02  0.16616356998E+02  0.31160408262E+02  0.58426728781E+02  0.00000000000E+00 0. -1.
         -5    1    5    5    0  501 -0.26641072847E+02  0.61855361833E+02  0.30086072176E+03  0.30834249861E+03  0.47000000000E+01 0.  1.
         13    1    6    6    0    0  0.60856075544E+01 -0.23017702818E+02  0.16014148659E+03  0.16190165221E+03  0.00000000000E+00 0. -1.
        -14    1    6    6    0    0 -0.43210250223E+02 -0.38023283971E+02  0.64212884043E+02  0.86233348105E+02  0.00000000000E+00 0.  1.
</event>
<event>
12    1  0.2614920E-002  0.1726002E+03  0.7818608E-02  0.1175163E+00
          1   -1    0    0  502    0  0.00000000000E+00  0.00000000000E+00  0.72298134192E+02  0.72298134192E+02  0.00000000000E+00 0. -1.
         -1   -1    0    0    0  501 -0.00000000000E+00 -0.00000000000E+00 -0.41205658583E+03  0.41205658583E+03  0.00000000000E+00 0.  1.
          6    2    1    2  502    0 -0.11344536203E+02  0.24938446600E+01 -0.16963636235E+03  0.24209885537E+03  0.17233816344E+03 0.  0.
         24    2    3    3    0    0  0.91979488240E+01 -0.53318832583E+02 -0.10147220009E+03  0.15151468651E+03  0.98653903454E+02 0.  0.
         -6    2    1    2    0  501  0.11344536203E+02 -0.24938446600E+01 -0.17012208929E+03  0.24225586465E+03  0.17207980977E+03 0.  0.
        -24    2    5    5    0    0 -0.64878386787E+01  0.30694638893E+02 -0.17435813708E+02  0.84919734707E+02  0.76961684204E+02 0.  0.
          5    1    3    3  502    0 -0.20542485027E+02  0.55812677243E+02 -0.68164162259E+02  0.90584168863E+02  0.47000000000E+01 0. -1.
        -11    1    4    4    0    0 -0.25835960555E+02 -0.62643010542E+02 -0.91602979737E+02  0.11394186906E+03  0.00000000000E+00 0.  1.
         12    1    4    4    0    0  0.35033909379E+02  0.93241779596E+01 -0.98692203529E+01  0.37572817453E+02  0.00000000000E+00 0. -1.
         -5    1    5    5    0  501  0.17832374882E+02 -0.33188483553E+02 -0.15268627558E+03  0.15733612994E+03  0.47000000000E+01 0.  1.
         13    1    6    6    0    0  0.29121938492E+02  0.22465842841E+02 -0.28724423558E+02  0.46667910868E+02  0.00000000000E+00 0. -1.
        -14    1    6    6    0    0 -0.35609777171E+02  0.82287960521E+01  0.11288609850E+02  0.38251823838E+02  0.00000000000E+00 0.  1.
</event>
<event>
12    1  0.2614920E-002  0.1859437E+03  0.7818608E-02  0.1162172E+00
          1   -1    0    0  502    0  0.00000000000E+00  0.00000000000E+00  0.33210739911E+03  0.33210739911E+03  0.00000000000E+00 0. -1.
         -1   -1    0    0    0  501 -0.00000000000E+00 -0.00000000000E+00 -0.10851780734E+03  0.10851780734E+03  0.00000000000E+00 0.  1.
          6    2    1    2  502    0  0.10135191111E+02  0.70525788557E+02  0.67253787008E+02  0.19752012941E+03  0.17150662001E+03 0.  0.
         24    2    3    3    0    0  0.62863763365E+02  0.18420333504E+02  0.71226919925E+02  0.12313493893E+03  0.76143139100E+02 0.  0.
         -6    2    1    2    0  501 -0.10135191111E+02 -0.70525788557E+02  0.15633580476E+03  0.24310507704E+03  0.17199588856E+03 0.  0.
        -24    2    5    5    0    0 -0.27383178899E+02  0.24842801256E+02  0.58907137196E+02  0.10560199973E+03  0.79465264575E+02 0.  0.
          5    1    3    3  502    0 -0.52728572254E+02  0.52105455053E+02 -0.39731329170E+01  0.74385190485E+02  0.47000000000E+01 0. -1.
        -13    1    4    4    0    0  0.10646630887E+02 -0.26592604460E+02  0.83741575847E+01  0.29843657223E+02  0.00000000000E+00 0.  1.
         14    1    4    4    0    0  0.52217132477E+02  0.45012937964E+02  0.62852762341E+02  0.93291281705E+02  0.00000000000E+00 0. -1.
         -5    1    5    5    0  501  0.17247987788E+02 -0.95368589813E+02  0.97428667562E+02  0.13750307731E+03  0.47000000000E+01 0.  1.
         13    1    6    6    0    0  0.14199792007E+02 -0.12890697960E+02  0.43245880281E+02  0.47307614062E+02  0.00000000000E+00 0. -1.
        -14    1    6    6    0    0 -0.41582970906E+02  0.37733499216E+02  0.15661256915E+02  0.58294385670E+02  0.00000000000E+00 0.  1.
</event>
<event>
12    1  0.2614920E-002  0.2108547E+03  0.7818608E-02  0.1140891E+00
         -2   -1    0    0    0  501 -0.00000000000E+00  0.00000000000E+00  0.11917751044E+04  0.11917751044E+04  0.00000000000E+00 0.  1.
          2   -1    0    0  502    0  0.00000000000E+00 -0.00000000000E+00 -0.44227348465E+02  0.44227348465E+02  0.00000000000E+00 0. -1.
          6    2    1    2  502    0  0.12209682385E+03  0.11838463928E+02  0.33071100398E+03  0.39254400088E+03  0.17225922575E+03 0.  0.
         24    2    3    3    0    0  0.10711676815E+03  0.27234663866E+02  0.34210546431E+03  0.36777771800E+03  0.77514980547E+02 0.  0.
         -6    2    1    2    0  501 -0.12209682385E+03 -0.11838463928E+02  0.81683675198E+03  0.84345845200E+03  0.17073985255E+03 0.  0.
        -24    2    5    5    0    0 -0.62711251347E+02  0.54458333756E+02  0.55518581846E+03  0.56704352365E+03  0.80054066316E+02 0.  0.
          5    1    3    3  502    0  0.14980055702E+02 -0.15396199938E+02 -0.11394460339E+02  0.24766282882E+02  0.47000000000E+01 0. -1.
        -11    1    4    4    0    0 -0.95348340329E+01 -0.20543692787E+01  0.64567007838E+02  0.65299555851E+02  0.00000000000E+00 0.  1.
         12    1    4    4    0    0  0.11665160218E+03  0.29289033145E+02  0.27753845648E+03  0.30247816215E+03  0.00000000000E+00 0. -1.
         -5    1    5    5    0  501 -0.59385572502E+02 -0.66296797684E+02  0.26165093352E+03  0.27641492835E+03  0.47000000000E+01 0.  1.
         13    1    6    6    0    0  0.83074740162E+01 -0.88436010520E+01  0.19436430907E+02  0.22912840298E+02  0.00000000000E+00 0. -1.
        -14    1    6    6    0    0 -0.71018725363E+02  0.63301934808E+02  0.53574938755E+03  0.54413068335E+03  0.00000000000E+00 0.  1.
</event>
<event>
12    1  0.2614920E-002  0.1828506E+03  0.7818608E-02  0.1165072E+00
         -1   -1    0    0    0  501 -0.00000000000E+00  0.00000000000E+00  0.12285263626E+03  0.12285263626E+03  0.00000000000E+00 0. -1.
          1   -1    0    0  502    0  0.00000000000E+00 -0.00000000000E+00 -0.27940798368E+03  0.27940798368E+03  0.00000000000E+00 0.  1.
          6    2    1    2  502    0 -0.24437157010E+01  0.48815870157E+02 -0.44473538128E+02  0.18427247362E+03  0.17201595280E+03 0.  0.
         24    2    3    3    0    0 -0.16791937119E+02  0.56310002286E+02  0.33269578032E+02  0.10472301992E+03  0.80045365694E+02 0.  0.
         -6    2    1    2    0  501  0.24437157010E+01 -0.48815870157E+02 -0.11208180929E+03  0.21798814632E+03  0.18046478614E+03 0.  0.
        -24    2    5    5    0    0 -0.28253178081E+02  0.21938047892E+02 -0.80734490511E+01  0.88418685385E+02  0.80455971367E+02 0.  0.
          5    1    3    3  502    0  0.14348221418E+02 -0.74941321291E+01 -0.77743116160E+02  0.79549453703E+02  0.47000000000E+01 0. -1.
        -11    1    4    4    0    0 -0.56423180328E+01  0.13690865385E+02 -0.26569161989E+02  0.30417033329E+02  0.00000000000E+00 0.  1.
         12    1    4    4    0    0 -0.11149619086E+02  0.42619136902E+02  0.59838740021E+02  0.74305986591E+02  0.00000000000E+00 0. -1.
         -5    1    5    5    0  501  0.30696893782E+02 -0.70753918049E+02 -0.10400836024E+03  0.12956946094E+03  0.47000000000E+01 0.  1.
         13    1    6    6    0    0 -0.49226036130E+01  0.40821436282E+00  0.34756584762E+02  0.35105823586E+02  0.00000000000E+00 0. -1.
        -14    1    6    6    0    0 -0.23330574468E+02  0.21529833529E+02 -0.42830033813E+02  0.53312861799E+02  0.00000000000E+00 0.  1.
</event>
<event>
12    1  0.2614920E-002  0.2032701E+03  0.7818608E-02  0.1147009E+00
          2   -1    0    0  502    0  0.00000000000E+00  0.00000000000E+00  0.21859409214E+04  0.21859409214E+04  0.00000000000E+00 0. -1.
         -2   -1    0    0    0  501 -0.00000000000E+00 -0.00000000000E+00 -0.19632556552E+02  0.19632556552E+02  0.00000000000E+00 0.  1.
          6    2    1    2  502    0 -0.12051917897E+02 -0.10660592832E+03  0.12953735040E+04  0.13112097850E+04  0.17253554046E+03 0.  0.
         24    2    3    3    0    0  0.41380868264E+02 -0.27304967274E+02  0.40546022687E+03  0.41616149810E+03  0.79589317324E+02 0.  0.
         -6    2    1    2    0  501  0.12051917897E+02  0.10660592832E+03  0.87093486089E+03  0.89436369299E+03  0.17276808375E+03 0.  0.
        -24    2    5    5    0    0 -0.69812964218E+01  0.13185608387E+03  0.81869533228E+03  0.83311916710E+03  0.79942067471E+02 0.  0.
          5    1    3    3  502    0 -0.53432786161E+02 -0.79300961048E+02  0.88991327710E+03  0.89504828686E+03  0.47000000000E+01 0. -1.
        -11    1    4    4    0    0  0.24332673500E+02  0.23858893815E+02  0.23262614403E+03  0.23510901450E+03  0.00000000000E+00 0.  1.
         12    1    4    4    0    0  0.17048194764E+02 -0.51163861090E+02  0.17283408284E+03  0.18105248360E+03  0.00000000000E+00 0. -1.
         -5    1    5    5    0  501  0.19033214319E+02 -0.25250155543E+02  0.52239528610E+02  0.61244525892E+02  0.47000000000E+01 0.  1.
         13    1    6    6    0    0 -0.40951172805E+02  0.55954946495E+02  0.43735455592E+03  0.44281707530E+03  0.00000000000E+00 0. -1.
        -14    1    6    6    0    0  0.33969876383E+02  0.75901137370E+02  0.38134077636E+03  0.39030209180E+03  0.00000000000E+00 0.  1.
</event>
<event>
12    1  0.2614920E-002  0.1933240E+03  0.7818608E-02  0.1155497E+00
          3   -1    0    0  502    0  0.00000000000E+00  0.00000000000E+00  0.60365053780E+02  0.60365053780E+02  0.00000000000E+00 0. -1.
         -3   -1    0    0    0  501 -0.00000000000E+00 -0.00000000000E+00 -0.61930498664E+03  0.61930498664E+03  0.00000000000E+00 0.  1.
          6    2    1    2  502    0 -0.11756894900E+02 -0.87435459890E+02 -0.28520385283E+03  0.34459796482E+03  0.17211430930E+03 0.  0.
         24    2    3    3    0    0 -0.25081918791E+02  0.19963132095E+02 -0.16507748069E+03  0.18284367861E+03  0.71788626433E+02 0.  0.
         -6    2    1    2    0  501  0.11756894900E+02  0.87435459890E+02 -0.27373608003E+03  0.33507207560E+03  0.17192635084E+03 0.  0.
        -24    2    5    5    0    0 -0.52071345906E+02  0.53278721395E+02 -0.10769721648E+03  0.15387681817E+03  0.80804316178E+02 0.  0.
          5    1    3    3  502    0  0.13325023890E+02 -0.10739859198E+03 -0.12012637214E+03  0.16175428621E+03  0.47000000000E+01 0. -1.
        -13    1    4    4    0    0 -0.25394401133E+02  0.36009821007E+02 -0.49970167307E+02  0.66622822205E+02  0.00000000000E+00 0.  1.
         14    1    4    4    0    0  0.31248234268E+00 -0.16046688913E+02 -0.11510731338E+03  0.11622085641E+03  0.00000000000E+00 0. -1.
         -5    1    5    5    0  501  0.63828240806E+02  0.34156738495E+02 -0.16603886355E+03  0.18119525743E+03  0.47000000000E+01 0.  1.
         11    1    6    6    0    0 -0.49131271587E+02 -0.66494909364E+01 -0.54659679655E+02  0.73795515835E+02  0.00000000000E+00 0. -1.
        -12    1    6    6    0    0 -0.29400743189E+01  0.59928212332E+02 -0.53037536830E+02  0.80081302332E+02  0.00000000000E+00 0.  1.
</event>
<event>
12    1  0.2614920E-002  0.2013485E+03  0.7818608E-02  0.1148606E+00
         -1   -1    0    0    0  501 -0.00000000000E+00  0.00000000000E+00  0.16154328246E+03  0.16154328246E+03  0.00000000000E+00 0.  1.
          1   -1    0    0  502    0  0.00000000000E+00 -0.00000000000E+00 -0.25393023471E+03  0.25393023471E+03  0.00000000000E+00 0. -1.
          6    2    1    2  502    0  0.10284424844E+03  0.56437729466E+01 -0.68313506557E+02  0.21137705315E+03  0.17147807967E+03 0.  0.
         24    2    3    3    0    0 -0.33359563666E+01  0.15236722778E+02 -0.63032829590E+02  0.10453026504E+03  0.81915519760E+02 0.  0.
         -6    2    1    2    0  501 -0.10284424844E+03 -0.56437729466E+01 -0.24073445685E+02  0.20409646402E+03  0.17454811437E+03 0.  0.
        -24    2    5    5    0    0 -0.98528403165E+00 -0.46687177691E+02 -0.49180367006E+01  0.92522141721E+02  0.79721366510E+02 0.  0.
          5    1    3    3  502    0  0.10618020481E+03 -0.95929498315E+01 -0.52806769671E+01  0.10684678811E+03  0.47000000000E+01 0. -1.
        -13    1    4    4    0    0 -0.22763221999E+02  0.71264007399E+01  0.11928362085E+02  0.26669002330E+02  0.00000000000E+00 0.  1.
         14    1    4    4    0    0  0.19427265632E+02  0.81103220382E+01 -0.74961191675E+02  0.77861262710E+02  0.00000000000E+00 0. -1.
         -5    1    5    5    0  501 -0.10185896441E+03  0.41043404744E+02 -0.19155408985E+02  0.11157432230E+03  0.47000000000E+01 0.  1.
         13    1    6    6    0    0  0.51818218940E+01 -0.57293554377E+01 -0.38457721144E+02  0.39225923921E+02  0.00000000000E+00 0. -1.
        -14    1    6    6    0    0 -0.61671059256E+01 -0.40957822253E+02  0.33539684443E+02  0.53296217800E+02  0.00000000000E+00 0.  1.
</event>
<event>
12    1  0.2614920E-002  0.2353342E+03  0.7818608E-02  0.1122941E+00
          2   -1    0    0  502    0  0.00000000000E+00  0.00000000000E+00  0.60585919216E+03  0.60585919216E+03  0.00000000000E+00 0.  1.
         -2   -1    0    0    0  501 -0.00000000000E+00 -0.00000000000E+00 -0.13397264344E+03  0.13397264344E+03  0.00000000000E+00 0. -1.
          6    2    1    2  502    0  0.75334988841E+02 -0.13582900390E+03  0.24838608680E+02  0.23276760507E+03  0.17157774519E+03 0.  0.
         24    2    3    3    0    0  0.92125613287E+02 -0.10666101464E+03  0.69336658972E+02  0.17677775647E+03  0.81111665230E+02 0.  0.
         -6    2    1    2    0  501 -0.75334988841E+02  0.13582900390E+03  0.44704794003E+03  0.50706423053E+03  0.18203679394E+03 0.  0.
        -24    2    5    5    0    0 -0.54406698795E+02  0.68341076725E+02  0.40982922469E+03  0.42706462796E+03  0.82423366855E+02 0.  0.
          5    1    3    3  502    0 -0.16790624446E+02 -0.29167989264E+02 -0.44498050293E+02  0.55989848605E+02  0.47000000000E+01 0. -1.
        -13    1    4    4    0    0  0.22210524882E+02  0.89556554712E+01  0.24895957575E+02  0.34544462422E+02  0.00000000000E+00 0.  1.
         14    1    4    4    0    0  0.69915088405E+02 -0.11561667011E+03  0.44440701398E+02  0.14223329404E+03  0.00000000000E+00 0. -1.
         -5    1    5    5    0  501 -0.20928290047E+02  0.67487927177E+02  0.37218715345E+02  0.79999602567E+02  0.47000000000E+01 0.  1.
         11    1    6    6    0    0 -0.44052484515E+02 -0.37107382636E+01  0.11058528312E+03  0.11909448272E+03  0.00000000000E+00 0. -1.
        -12    1    6    6    0    0 -0.10354214279E+02  0.72051814989E+02  0.29924394157E+03  0.30797014524E+03  0.00000000000E+00 0.  1.
</event>
<event>
12    1  0.2614920E-002  0.1892792E+03  0.7818608E-02  0.1159113E+00
         -2   -1    0    0    0  501 -0.00000000000E+00  0.00000000000E+00  0.19735216231E+02  0.19735216231E+02  0.00000000000E+00 0. -1.
          2   -1    0    0  502    0  0.00000000000E+00 -0.00000000000E+00 -0.18592082810E+04  0.18592082810E+04  0.00000000000E+00 0.  1.
          6    2    1    2  502    0 -0.60317164351E+02 -0.48543771030E+02 -0.77687506559E+03  0.79967084052E+03  0.17304313806E+03 0.  0.
         24    2    3    3    0    0 -0.10188522052E+03 -0.10096732509E+02 -0.53786661547E+03  0.55400194283E+03  0.84469606698E+02 0.  0.
         -6    2    1    2    0  501  0.60317164351E+02  0.48543771030E+02 -0.10625979992E+04  0.10792726567E+04  0.17239577034E+03 0.  0.
        -24    2    5    5    0    0  0.74412589315E+02  0.20765542387E+01 -0.39629924690E+03  0.41119032606E+03  0.80516120250E+02 0.  0.
          5    1    3    3  502    0  0.41568056172E+02 -0.38447038520E+02 -0.23900845012E+03  0.24566889769E+03  0.47000000000E+01 0. -1.
        -11    1    4    4    0    0 -0.63864983187E+02 -0.28908439346E+02 -0.46017496691E+03  0.46548408578E+03  0.00000000000E+00 0.  1.
         12    1    4    4    0    0 -0.38020237335E+02  0.18811706837E+02 -0.77691648557E+02  0.88517857050E+02  0.00000000000E+00 0. -1.
         -5    1    5    5    0  501 -0.14095424965E+02  0.46467216791E+02 -0.66629875228E+03  0.66808233065E+03  0.47000000000E+01 0.  1.
         11    1    6    6    0    0  0.53575548147E+02  0.34706251646E+02 -0.31146891813E+03  0.31794299839E+03  0.00000000000E+00 0. -1.
        -12    1    6    6    0    0  0.20837041169E+02 -0.32629697407E+02 -0.84830328769E+02  0.93247327665E+02  0.00000000000E+00 0.  1.
</event>
<event>
12    1  0.2614920E-002  0.1728016E+03  0.7818608E-02  0.1174957E+00
         -2   -1    0    0    0  501 -0.00000000000E+00  0.00000000000E+00  0.77361052710E+03  0.77361052710E+03  0.00000000000E+00 0.  1.
          2   -1    0    0  502    0  0.00000000000E+00 -0.00000000000E+00 -0.63295144669E+02  0.63295144669E+02  0.00000000000E+00 0. -1.
          6    2    1    2  502    0  0.10777315838E+02  0.17878348526E+02  0.93442605491E+02  0.19621532320E+03  0.17126922273E+03 0.  0.
         24    2    3    3    0    0  0.19803722098E+02  0.67130562559E+02  0.10084622476E+03  0.14538068761E+03  0.77890201203E+02 0.  0.
         -6    2    1    2    0  501 -0.10777315838E+02 -0.17878348526E+02  0.61687277694E+03  0.64069034857E+03  0.17180312550E+03 0.  0.
        -24    2    5    5    0    0 -0.36215342700E+02 -0.67588789596E+02  0.48404026513E+03  0.49652104755E+03  0.79739431061E+02 0.  0.
          5    1    3    3  502    0 -0.90264062601E+01 -0.49252214032E+02 -0.74036192740E+01  0.50834635588E+02  0.47000000000E+01 0. -1.
        -13    1    4    4    0    0  0.28910619713E+02 -0.42866453593E+01  0.47514170641E+02  0.55783471318E+02  0.00000000000E+00 0.  1.
         14    1    4    4    0    0 -0.91068976144E+01  0.71417207918E+02  0.53332054124E+02  0.89597216296E+02  0.00000000000E+00 0. -1.
         -5    1    5    5    0  501  0.25438026862E+02  0.49710441070E+02  0.13283251181E+03  0.14416930102E+03  0.47000000000E+01 0.  1.
         13    1    6    6    0    0 -0.13209879894E+02 -0.30005756093E+02  0.47229234080E+02  0.57493015901E+02  0.00000000000E+00 0. -1.
        -14    1    6    6    0    0 -0.23005462806E+02 -0.37583033503E+02  0.43681103105E+03  0.43902803165E+03  0.00000000000E+00 0.  1.
</event>
<event>
12    1  0.2614920E-002  0.2404426E+03  0.7818608E-02  0.1119498E+00
         -3   -1    0    0    0  501 -0.00000000000E+00  0.00000000000E+00  0.65686760993E+03  0.65686760993E+03  0.00000000000E+00 0.  1.
          3   -1    0    0  502    0  0.00000000000E+00 -0.00000000000E+00 -0.14105152840E+03  0.14105152840E+03  0.00000000000E+00 0. -1.
          6    2    1    2  502    0  0.85360511366E+02 -0.14402256117E+03  0.50205852137E+03  0.55634761054E+03  0.17155462643E+03 0.  0.
         24    2    3    3    0    0  0.29034238367E+01 -0.88852625777E+02  0.38274827684E+03  0.40110612928E+03  0.80539832022E+02 0.  0.
         -6    2    1    2    0  501 -0.85360511366E+02  0.14402256117E+03  0.13757560157E+02  0.24157152779E+03  0.17360477399E+03 0.  0.
        -24    2    5    5    0    0 -0.83372188600E+02  0.16959793679E+03 -0.11766759767E+02  0.20507996475E+03  0.78771526019E+02 0.  0.
          5    1    3    3  502    0  0.82457087530E+02 -0.55169935393E+02  0.11931024453E+03  0.15524148126E+03  0.47000000000E+01 0. -1.
        -11    1    4    4    0    0  0.28316971255E+02 -0.67424942297E+02  0.33523665581E+03  0.34312037116E+03  0.00000000000E+00 0.  1.
         12    1    4    4    0    0 -0.25413547419E+02 -0.21427683481E+02  0.47511621029E+02  0.57985758118E+02  0.00000000000E+00 0. -1.
         -5    1    5    5    0  501 -0.19883227665E+01 -0.25575375622E+02  0.25524319924E+02  0.36491563042E+02  0.47000000000E+01 0.  1.
         13    1    6    6    0    0 -0.70363729245E+02  0.16962303771E+03  0.51858168082E+01  0.18371151845E+03  0.00000000000E+00 0. -1.
        -14    1    6    6    0    0 -0.13008459354E+02 -0.25100917810E-01 -0.16952576575E+02  0.21368446302E+02  0.00000000000E+00 0.  1.
</event>
<event>
12    1  0.2614920E-002  0.4932027E+03  0.7818608E-02  0.1015568E+00
          1   -1    0    0  502    0  0.00000000000E+00  0.00000000000E+00  0.15796124956E+04  0.15796124956E+04  0.00000000000E+00 0.  1.
         -1   -1    0    0    0  501 -0.00000000000E+00 -0.00000000000E+00 -0.21693131881E+03  0.21693131881E+03  0.00000000000E+00 0. -1.
          6    2    1    2  502    0 -0.15977464943E+03  0.43374467560E+03  0.11647460012E+04  0.12646906408E+04  0.17072430249E+03 0.  0.
         24    2    3    3    0    0 -0.14915837641E+03  0.39112745614E+03  0.11323750710E+04  0.12099284297E+04  0.80153573090E+02 0.  0.
         -6    2    1    2    0  501  0.15977464943E+03 -0.43374467560E+03  0.19793517561E+03  0.53185317361E+03  0.17328324307E+03 0.  0.
        -24    2    5    5    0    0  0.18768878151E+03 -0.37632404124E+03  0.18738190947E+03  0.46697028337E+03  0.78117877822E+02 0.  0.
          5    1    3    3  502    0 -0.10616273015E+02  0.42617219456E+02  0.32370930138E+02  0.54762211103E+02  0.47000000000E+01 0. -1.
        -13    1    4    4    0    0 -0.36578367003E+02  0.17641515324E+03  0.40650170400E+03  0.44463908800E+03  0.00000000000E+00 0.  1.
         14    1    4    4    0    0 -0.11258000941E+03  0.21471230290E+03  0.72587336703E+03  0.76528934169E+03  0.00000000000E+00 0. -1.
         -5    1    5    5    0  501 -0.27914132081E+02 -0.57420634362E+02  0.10553266137E+02  0.64882890245E+02  0.47000000000E+01 0.  1.
         13    1    6    6    0    0  0.10434485168E+03 -0.18177617334E+03  0.52756320517E+02  0.21613341857E+03  0.00000000000E+00 0. -1.
        -14    1    6    6    0    0  0.83343929825E+02 -0.19454786789E+03  0.13462558896E+03  0.25083686480E+03  0.00000000000E+00 0.  1.
</event>
<event>
12    1  0.2614920E-002  0.1887694E+03  0.7818608E-02  0.1159576E+00
          2   -1    0    0  502    0  0.00000000000E+00  0.00000000000E+00  0.16556058829E+04  0.16556058829E+04  0.00000000000E+00 0.  1.
         -2   -1    0    0    0  501 -0.00000000000E+00 -0.00000000000E+00 -0.22206935041E+02  0.22206935041E+02  0.00000000000E+00 0. -1.
          6    2    1    2  502    0  0.34419504150E+02  0.76170462284E+02  0.95307929309E+03  0.97111742651E+03  0.16650007676E+03 0.  0.
         24    2    3    3    0    0 -0.37596120815E+02  0.51017972399E+02  0.36263983221E+03  0.37575220670E+03  0.75271316784E+02 0.  0.
         -6    2    1    2    0  501 -0.34419504150E+02 -0.76170462284E+02  0.68031965477E+03  0.70669539144E+03  0.17203750178E+03 0.  0.
        -24    2    5    5    0    0 -0.64321679485E+02  0.30141441222E+01  0.28678065383E+03  0.30412940027E+03  0.78135684429E+02 0.  0.
          5    1    3    3  502    0  0.72015624965E+02  0.25152489885E+02  0.59043946088E+03  0.59536521981E+03  0.47000000000E+01 0. -1.
        -13    1    4    4    0    0  0.21596375811E+02  0.26340472930E+02  0.11448890914E+03  0.11944845867E+03  0.00000000000E+00 0.  1.
         14    1    4    4    0    0 -0.59192496626E+02  0.24677499469E+02  0.24815092307E+03  0.25630374803E+03  0.00000000000E+00 0. -1.
         -5    1    5    5    0  501  0.29902175335E+02 -0.79184606406E+02  0.39353900094E+03  0.40256599116E+03  0.47000000000E+01 0.  1.
         13    1    6    6    0    0 -0.73926012796E+01 -0.23456366426E+02  0.25562223015E+02  0.35472227518E+02  0.00000000000E+00 0. -1.
        -14    1    6    6    0    0 -0.56929078205E+02  0.26470510549E+02  0.26121843082E+03  0.26865717276E+03  0.00000000000E+00 0.  1.
</event>
<event>
12    1  0.2614920E-002  0.2325919E+03  0.7818608E-02  0.1124829E+00
         -1   -1    0    0    0  501 -0.00000000000E+00  0.00000000000E+00  0.67871773441E+02  0.67871773441E+02  0.00000000000E+00 0. -1.
          1   -1    0    0  502    0  0.00000000000E+00 -0.00000000000E+00 -0.81182010355E+03  0.81182010355E+03  0.00000000000E+00 0.  1.
          6    2    1    2  502    0  0.11329533174E+03  0.10787899539E+03 -0.43227237497E+03  0.49118872271E+03  0.17301226926E+03 0.  0.
         24    2    3    3    0    0 -0.11880787356E+02  0.44576384072E+02 -0.16824777227E+03  0.19217808373E+03  0.80603324169E+02 0.  0.
         -6    2    1    2    0  501 -0.11329533174E+03 -0.10787899539E+03 -0.31167595514E+03  0.38850315428E+03  0.17122818120E+03 0.  0.
        -24    2    5    5    0    0  0.19242471333E+02 -0.77299671244E+02 -0.12916649236E+03  0.16083418777E+03  0.53274208866E+02 0.  0.
          5    1    3    3  502    0  0.12517611909E+03  0.63302611321E+02 -0.26402460271E+03  0.29901063898E+03  0.47000000000E+01 0. -1.
        -13    1    4    4    0    0 -0.29790382830E+02  0.20230120548E+01 -0.12635776526E+03  0.12983776157E+03  0.00000000000E+00 0.  1.
         14    1    4    4    0    0  0.17909595474E+02  0.42553372017E+02 -0.41890007005E+02  0.62340322159E+02  0.00000000000E+00 0. -1.
         -5    1    5    5    0  501 -0.13253780307E+03 -0.30579324148E+02 -0.18250946278E+03  0.22766896651E+03  0.47000000000E+01 0.  1.
         11    1    6    6    0    0 -0.79548136525E+00 -0.51222694392E+02 -0.37615532991E+02  0.63555688444E+02  0.00000000000E+00 0. -1.
        -12    1    6    6    0    0  0.20037952699E+02 -0.26076976852E+02 -0.91550959372E+02  0.97278499330E+02  0.00000000000E+00 0.  1.
</event>
<event>
12    1  0.2614920E-002  0.2120566E+03  0.7818608E-02  0.1139948E+00
         -1   -1    0    0    0  501 -0.00000000000E+00  0.00000000000E+00  0.39938821690E+02  0.39938821690E+02  0.00000000000E+00 0.  1.
          1   -1    0    0  502    0  0.00000000000E+00 -0.00000000000E+00 -0.13039089896E+04  0.13039089896E+04  0.00000000000E+00 0. -1.
          6    2    1    2  502    0 -0.89558797785E+02 -0.85441580099E+02 -0.38247550108E+03  0.43709004654E+03  0.17157843101E+03 0.  0.
         24    2    3    3    0    0 -0.12374502662E+02 -0.66407221300E+01 -0.75325505662E+02  0.11070040161E+03  0.79896305343E+02 0.  0.
         -6    2    1    2    0  501  0.89558797785E+02  0.85441580099E+02 -0.88149466687E+03  0.90675776479E+03  0.17278817788E+03 0.  0.
        -24    2    5    5    0    0 -0.20652498459E+02  0.34267614553E+02 -0.38075022352E+03  0.39145941227E+03  0.81663600461E+02 0.  0.
          5    1    3    3  502    0 -0.77184295123E+02 -0.78800857969E+02 -0.30714999542E+03  0.32638964493E+03  0.47000000000E+01 0. -1.
        -13    1    4    4    0    0  0.14378343791E+02 -0.29756144688E+02 -0.66500858457E+02  0.74259875386E+02  0.00000000000E+00 0.  1.
         14    1    4    4    0    0 -0.26752846453E+02  0.23115422558E+02 -0.88246472047E+01  0.36440526226E+02  0.00000000000E+00 0. -1.
         -5    1    5    5    0  501  0.11021129624E+03  0.51173965546E+02 -0.50074444335E+03  0.51529835253E+03  0.47000000000E+01 0.  1.
         11    1    6    6    0    0  0.22922172523E+02  0.40412647359E+02 -0.21538515898E+03  0.22033922658E+03  0.00000000000E+00 0. -1.
        -12    1    6    6    0    0 -0.43574670982E+02 -0.61450328063E+01 -0.16536506454E+03  0.17112018569E+03  0.00000000000E+00 0.  1.
</event>
<event>
12    1  0.2614920E-002  0.3814115E+03  0.7818608E-02  0.1050413E+00
          1   -1    0    0  502    0  0.00000000000E+00  0.00000000000E+00  0.52521716757E+03  0.52521716757E+03  0.00000000000E+00 0. -1.
         -1   -1    0    0    0  501 -0.00000000000E+00 -0.00000000000E+00 -0.30457877130E+03  0.30457877130E+03  0.00000000000E+00 0.  1.
          6    2    1    2  502    0 -0.33439205341E+03  0.64573383713E+02  0.23536201575E+03  0.44867881163E+03  0.17300182160E+03 0.  0.
         24    2    3    3    0    0 -0.27380631609E+03  0.98029005904E+02  0.22973015869E+03  0.37908198673E+03  0.79671965694E+02 0.  0.
         -6    2    1    2    0  501  0.33439205341E+03 -0.64573383713E+02 -0.14723619480E+02  0.38111712724E+03  0.17042802714E+03 0.  0.
        -24    2    5    5    0    0  0.32974708907E+03 -0.30576727489E+02  0.60406165185E+01  0.34073654001E+03  0.79980132769E+02 0.  0.
          5    1    3    3  502    0 -0.60585737321E+02 -0.33455622191E+02  0.56318570618E+01  0.69596824905E+02  0.47000000000E+01 0. -1.
        -13    1    4    4    0    0 -0.10059228877E+03  0.90843354505E+01  0.44620232749E+02  0.11041874334E+03  0.00000000000E+00 0.  1.
         14    1    4    4    0    0 -0.17321402732E+03  0.88944670454E+02  0.18510992594E+03  0.26866324338E+03  0.00000000000E+00 0. -1.
         -5    1    5    5    0  501  0.46449643423E+01 -0.33996656224E+02 -0.20764235999E+02  0.40380587227E+02  0.47000000000E+01 0.  1.
         11    1    6    6    0    0  0.27666339465E+02  0.69303249498E+01  0.21845692869E+02  0.35926174862E+02  0.00000000000E+00 0. -1.
        -12    1    6    6    0    0  0.30208074960E+03 -0.37507052439E+02 -0.15805076351E+02  0.30481036515E+03  0.00000000000E+00 0.  1.
</event>
<event>
12    1  0.2614920E-002  0.3124408E+03  0.7818608E-02  0.1079182E+00
         -2   -1    0    0    0  501 -0.00000000000E+00  0.00000000000E+00  0.10760769194E+03  0.10760769194E+03  0.00000000000E+00 0. -1.
          2   -1    0    0  502    0  0.00000000000E+00 -0.00000000000E+00 -0.10301914491E+04  0.10301914491E+04  0.00000000000E+00 0.  1.
          6    2    1    2  502    0 -0.34789968378E+02 -0.25808395619E+03 -0.26379116075E+03  0.40836837060E+03  0.17135133287E+03 0.  0.
         24    2    3    3    0    0 -0.41938862830E+02 -0.24602289170E+03 -0.16700921400E+03  0.31046325743E+03  0.78798637035E+02 0.  0.
         -6    2    1    2    0  501  0.34789968378E+02  0.25808395619E+03 -0.65879259644E+03  0.72943077046E+03  0.17390771530E+03 0.  0.
        -24    2    5    5    0    0  0.23587084385E+02  0.70315694962E+02 -0.35626607800E+03  0.37316288124E+03  0.82609745770E+02 0.  0.
          5    1    3    3  502    0  0.71488944519E+01 -0.12061064488E+02 -0.96781946745E+02  0.97905113167E+02  0.47000000000E+01 0. -1.
        -11    1    4    4    0    0 -0.20868011459E+02 -0.21330249391E+03 -0.16674213567E+03  0.27154441187E+03  0.00000000000E+00 0.  1.
         12    1    4    4    0    0 -0.21070851371E+02 -0.32720397787E+02 -0.26707833109E+00  0.38918845560E+02  0.00000000000E+00 0. -1.
         -5    1    5    5    0  501  0.11202883994E+02  0.18776826122E+03 -0.30252651844E+03  0.35626788922E+03  0.47000000000E+01 0.  1.
         13    1    6    6    0    0 -0.20814727812E+02 -0.47910150625E+00 -0.31067896510E+02  0.37399152741E+02  0.00000000000E+00 0. -1.
        -14    1    6    6    0    0  0.44401812197E+02  0.70794796468E+02 -0.32519818149E+03  0.33576372850E+03  0.00000000000E+00 0.  1.
</event>
<event>
12    1  0.2614920E-002  0.2012134E+03  0.7818608E-02  0.1148719E+00
         -2   -1    0    0    0  501 -0.00000000000E+00  0.00000000000E+00  0.27781605505E+02  0.27781605505E+02  0.00000000000E+00 0.  1.
          2   -1    0    0  502    0  0.00000000000E+00 -0.00000000000E+00 -0.19421782101E+04  0.19421782101E+04  0.00000000000E+00 0. -1.
          6    2    1    2  502    0 -0.76290485094E+02  0.74219806447E+02 -0.14482870434E+04  0.14621573461E+04  0.17041105321E+03 0.  0.
         24    2    3    3    0    0 -0.74419274550E+02  0.11495342935E+03 -0.10873913332E+04  0.10989349169E+04  0.80532730949E+02 0.  0.
         -6    2    1    2    0  501  0.76290485094E+02 -0.74219806447E+02 -0.46610956124E+03  0.50780246949E+03  0.17110349838E+03 0.  0.
        -24    2    5    5    0    0  0.80063888502E+02 -0.80253929509E+02 -0.47554918173E+03  0.49508061234E+03  0.78146458788E+02 0.  0.
          5    1    3    3  502    0 -0.18712105439E+01 -0.40733622903E+02 -0.36089571012E+03  0.36322242916E+03  0.47000000000E+01 0. -1.
        -11    1    4    4    0    0 -0.82958994678E+02  0.57878181807E+02 -0.69374372444E+03  0.70107947761E+03  0.00000000000E+00 0.  1.
         12    1    4    4    0    0  0.85397201278E+01  0.57075247543E+02 -0.39364760880E+03  0.39785543934E+03  0.00000000000E+00 0. -1.
         -5    1    5    5    0  501 -0.37734034082E+01  0.60341230626E+01  0.94396204931E+01  0.12721857155E+02  0.47000000000E+01 0.  1.
         13    1    6    6    0    0  0.15807882131E+02 -0.39040076619E+02 -0.30915709352E+03  0.31201302087E+03  0.00000000000E+00 0. -1.
        -14    1    6    6    0    0  0.64256006371E+02 -0.41213852890E+02 -0.16639208821E+03  0.18306759146E+03  0.00000000000E+00 0.  1.
</event>
<event>
12    1  0.2614920E-002  0.3003816E+03  0.7818608E-02  0.1085050E+00
         -1   -1    0    0    0  501 -0.00000000000E+00  0.00000000000E+00  0.11236788715E+03  0.11236788715E+03  0.00000000000E+00 0. -1.
          1   -1    0    0  502    0  0.00000000000E+00 -0.00000000000E+00 -0.80377064593E+03  0.80377064593E+03  0.00000000000E+00 0.  1.
          6    2    1    2  502    0 -0.21410045687E+03  0.12345919004E+03 -0.36004174927E+03  0.46887356495E+03  0.17067859109E+03 0.  0.
         24    2    3    3    0    0 -0.16067527029E+03  0.15403000656E+03 -0.30388863228E+03  0.38542245393E+03  0.81611161975E+02 0.  0.
         -6    2    1    2    0  501  0.21410045687E+03 -0.12345919004E+03 -0.33136100951E+03  0.44726496813E+03  0.17077662561E+03 0.  0.
        -24    2    5    5    0    0  0.91896372096E+02  0.12842095608E+01 -0.11245510579E+03  0.16719954941E+03  0.82842900152E+02 0.  0.
          5    1    3    3  502    0 -0.53425186573E+02 -0.30570816520E+02 -0.56153116991E+02  0.83451111022E+02  0.47000000000E+01 0. -1.
        -11    1    4    4    0    0 -0.10545090289E+03  0.11380675368E+03 -0.26426394371E+03  0.30644298335E+03  0.00000000000E+00 0.  1.
         12    1    4    4    0    0 -0.55224367407E+02  0.40223252881E+02 -0.39624688569E+02  0.78979470573E+02  0.00000000000E+00 0. -1.
         -5    1    5    5    0  501  0.12220408477E+03 -0.12474339960E+03 -0.21890590371E+03  0.28006541872E+03  0.47000000000E+01 0.  1.
         11    1    6    6    0    0 -0.14131173187E+02 -0.93391636861E+01 -0.19128657891E+02  0.25550256098E+02  0.00000000000E+00 0. -1.
        -12    1    6    6    0    0  0.10602754528E+03  0.10623373247E+02 -0.93326447904E+02  0.14164929331E+03  0.00000000000E+00 0.  1.
</event>
<event>
12    1  0.2614920E-002  0.1867945E+03  0.7818608E-02  0.1161385E+00
          2   -1    0    0  502    0  0.00000000000E+00  0.00000000000E+00  0.89236714518E+03  0.89236714518E+03  0.00000000000E+00 0. -1.
         -2   -1    0    0    0  501 -0.00000000000E+00 -0.00000000000E+00 -0.88374821686E+02  0.88374821686E+02  0.00000000000E+00 0.  1.
          6    2    1    2  502    0 -0.16957149129E+02 -0.70840491170E+02  0.76761817077E+03  0.78988637926E+03  0.17139695432E+03 0.  0.
         24    2    3    3    0    0  0.27393687334E+02 -0.86998574315E+02  0.35617280668E+03  0.37571557153E+03  0.77356036825E+02 0.  0.
         -6    2    1    2    0  501  0.16957149129E+02  0.70840491170E+02  0.36374152723E+02  0.19085558760E+03  0.17261765911E+03 0.  0.
        -24    2    5    5    0    0 -0.31146705473E+02 -0.13762585978E+02 -0.99569092219E+01  0.82965278533E+02  0.74997142387E+02 0.  0.
          5    1    3    3  502    0 -0.44350836462E+02  0.16158083145E+02  0.41144536410E+03  0.41417080774E+03  0.47000000000E+01 0. -1.
        -13    1    4    4    0    0  0.15844443841E+02 -0.77646498273E+02  0.35122265083E+03  0.36005190674E+03  0.00000000000E+00 0.  1.
         14    1    4    4    0    0  0.11549243492E+02 -0.93520760421E+01  0.49501558493E+01  0.15663664784E+02  0.00000000000E+00 0. -1.
         -5    1    5    5    0  501  0.48103854601E+02  0.84603077148E+02  0.46331061945E+02  0.10789030907E+03  0.47000000000E+01 0.  1.
         11    1    6    6    0    0 -0.14399879260E+02  0.80023598886E+01  0.30150076411E+02  0.34357261155E+02  0.00000000000E+00 0. -1.
        -12    1    6    6    0    0 -0.16746826212E+02 -0.21764945867E+02 -0.40106985633E+02  0.48608017377E+02  0.00000000000E+00 0.  1.
</event>
<event>
12    1  0.2614920E-002  0.2484884E+03  0.7818608E-02  0.1114264E+00
          1   -1    0    0  502    0  0.00000000000E+00  0.00000000000E+00  0.93715032269E+03  0.93715032269E+03  0.00000000000E+00 0. -1.
         -1   -1    0    0    0  501 -0.00000000000E+00 -0.00000000000E+00 -0.87755727402E+02  0.87755727402E+02  0.00000000000E+00 0.  1.
          6    2    1    2  502    0 -0.16535136660E+03 -0.67902626212E+02  0.68052517605E+03  0.72447679708E+03  0.17262755628E+03 0.  0.
         24    2    3    3    0    0 -0.11697243679E+03 -0.10421770631E+03  0.59017440489E+03  0.61564363237E+03  0.78532621320E+02 0.  0.
         -6    2    1    2    0  501  0.16535136660E+03  0.67902626212E+02  0.16886941923E+03  0.30042925301E+03  0.17259494264E+03 0.  0.
        -24    2    5    5    0    0  0.17928856099E+03  0.19570416832E+02  0.14001240843E+03  0.24224794223E+03  0.80951847924E+02 0.  0.
          5    1    3    3  502    0 -0.48378929806E+02  0.36315080101E+02  0.90350771164E+02  0.10883316471E+03  0.47000000000E+01 0. -1.
        -13    1    4    4    0    0 -0.18769810944E+02 -0.80655237415E+01  0.21709902531E+03  0.21805812360E+03  0.00000000000E+00 0.  1.
         14    1    4    4    0    0 -0.98202625849E+02 -0.96152182572E+02  0.37307537958E+03  0.39758550877E+03  0.00000000000E+00 0. -1.
         -5    1    5    5    0  501 -0.13937194393E+02  0.48332209381E+02  0.28857010806E+02  0.58181310778E+02  0.47000000000E+01 0.  1.
         13    1    6    6    0    0  0.46838527380E+02  0.33028880884E+02  0.74143051413E+02  0.93712041341E+02  0.00000000000E+00 0. -1.
        -14    1    6    6    0    0  0.13245003361E+03 -0.13458464052E+02  0.65869357014E+02  0.14853590089E+03  0.00000000000E+00 0.  1.
</event>
<event>
12    1  0.2614920E-002  0.1705182E+03  0.7818608E-02  0.1177308E+00
          2   -1    0    0  502    0  0.00000000000E+00  0.00000000000E+00  0.13138499945E+03  0.13138499945E+03  0.00000000000E+00 0. -1.
         -2   -1    0    0    0  501 -0.00000000000E+00 -0.00000000000E+00 -0.25370516289E+03  0.25370516289E+03  0.00000000000E+00 0.  1.
          6    2    1    2  502    0  0.79378179501E+01  0.13939649887E+02  0.65887221769E+01  0.17376971998E+03  0.17290223113E+03 0.  0.
         24    2    3    3    0    0 -0.47298940644E+02 -0.29755652094E+02 -0.27235664099E+02  0.95497387561E+02  0.72494006748E+02 0.  0.
         -6    2    1    2    0  501 -0.79378179501E+01 -0.13939649887E+02 -0.12890888562E+03  0.21132044235E+03  0.16667785028E+03 0.  0.
        -24    2    5    5    0    0 -0.31762133644E+02  0.39704216687E+02 -0.84782018728E+02  0.13773693319E+03  0.95907320414E+02 0.  0.
          5    1    3    3  502    0  0.55236758594E+02  0.43695301981E+02  0.33824386276E+02  0.78272332418E+02  0.47000000000E+01 0. -1.
        -11    1    4    4    0    0 -0.20015824658E+02  0.21457542920E+02 -0.23059200912E+02  0.37320049995E+02  0.00000000000E+00 0.  1.
         12    1    4    4    0    0 -0.27283115987E+02 -0.51213195015E+02 -0.41764631866E+01  0.58177337566E+02  0.00000000000E+00 0. -1.
         -5    1    5    5    0  501  0.23824315694E+02 -0.53643866574E+02 -0.44126866888E+02  0.73583509162E+02  0.47000000000E+01 0.  1.
         11    1    6    6    0    0 -0.42877637321E+02  0.58135042117E+02 -0.90182235536E+02  0.11554657291E+03  0.00000000000E+00 0. -1.
        -12    1    6    6    0    0  0.11115503677E+02 -0.18430825429E+02  0.54002168085E+01  0.22190360285E+02  0.00000000000E+00 0.  1.
</event>
<event>
12    1  0.2614920E-002  0.1740200E+03  0.7818608E-02  0.1173719E+00
          1   -1    0    0  502    0  0.00000000000E+00  0.00000000000E+00  0.61108419723E+03  0.61108419723E+03  0.00000000000E+00 0. -1.
         -1   -1    0    0    0  501 -0.00000000000E+00 -0.00000000000E+00 -0.61269163405E+02  0.61269163405E+02  0.00000000000E+00 0.  1.
          6    2    1    2  502    0 -0.16385401144E+02  0.25524719643E+02  0.42082006609E+03  0.45506404321E+03  0.17051030092E+03 0.  0.
         24    2    3    3    0    0 -0.16616067087E+02  0.28772594639E+02  0.10758065724E+03  0.14177245515E+03  0.86150306663E+02 0.  0.
         -6    2    1    2    0  501  0.16385401144E+02 -0.25524719643E+02  0.12899496774E+03  0.21728931742E+03  0.17220613543E+03 0.  0.
        -24    2    5    5    0    0  0.53821070033E+02 -0.64722830009E+02  0.11116380615E+03  0.16003583294E+03  0.78538676611E+02 0.  0.
          5    1    3    3  502    0  0.23066594348E+00 -0.32478749960E+01  0.31323940884E+03  0.31329158806E+03  0.47000000000E+01 0. -1.
        -13    1    4    4    0    0  0.23253170966E+02 -0.18349296334E+02  0.44989526198E+02  0.53865240215E+02  0.00000000000E+00 0.  1.
         14    1    4    4    0    0 -0.39869238053E+02  0.47121890972E+02  0.62591131045E+02  0.87907214933E+02  0.00000000000E+00 0. -1.
         -5    1    5    5    0  501 -0.37435668889E+02  0.39198110366E+02  0.17831161583E+02  0.57253484478E+02  0.47000000000E+01 0.  1.
         13    1    6    6    0    0 -0.57174315907E+01  0.81867368351E+01  0.42147965509E+02  0.43314693587E+02  0.00000000000E+00 0. -1.
        -14    1    6    6    0    0  0.59538501623E+02 -0.72909566844E+02  0.69015840645E+02  0.11672113936E+03  0.00000000000E+00 0.  1.
</event>
<event>
12    1  0.2614920E-002  0.2074283E+03  0.7818608E-02  0.1143619E+00
          2   -1    0    0  502    0  0.00000000000E+00  0.00000000000E+00  0.21151693554E+04  0.21151693554E+04  0.00000000000E+00 0.  1.
         -2   -1    0    0    0  501 -0.00000000000E+00 -0.00000000000E+00 -0.22531956225E+02  0.22531956225E+02  0.00000000000E+00 0. -1.
          6    2    1    2  502    0 -0.12878886034E+02 -0.11904554515E+03  0.13649843397E+04  0.13801941490E+04  0.16557757582E+03 0.  0.
         24    2    3    3    0    0 -0.14205302309E+02 -0.14712035374E+03  0.98976581774E+03  0.10038950877E+04  0.79515935949E+02 0.  0.
         -6    2    1    2    0  501  0.12878886034E+02  0.11904554515E+03  0.72765305950E+03  0.75750716271E+03  0.17320629039E+03 0.  0.
        -24    2    5    5    0    0  0.23783391518E+02  0.13277132450E+03  0.40334953252E+03  0.43269618249E+03  0.79632070419E+02 0.  0.
          5    1    3    3  502    0  0.13264162757E+01  0.28074808589E+02  0.37521852199E+03  0.37629906125E+03  0.47000000000E+01 0. -1.
        -13    1    4    4    0    0  0.29425183020E+02 -0.70504634196E+02  0.55920755295E+03  0.56440219004E+03  0.00000000000E+00 0.  1.
         14    1    4    4    0    0 -0.43630485329E+02 -0.76615719547E+02  0.43055826478E+03  0.43949289767E+03  0.00000000000E+00 0. -1.
         -5    1    5    5    0  501 -0.10904505484E+02 -0.13725779343E+02  0.32430352698E+03  0.32481098022E+03  0.47000000000E+01 0.  1.
         11    1    6    6    0    0  0.63002067209E+01  0.42374935080E+02  0.42726639431E+02  0.60505317492E+02  0.00000000000E+00 0. -1.
        -12    1    6    6    0    0  0.17483184797E+02  0.90396389417E+02  0.36062289309E+03  0.37219086500E+03  0.00000000000E+00 0.  1.
</event>
<event>
12    1  0.2614920E-002  0.1915759E+03  0.7818608E-02  0.1157048E+00
         -1   -1    0    0    0  501 -0.00000000000E+00  0.00000000000E+00  0.20639756344E+03  0.20639756344E+03  0.00000000000E+00 0. -1.
          1   -1    0    0  502    0  0.00000000000E+00 -0.00000000000E+00 -0.20083258284E+03  0.20083258284E+03  0.00000000000E+00 0.  1.
          6    2    1    2  502    0 -0.48440893239E+02 -0.69041024926E+02 -0.66141677697E+02  0.20285531368E+03  0.17222767925E+03 0.  0.
         24    2    3    3    0    0  0.12445360499E+02 -0.92239032861E+01  0.18152869368E+02  0.82801639851E+02  0.79288192727E+02 0.  0.
         -6    2    1    2    0  501  0.48440893239E+02  0.69041024926E+02  0.71706658302E+02  0.20437483259E+03  0.17179651944E+03 0.  0.
        -24    2    5    5    0    0  0.11218365731E+02  0.53283927488E+02 -0.24560778068E+02  0.99860183005E+02  0.80023719436E+02 0.  0.
          5    1    3    3  502    0 -0.60886253738E+02 -0.59817121640E+02 -0.84294547065E+02  0.12005367383E+03  0.47000000000E+01 0. -1.
        -11    1    4    4    0    0  0.13163703867E+02  0.27002139511E+02 -0.15100774316E+02  0.33621897963E+02  0.00000000000E+00 0.  1.
         12    1    4    4    0    0 -0.71834336823E+00 -0.36226042797E+02  0.33253643684E+02  0.49179741888E+02  0.00000000000E+00 0. -1.
         -5    1    5    5    0  501  0.37222527508E+02  0.15757097438E+02  0.96267436369E+02  0.10451464959E+03  0.47000000000E+01 0.  1.
         11    1    6    6    0    0  0.17692601008E+01  0.51983140052E+01  0.27687303402E+02  0.28226574703E+02  0.00000000000E+00 0. -1.
        -12    1    6    6    0    0  0.94491056304E+01  0.48085613482E+02 -0.52248081469E+02  0.71633608302E+02  0.00000000000E+00 0.  1.
</event>
<event>
12    1  0.2614920E-002  0.2449557E+03  0.7818608E-02  0.1116535E+00
          2   -1    0    0  502    0  0.00000000000E+00  0.00000000000E+00  0.33902334599E+03  0.33902334599E+03  0.00000000000E+00 0. -1.
         -2   -1    0    0    0  501 -0.00000000000E+00 -0.00000000000E+00 -0.20784365400E+03  0.20784365400E+03  0.00000000000E+00 0.  1.
          6    2    1    2  502    0 -0.14662934136E+03  0.95643316345E+02  0.17088017623E+03  0.29844685319E+03  0.17094642975E+03 0.  0.
         24    2    3    3    0    0 -0.17422965586E+03  0.85365235469E+02  0.16736588390E+03  0.26841592651E+03  0.79953574662E+02 0.  0.
         -6    2    1    2    0  501  0.14662934136E+03 -0.95643316345E+02 -0.39700484234E+02  0.24842014680E+03  0.17172254709E+03 0.  0.
        -24    2    5    5    0    0  0.50101298482E+02 -0.48162413616E+02  0.42780650308E+02  0.11278340126E+03  0.77846986867E+02 0.  0.
          5    1    3    3  502    0  0.27600314499E+02  0.10278080876E+02  0.35142923278E+01  0.30030926685E+02  0.47000000000E+01 0. -1.
        -11    1    4    4    0    0  0.56680891863E+01  0.90642906143E+01 -0.64402454731E+00  0.10709965779E+02  0.00000000000E+00 0.  1.
         12    1    4    4    0    0 -0.17989774505E+03  0.76300944854E+02  0.16800990845E+03  0.25770596073E+03  0.00000000000E+00 0. -1.
         -5    1    5    5    0  501  0.96528042879E+02 -0.47480902729E+02 -0.82481134541E+02  0.13563674554E+03  0.47000000000E+01 0.  1.
         13    1    6    6    0    0 -0.39750940544E+01  0.16585068752E+02 -0.21753232443E+01  0.17192961044E+02  0.00000000000E+00 0. -1.
        -14    1    6    6    0    0  0.54076392536E+02 -0.64747482368E+02  0.44955973552E+02  0.95590440216E+02  0.00000000000E+00 0.  1.
</event>
<event>
12    1  0.2614920E-002  0.1906162E+03  0.7818608E-02  0.1157907E+00
         -2   -1    0    0    0  501 -0.00000000000E+00  0.00000000000E+00  0.66537858816E+02  0.66537858816E+02  0.00000000000E+00 0. -1.
          2   -1    0    0  502    0  0.00000000000E+00 -0.00000000000E+00 -0.54624141701E+03  0.54624141701E+03  0.00000000000E+00 0.  1.
          6    2    1    2  502    0  0.61070366800E+02 -0.56144459544E+02 -0.24553383817E+03  0.31099450885E+03  0.17189801864E+03 0.  0.
         24    2    3    3    0    0 -0.27315319702E+02 -0.20700939163E+01 -0.13621627870E+03  0.16030115994E+03  0.79944826708E+02 0.  0.
         -6    2    1    2    0  501 -0.61070366800E+02  0.56144459544E+02 -0.23416972003E+03  0.30178476698E+03  0.17133825540E+03 0.  0.
        -24    2    5    5    0    0 -0.96276674472E+02  0.59931068408E+02 -0.12445636793E+03  0.18640308673E+03  0.79973697039E+02 0.  0.
          5    1    3    3  502    0  0.88385686503E+02 -0.54074365628E+02 -0.10931755947E+03  0.15069334891E+03  0.47000000000E+01 0. -1.
        -11    1    4    4    0    0  0.14278343790E+02 -0.21602291781E+02 -0.95359651908E+02  0.98812920833E+02  0.00000000000E+00 0.  1.
         12    1    4    4    0    0 -0.41593663493E+02  0.19532197865E+02 -0.40856626791E+02  0.61488239110E+02  0.00000000000E+00 0. -1.
         -5    1    5    5    0  501  0.35206307672E+02 -0.37866088642E+01 -0.10971335210E+03  0.11538168024E+03  0.47000000000E+01 0.  1.
         11    1    6    6    0    0 -0.37033398019E+02  0.11323429373E+01 -0.87688931262E+02  0.95195080940E+02  0.00000000000E+00 0. -1.
        -12    1    6    6    0    0 -0.59243276453E+02  0.58798725471E+02 -0.36767436667E+02  0.91208005794E+02  0.00000000000E+00 0.  1.
</event>
<event>
12    1  0.2614920E-002  0.2300935E+03  0.7818608E-02  0.1126574E+00
          2   -1    0    0  502    0  0.00000000000E+00  0.00000000000E+00  0.13304192442E+04  0.13304192442E+04  0.00000000000E+00 0. -1.
         -2   -1    0    0    0  501 -0.00000000000E+00 -0.00000000000E+00 -0.74553683875E+02  0.74553683875E+02  0.00000000000E+00 0.  1.
          6    2    1    2  502    0  0.16266186125E+03  0.13768746188E+02  0.11163845127E+04  0.11411413437E+04  0.17099920119E+03 0.  0.
         24    2    3    3    0    0  0.33761014435E+02  0.51723649497E+02  0.44897652166E+03  0.46032454059E+03  0.80645047324E+02 0.  0.
         -6    2    1    2    0  501 -0.16266186125E+03 -0.13768746188E+02  0.13948104762E+03  0.26383158429E+03  0.15330910850E+03 0.  0.
        -24    2    5    5    0    0 -0.15449528912E+03 -0.33694122565E+02  0.15610817427E+03  0.23622243971E+03  0.80169761705E+02 0.  0.
          5    1    3    3  502    0  0.12890084681E+03 -0.37954903309E+02  0.66740799100E+03  0.68081680314E+03  0.47000000000E+01 0. -1.
        -11    1    4    4    0    0  0.43113502313E+02  0.46351994121E+02  0.17435140064E+03  0.18548771481E+03  0.00000000000E+00 0.  1.
         12    1    4    4    0    0 -0.93524878784E+01  0.53716553761E+01  0.27462512102E+03  0.27483682578E+03  0.00000000000E+00 0. -1.
         -5    1    5    5    0  501 -0.81665721275E+01  0.19925376377E+02 -0.16627126650E+02  0.27609144585E+02  0.47000000000E+01 0.  1.
         11    1    6    6    0    0 -0.22204868488E+02 -0.18614459799E+01  0.74044289802E+02  0.77324498175E+02  0.00000000000E+00 0. -1.
        -12    1    6    6    0    0 -0.13229042063E+03 -0.31832676585E+02  0.82063884470E+02  0.15889794153E+03  0.00000000000E+00 0.  1.
</event>
<event>
12    1  0.2614920E-002  0.2198392E+03  0.7818608E-02  0.1134003E+00
          1   -1    0    0  502    0  0.00000000000E+00  0.00000000000E+00  0.70351057063E+03  0.70351057063E+03  0.00000000000E+00 0. -1.
         -1   -1    0    0    0  501 -0.00000000000E+00 -0.00000000000E+00 -0.94929905225E+02  0.94929905225E+02  0.00000000000E+00 0.  1.
          6    2    1    2  502    0  0.19475232353E+02 -0.13444212764E+03  0.94993711106E+02  0.24000088303E+03  0.17355877490E+03 0.  0.
         24    2    3    3    0    0  0.70005095286E+02 -0.77936675092E+02  0.98826470815E+02  0.16395541464E+03  0.78357309577E+02 0.  0.
         -6    2    1    2    0  501 -0.19475232353E+02  0.13444212764E+03  0.51358695430E+03  0.55843959283E+03  0.17213148710E+03 0.  0.
        -24    2    5    5    0    0  0.49881147853E+02  0.60865984565E+02  0.33369117170E+03  0.35202171836E+03  0.79854211747E+02 0.  0.
          5    1    3    3  502    0 -0.50529862933E+02 -0.56505452551E+02 -0.38327597086E+01  0.76045468392E+02  0.47000000000E+01 0. -1.
        -11    1    4    4    0    0  0.78736694160E+02 -0.63358557198E+02  0.51005225897E+02  0.11320471212E+03  0.00000000000E+00 0.  1.
         12    1    4    4    0    0 -0.87315988742E+01 -0.14578117894E+02  0.47821244918E+02  0.50750702515E+02  0.00000000000E+00 0. -1.
         -5    1    5    5    0  501 -0.69356380206E+02  0.73576143077E+02  0.17989578260E+03  0.20641787447E+03  0.47000000000E+01 0.  1.
         11    1    6    6    0    0  0.49861542923E+02  0.99467779044E+01  0.24060988894E+03  0.24592322076E+03  0.00000000000E+00 0. -1.
        -12    1    6    6    0    0  0.19604930214E-01  0.50919206661E+02  0.93081282761E+02  0.10609849759E+03  0.00000000000E+00 0.  1.
</event>
<event>
12    1  0.2614920E-002  0.2040717E+03  0.7818608E-02  0.1146348E+00
         -2   -1    0    0    0  501 -0.00000000000E+00  0.00000000000E+00  0.32891393424E+02  0.32891393424E+02  0.00000000000E+00 0. -1.
          2   -1    0    0  502    0  0.00000000000E+00 -0.00000000000E+00 -0.12767001013E+04  0.12767001013E+04  0.00000000000E+00 0.  1.
          6    2    1    2  502    0 -0.52644965784E+02 -0.96171919416E+02 -0.56180926858E+03  0.59766159535E+03  0.17189880101E+03 0.  0.
         24    2    3    3    0    0 -0.74861474361E+01 -0.11239684288E+03 -0.50261392671E+03  0.52131537400E+03  0.80373298757E+02 0.  0.
         -6    2    1    2    0  501  0.52644965784E+02  0.96171919416E+02 -0.68199943925E+03  0.71192989932E+03  0.17233808607E+03 0.  0.
        -24    2    5    5    0    0  0.78643913271E+02  0.97720579277E+02 -0.66245159429E+03  0.67902774346E+03  0.80637366681E+02 0.  0.
          5    1    3    3  502    0 -0.45158818348E+02  0.16224923460E+02 -0.59195341875E+02  0.76346221357E+02  0.47000000000E+01 0. -1.
        -11    1    4    4    0    0 -0.19355129794E+02  0.52269385130E+01 -0.80490238914E+02  0.82949505701E+02  0.00000000000E+00 0.  1.
         12    1    4    4    0    0  0.11868982358E+02 -0.11762378139E+03 -0.42212368779E+03  0.43836586830E+03  0.00000000000E+00 0. -1.
         -5    1    5    5    0  501 -0.25998947487E+02 -0.15486598611E+01 -0.19547844956E+02  0.32902155860E+02  0.47000000000E+01 0.  1.
         13    1    6    6    0    0  0.71332975491E+02  0.27375729834E+02 -0.28843845931E+03  0.29838660959E+03  0.00000000000E+00 0. -1.
        -14    1    6    6    0    0  0.73109377803E+01  0.70344849443E+02 -0.37401313498E+03  0.38064113387E+03  0.00000000000E+00 0.  1.
</event>
<event>
12    1  0.2614920E-002  0.2520323E+03  0.7818608E-02  0.1112027E+00
          2   -1    0    0  502    0  0.00000000000E+00  0.00000000000E+00  0.10781673376E+04  0.10781673376E+04  0.00000000000E+00 0.  1.
         -2   -1    0    0    0  501 -0.00000000000E+00 -0.00000000000E+00 -0.11918913551E+03  0.11918913551E+03  0.00000000000E+00 0. -1.
          6    2    1    2  502    0 -0.62116675260E+02  0.17422052627E+03  0.54294323013E+02  0.25837585338E+03  0.17204341016E+03 0.  0.
         24    2    3    3    0    0  0.11956783239E+02  0.32774030532E+02 -0.50288069591E+01  0.87978341190E+02  0.80608919336E+02 0.  0.
         -6    2    1    2    0  501  0.62116675260E+02 -0.17422052627E+03  0.90468387907E+03  0.93898061972E+03  0.17035377906E+03 0.  0.
        -24    2    5    5    0    0  0.73907642674E+02 -0.19311742386E+03  0.86811927706E+03  0.89590882185E+03  0.79150861203E+02 0.  0.
          5    1    3    3  502    0 -0.74073458500E+02  0.14144649574E+03  0.59323129972E+02  0.17039751219E+03  0.47000000000E+01 0. -1.
        -13    1    4    4    0    0 -0.12137660013E+02 -0.14335178800E+02  0.21697422738E+02  0.28698402313E+02  0.00000000000E+00 0.  1.
         14    1    4    4    0    0  0.24094443252E+02  0.47109209332E+02 -0.26726229697E+02  0.59279938878E+02  0.00000000000E+00 0. -1.
         -5    1    5    5    0  501 -0.11790967414E+02  0.18896897593E+02  0.36564602016E+02  0.43071797870E+02  0.47000000000E+01 0.  1.
         11    1    6    6    0    0 -0.28033742052E+01 -0.53899455781E+01  0.20478245125E+01  0.64112405588E+01  0.00000000000E+00 0. -1.
        -12    1    6    6    0    0  0.76711016879E+02 -0.18772747828E+03  0.86607145255E+03  0.88949758129E+03  0.00000000000E+00 0.  1.
</event>
<event>
12    1  0.2614920E-002  0.2155602E+03  0.7818608E-02  0.1137237E+00
         -3   -1    0    0    0  501 -0.00000000000E+00  0.00000000000E+00  0.18471882527E+03  0.18471882527E+03  0.00000000000E+00 0. -1.
          3   -1    0    0  502    0  0.00000000000E+00 -0.00000000000E+00 -0.76146215192E+03  0.76146215192E+03  0.00000000000E+00 0.  1.
          6    2    1    2  502    0  0.10901759824E+03 -0.72620419666E+02  0.98640449324E+02  0.23731866650E+03  0.17155654796E+03 0.  0.
         24    2    3    3    0    0  0.41281388103E+02 -0.11210486602E+02 -0.27565698787E+02  0.81403767069E+02  0.63536426794E+02 0.  0.
         -6    2    1    2    0  501 -0.10901759824E+03  0.72620419666E+02 -0.67538377597E+03  0.70886231070E+03  0.17083316014E+03 0.  0.
        -24    2    5    5    0    0 -0.13994218376E+01 -0.42588600760E+01 -0.21469434966E+03  0.22954098522E+03  0.81088247282E+02 0.  0.
          5    1    3    3  502    0  0.67736210142E+02 -0.61409933064E+02  0.12620614811E+03  0.15591489943E+03  0.47000000000E+01 0. -1.
        -13    1    4    4    0    0 -0.16674773474E+02  0.90733014285E+00 -0.16820307042E+01  0.16783937133E+02  0.00000000000E+00 0.  1.
         14    1    4    4    0    0  0.57956161577E+02 -0.12117816744E+02 -0.25883668083E+02  0.64619829935E+02  0.00000000000E+00 0. -1.
         -5    1    5    5    0  501 -0.10761817641E+03  0.76879279742E+02 -0.46068942631E+03  0.47932132548E+03  0.47000000000E+01 0.  1.
         13    1    6    6    0    0  0.56518307065E+01  0.28580027972E+02 -0.30002683582E+02  0.41820117304E+02  0.00000000000E+00 0. -1.
        -14    1    6    6    0    0 -0.70512525441E+01 -0.32838888048E+02 -0.18469166608E+03  0.18772086791E+03  0.00000000000E+00 0.  1.
</event>
<event>
12    1  0.2614920E-002  0.1846064E+03  0.7818608E-02  0.1163418E+00
         -3   -1    0    0    0  501 -0.00000000000E+00  0.00000000000E+00  0.14867415913E+02  0.14867415913E+02  0.00000000000E+00 0.  1.
          3   -1    0    0  502    0  0.00000000000E+00 -0.00000000000E+00 -0.22958160685E+04  0.22958160685E+04  0.00000000000E+00 0. -1.
          6    2    1    2  502    0  0.65173455786E+02 -0.15814262839E+02 -0.10986234705E+04  0.11141243340E+04  0.17263206941E+03 0.  0.
         24    2    3    3    0    0  0.99821868743E+02  0.22376832257E+02 -0.87663475552E+03  0.88617663857E+03  0.79720838308E+02 0.  0.
         -6    2    1    2    0  501 -0.65173455786E+02  0.15814262839E+02 -0.11823251821E+04  0.11965591505E+04  0.17135721180E+03 0.  0.
        -24    2    5    5    0    0 -0.99841006440E+02 -0.20240413060E+02 -0.71733749227E+03  0.72886542543E+03  0.79333660489E+02 0.  0.
          5    1    3    3  502    0 -0.34648412957E+02 -0.38191095096E+02 -0.22198871497E+03  0.22794769540E+03  0.47000000000E+01 0. -1.
        -11    1    4    4    0    0  0.44409234327E+02  0.48902156251E+02 -0.37242080550E+03  0.37823386595E+03  0.00000000000E+00 0.  1.
         12    1    4    4    0    0  0.55412634416E+02 -0.26525323994E+02 -0.50421395002E+03  0.50794277262E+03  0.00000000000E+00 0. -1.
         -5    1    5    5    0  501  0.34667550654E+02  0.36054675899E+02 -0.46498768986E+03  0.46769372505E+03  0.47000000000E+01 0.  1.
         11    1    6    6    0    0  0.11614523310E+02  0.72125705863E+01 -0.56333201069E+02  0.57968507561E+02  0.00000000000E+00 0. -1.
        -12    1    6    6    0    0 -0.11145552975E+03 -0.27452983646E+02 -0.66100429120E+03  0.67089691787E+03  0.00000000000E+00 0.  1.
</event>
<event>
12    1  0.2614920E-002  0.1743027E+03  0.7818608E-02  0.1173434E+00
          2   -1    0    0  502    0  0.00000000000E+00  0.00000000000E+00  0.25565026899E+03  0.25565026899E+03  0.00000000000E+00 0. -1.
         -2   -1    0    0    0  501 -0.00000000000E+00 -0.00000000000E+00 -0.12374280380E+03  0.12374280380E+03  0.00000000000E+00 0.  1.
          6    2    1    2  502    0  0.92278828958E+01 -0.59754950099E+01  0.10301097646E+03  0.20093117541E+03  0.17216624412E+03 0.  0.
         24    2    3    3    0    0  0.43219954298E+02 -0.46567687791E+02  0.24434690173E+02  0.10606542922E+03  0.81340685980E+02 0.  0.
         -6    2    1    2    0  501 -0.92278828958E+01  0.59754950099E+01  0.28896488728E+02  0.17846189739E+03  0.17576342451E+03 0.  0.
        -24    2    5    5    0    0 -0.22026673181E+02  0.41595761127E+02  0.74832457189E+02  0.11875582074E+03  0.79294808370E+02 0.  0.
          5    1    3    3  502    0 -0.33992071402E+02  0.40592192781E+02  0.78576286289E+02  0.94865746189E+02  0.47000000000E+01 0. -1.
        -11    1    4    4    0    0  0.32390063892E+02 -0.48307735341E+02  0.50981033446E+02  0.77342222001E+02  0.00000000000E+00 0.  1.
         12    1    4    4    0    0  0.10829890406E+02  0.17400475502E+01 -0.26546343273E+02  0.28723207217E+02  0.00000000000E+00 0. -1.
         -5    1    5    5    0  501  0.12798790285E+02 -0.35620266117E+02 -0.45935968462E+02  0.59706076655E+02  0.47000000000E+01 0.  1.
         13    1    6    6    0    0 -0.41917497811E+01  0.43277952658E+02  0.17562893408E+01  0.43515933918E+02  0.00000000000E+00 0. -1.
        -14    1    6    6    0    0 -0.17834923400E+02 -0.16821915305E+01  0.73076167848E+02  0.75239886818E+02  0.00000000000E+00 0.  1.
</event>
<event>
12    1  0.2614920E-002  0.2293221E+03  0.7818608E-02  0.1127118E+00
          2   -1    0    0  502    0  0.00000000000E+00  0.00000000000E+00  0.10875767079E+04  0.10875767079E+04  0.00000000000E+00 0.  1.
         -2   -1    0    0    0  501 -0.00000000000E+00 -0.00000000000E+00 -0.61181012278E+02  0.61181012278E+02  0.00000000000E+00 0. -1.
          6    2    1    2  502    0 -0.14502877804E+03 -0.31772286085E+02  0.24739022309E+03  0.33624353765E+03  0.17267011758E+03 0.  0.
         24    2    3    3    0    0 -0.45022403372E+02 -0.72008541303E+02  0.15271284402E+03  0.19269519278E+03  0.81227937086E+02 0.  0.
         -6    2    1    2    0  501  0.14502877804E+03  0.31772286085E+02  0.77900547250E+03  0.81251418250E+03  0.17688116338E+03 0.  0.
        -24    2    5    5    0    0  0.11870770568E+03  0.40971612257E+02  0.76772267564E+03  0.78207049749E+03  0.80411217820E+02 0.  0.
          5    1    3    3  502    0 -0.10000637467E+03  0.40236255218E+02  0.94677379071E+02  0.14354834487E+03  0.47000000000E+01 0. -1.
        -13    1    4    4    0    0 -0.49120977983E+02 -0.15922132733E+02  0.11180804517E+03  0.12315609507E+03  0.00000000000E+00 0.  1.
         14    1    4    4    0    0  0.40985746113E+01 -0.56086408570E+02  0.40904798853E+02  0.69539097703E+02  0.00000000000E+00 0. -1.
         -5    1    5    5    0  501  0.26321072362E+02 -0.91993261716E+01  0.11282796864E+02  0.30443685016E+02  0.47000000000E+01 0.  1.
         11    1    6    6    0    0  0.11249165558E+03  0.56948090865E+02  0.57892393537E+03  0.59249504688E+03  0.00000000000E+00 0. -1.
        -12    1    6    6    0    0  0.62160501016E+01 -0.15976478608E+02  0.18879874027E+03  0.18957545061E+03  0.00000000000E+00 0.  1.
</event>
<event>
12    1  0.2614920E-002  0.1809918E+03  0.7818608E-02  0.1166847E+00
         -2   -1    0    0    0  501 -0.00000000000E+00  0.00000000000E+00  0.41875830834E+02  0.41875830834E+02  0.00000000000E+00 0.  1.
          2   -1    0    0  502    0  0.00000000000E+00 -0.00000000000E+00 -0.12711994001E+04  0.12711994001E+04  0.00000000000E+00 0. -1.
          6    2    1    2  502    0 -0.79508164432E+02  0.11523613289E+02 -0.22035530185E+03  0.28901452042E+03  0.16887448618E+03 0.  0.
         24    2    3    3    0    0 -0.13528317215E+02 -0.24059116842E+02 -0.19048224173E+03  0.20818160235E+03  0.79336238077E+02 0.  0.
         -6    2    1    2    0  501  0.79508164432E+02 -0.11523613289E+02 -0.10089682674E+04  0.10240607105E+04  0.15565677724E+03 0.  0.
        -24    2    5    5    0    0  0.61735537404E+02 -0.36498899633E+02 -0.34787613939E+03  0.36224160915E+03  0.71117710795E+02 0.  0.
          5    1    3    3  502    0 -0.65979847217E+02  0.35582730131E+02 -0.29873060119E+02  0.80832918068E+02  0.47000000000E+01 0. -1.
        -13    1    4    4    0    0  0.21114562981E+01 -0.31724821586E+02 -0.21679746403E+02  0.38482904730E+02  0.00000000000E+00 0.  1.
         14    1    4    4    0    0 -0.15639773513E+02  0.76657047440E+01 -0.16880249533E+03  0.16969869762E+03  0.00000000000E+00 0. -1.
         -5    1    5    5    0  501  0.17772627029E+02  0.24975286345E+02 -0.66109212804E+03  0.66181910138E+03  0.47000000000E+01 0.  1.
         13    1    6    6    0    0  0.18060148717E+02 -0.16187665136E+02 -0.26706783343E+03  0.26816680840E+03  0.00000000000E+00 0. -1.
        -14    1    6    6    0    0  0.43675388686E+02 -0.20311234498E+02 -0.80808305955E+02  0.94074800744E+02  0.00000000000E+00 0.  1.
</event>
<event>
12    1  0.2614920E-002  0.2026008E+03  0.7818608E-02  0.1147563E+00
          1   -1    0    0  502    0  0.00000000000E+00  0.00000000000E+00  0.11234925951E+04  0.11234925951E+04  0.00000000000E+00 0. -1.
         -1   -1    0    0    0  501 -0.00000000000E+00 -0.00000000000E+00 -0.39806731552E+02  0.39806731552E+02  0.00000000000E+00 0.  1.
          6    2    1    2  502    0 -0.10919472109E+03 -0.14714506626E+02  0.36944457425E+03  0.42022833084E+03  0.16722007288E+03 0.  0.
         24    2    3    3    0    0 -0.10952370124E+02 -0.22590919039E+02  0.26053293751E+03  0.27326768300E+03  0.78533502464E+02 0.  0.
         -6    2    1    2    0  501  0.10919472109E+03  0.14714506626E+02  0.71424128932E+03  0.74307099584E+03  0.17284062506E+03 0.  0.
        -24    2    5    5    0    0  0.53366036318E+02  0.22235019868E+02  0.64985523133E+03  0.65739104121E+03  0.80677316722E+02 0.  0.
          5    1    3    3  502    0 -0.98242350963E+02  0.78764124135E+01  0.10891163674E+03  0.14696064784E+03  0.47000000000E+01 0. -1.
        -13    1    4    4    0    0 -0.42014262172E+02 -0.23549334857E+01  0.99683600514E+02  0.10820149791E+03  0.00000000000E+00 0.  1.
         14    1    4    4    0    0  0.31061892048E+02 -0.20235985554E+02  0.16084933700E+03  0.16506618509E+03  0.00000000000E+00 0. -1.
         -5    1    5    5    0  501  0.55828684769E+02 -0.75205132415E+01  0.64386057996E+02  0.85679954638E+02  0.47000000000E+01 0.  1.
         11    1    6    6    0    0  0.60509200436E+01  0.45708154205E+02  0.32968592477E+03  0.33289436460E+03  0.00000000000E+00 0. -1.
        -12    1    6    6    0    0  0.47315116275E+02 -0.23473134338E+02  0.32016930656E+03  0.32449667661E+03  0.00000000000E+00 0.  1.
</event>
<event>
12    1  0.2614920E-002  0.2101272E+03  0.7818608E-02  0.1141465E+00
         -1   -1    0    0    0  501 -0.00000000000E+00  0.00000000000E+00  0.10991242669E+03  0.10991242669E+03  0.00000000000E+00 0. -1.
          1   -1    0    0  502    0  0.00000000000E+00 -0.00000000000E+00 -0.10206354421E+04  0.10206354421E+04  0.00000000000E+00 0.  1.
          6    2    1    2  502    0 -0.44955968986E+02 -0.11025141861E+03 -0.89580821027E+03  0.92019140729E+03  0.17350349281E+03 0.  0.
         24    2    3    3    0    0  0.15699009768E+02 -0.99431292588E+01 -0.52589985689E+03  0.53212561485E+03  0.79004340263E+02 0.  0.
         -6    2    1    2    0  501  0.44955968986E+02  0.11025141861E+03 -0.14914805118E+02  0.21035646147E+03  0.17277434710E+03 0.  0.
        -24    2    5    5    0    0 -0.34479374656E+02  0.69699232947E+02 -0.34678304726E+02  0.11888439197E+03  0.82970497674E+02 0.  0.
          5    1    3    3  502    0 -0.60654978754E+02 -0.10030828936E+03 -0.36990835338E+03  0.38806579244E+03  0.47000000000E+01 0. -1.
        -13    1    4    4    0    0  0.18445074702E+02 -0.41897704601E+02 -0.23141674524E+03  0.23590114118E+03  0.00000000000E+00 0.  1.
         14    1    4    4    0    0 -0.27460649333E+01  0.31954575343E+02 -0.29448311165E+03  0.29622447367E+03  0.00000000000E+00 0. -1.
         -5    1    5    5    0  501  0.79435343642E+02  0.40552185667E+02  0.19763499609E+02  0.91472069501E+02  0.47000000000E+01 0.  1.
         11    1    6    6    0    0 -0.41723507103E+02  0.18554264222E+02  0.14148333876E+02  0.47804676730E+02  0.00000000000E+00 0. -1.
        -12    1    6    6    0    0  0.72441324471E+01  0.51144968725E+02 -0.48826638602E+02  0.71079715235E+02  0.00000000000E+00 0.  1.
</event>
<event>
12    1  0.2614920E-002  0.2472914E+03  0.7818608E-02  0.1115029E+00
         -3   -1    0    0    0  501 -0.00000000000E+00  0.00000000000E+00  0.22098927070E+03  0.22098927070E+03  0.00000000000E+00 0. -1.
          3   -1    0    0  502    0  0.00000000000E+00 -0.00000000000E+00 -0.32767020824E+03  0.32767020824E+03  0.00000000000E+00 0.  1.
          6    2    1    2  502    0 -0.17673079855E+02  0.17706302898E+03  0.54857472416E+02  0.25315723728E+03  0.17150973886E+03 0.  0.
         24    2    3    3    0    0 -0.42404940020E+02  0.12818542154E+03 -0.21589728307E+02  0.15899275398E+03  0.81135061571E+02 0.  0.
         -6    2    1    2    0  501  0.17673079855E+02 -0.17706302898E+03 -0.16153840996E+03  0.29550224166E+03  0.17193970731E+03 0.  0.
        -24    2    5    5    0    0  0.46182273300E+02 -0.88757134997E+02 -0.26117431737E+02  0.13127180488E+03  0.80867392289E+02 0.  0.
          5    1    3    3  502    0  0.24731860166E+02  0.48877607441E+02  0.76447200724E+02  0.94164483299E+02  0.47000000000E+01 0. -1.
        -13    1    4    4    0    0 -0.51035463522E+02  0.52179348938E+02 -0.35629545909E+02  0.81220487158E+02  0.00000000000E+00 0.  1.
         14    1    4    4    0    0  0.86305235016E+01  0.76006072604E+02  0.14039817602E+02  0.77772266824E+02  0.00000000000E+00 0. -1.
         -5    1    5    5    0  501 -0.28509193446E+02 -0.88305893986E+02 -0.13542097822E+03  0.16423043678E+03  0.47000000000E+01 0.  1.
         13    1    6    6    0    0  0.58969254878E+02 -0.65100549489E+02 -0.44726694204E+02  0.98569425985E+02  0.00000000000E+00 0. -1.
        -14    1    6    6    0    0 -0.12786981578E+02 -0.23656585508E+02  0.18609262467E+02  0.32702378894E+02  0.00000000000E+00 0.  1.
</event>
<event>
12    1  0.2614920E-002  0.1861411E+03  0.7818608E-02  0.1161989E+00
         -2   -1    0    0    0  501 -0.00000000000E+00  0.00000000000E+00  0.18661242326E+02  0.18661242326E+02  0.00000000000E+00 0. -1.
          2   -1    0    0  502    0  0.00000000000E+00 -0.00000000000E+00 -0.19014337813E+04  0.19014337813E+04  0.00000000000E+00 0.  1.
          6    2    1    2  502    0  0.72196306065E+01 -0.80278146630E+02 -0.79959567973E+03  0.82122279366E+03  0.16898793417E+03 0.  0.
         24    2    3    3    0    0  0.55650282806E+02 -0.47479901865E+02 -0.31746606222E+03  0.33553533139E+03  0.80299208526E+02 0.  0.
         -6    2    1    2    0  501 -0.72196306065E+01  0.80278146630E+02 -0.10831768593E+04  0.10988722300E+04  0.16658741096E+03 0.  0.
        -24    2    5    5    0    0 -0.43837750063E+02  0.31887715980E+02 -0.34871901529E+03  0.36189669781E+03  0.80160423513E+02 0.  0.
          5    1    3    3  502    0 -0.48430652199E+02 -0.32798244764E+02 -0.48212961751E+03  0.48568746227E+03  0.47000000000E+01 0. -1.
        -11    1    4    4    0    0 -0.87102680023E+00 -0.51756327397E+02 -0.14196909795E+03  0.15111155113E+03  0.00000000000E+00 0.  1.
         12    1    4    4    0    0  0.56521309606E+02  0.42764255314E+01 -0.17549696427E+03  0.18442378026E+03  0.00000000000E+00 0. -1.
         -5    1    5    5    0  501  0.36618119456E+02  0.48390430650E+02 -0.73445784398E+03  0.73697553218E+03  0.47000000000E+01 0.  1.
         11    1    6    6    0    0 -0.76442094131E+01 -0.18623829015E+02 -0.24186224394E+02  0.31468307790E+02  0.00000000000E+00 0. -1.
        -12    1    6    6    0    0 -0.36193540649E+02  0.50511544994E+02 -0.32453279090E+03  0.33042839002E+03  0.00000000000E+00 0.  1.
</event>
<event>
12    1  0.2614920E-002  0.2107885E+03  0.7818608E-02  0.1140943E+00
          2   -1    0    0  502    0  0.00000000000E+00  0.00000000000E+00  0.42995522131E+03  0.42995522131E+03  0.00000000000E+00 0. -1.
         -2   -1    0    0    0  501 -0.00000000000E+00 -0.00000000000E+00 -0.10335694763E+03  0.10335694763E+03  0.00000000000E+00 0.  1.
          6    2    1    2  502    0  0.79071531547E+01 -0.12027696613E+03  0.16654442633E+03  0.26853003956E+03  0.17274913763E+03 0.  0.
         24    2    3    3    0    0 -0.61865052686E+02 -0.79359784468E+02  0.11675207503E+03  0.17343143436E+03  0.79511981904E+02 0.  0.
         -6    2    1    2    0  501 -0.79071531547E+01  0.12027696613E+03  0.16005384736E+03  0.26478212938E+03  0.17309901886E+03 0.  0.
        -24    2    5    5    0    0  0.50150560406E+02  0.11812911315E+03  0.10151096386E+03  0.18217056491E+03  0.80075419764E+02 0.  0.
          5    1    3    3  502    0  0.69772205840E+02 -0.40917181660E+02  0.49792351291E+02  0.95098605194E+02  0.47000000000E+01 0. -1.
        -13    1    4    4    0    0 -0.33426535576E+02 -0.80638038483E+02  0.49376855404E+02  0.10028908405E+03  0.00000000000E+00 0.  1.
         14    1    4    4    0    0 -0.28438517109E+02  0.12782540141E+01  0.67375219629E+02  0.73142350309E+02  0.00000000000E+00 0. -1.
         -5    1    5    5    0  501 -0.58057713560E+02  0.21478529734E+01  0.58542883494E+02  0.82611564469E+02  0.47000000000E+01 0.  1.
         11    1    6    6    0    0  0.65657172344E+01  0.91914850213E+02  0.35298222397E+02  0.98678330128E+02  0.00000000000E+00 0. -1.
        -12    1    6    6    0    0  0.43584843171E+02  0.26214262942E+02  0.66212741467E+02  0.83492234780E+02  0.00000000000E+00 0.  1.
</event>
<event>
12    1  0.2614920E-002  0.4166267E+03  0.7818608E-02  0.1038170E+00
         -2   -1    0    0    0  501 -0.00000000000E+00  0.00000000000E+00  0.28405613659E+03  0.28405613659E+03  0.00000000000E+00 0.  1.
          2   -1    0    0  502    0  0.00000000000E+00 -0.00000000000E+00 -0.10507241558E+04  0.10507241558E+04  0.00000000000E+00 0. -1.
          6    2    1    2  502    0 -0.31025004074E+03  0.21863356882E+03 -0.81508699629E+03  0.91543007878E+03  0.17201654692E+03 0.  0.
         24    2    3    3    0    0 -0.32192604259E+03  0.18264996876E+03 -0.72814799145E+03  0.82050047826E+03  0.77615393980E+02 0.  0.
         -6    2    1    2    0  501  0.31025004074E+03 -0.21863356882E+03  0.48418977078E+02  0.41935021362E+03  0.17162307281E+03 0.  0.
        -24    2    5    5    0    0  0.19294637021E+03 -0.63900364719E+02  0.50013243228E+02  0.22511544006E+03  0.82849734261E+02 0.  0.
          5    1    3    3  502    0  0.11676001846E+02  0.35983600060E+02 -0.86939004846E+02  0.94929600526E+02  0.47000000000E+01 0. -1.
        -11    1    4    4    0    0 -0.16734946198E+03  0.88924551965E+02 -0.45571241062E+03  0.49354555976E+03  0.00000000000E+00 0.  1.
         12    1    4    4    0    0 -0.15457658061E+03  0.93725416798E+02 -0.27243558083E+03  0.32695491850E+03  0.00000000000E+00 0. -1.
         -5    1    5    5    0  501  0.11730367053E+03 -0.15473320410E+03 -0.15942661502E+01  0.19423477356E+03  0.47000000000E+01 0.  1.
         11    1    6    6    0    0  0.78517246295E+02 -0.66792752463E+02  0.38634195002E+02  0.11008556114E+03  0.00000000000E+00 0. -1.
        -12    1    6    6    0    0  0.11442912391E+03  0.28923877442E+01  0.11379048226E+02  0.11502987892E+03  0.00000000000E+00 0.  1.
</event>
<event>
12    1  0.2614920E-002  0.1928397E+03  0.7818608E-02  0.1155925E+00
          3   -1    0    0  502    0  0.00000000000E+00  0.00000000000E+00  0.92631774101E+02  0.92631774101E+02  0.00000000000E+00 0.  1.
         -3   -1    0    0    0  501 -0.00000000000E+00 -0.00000000000E+00 -0.53029290212E+03  0.53029290212E+03  0.00000000000E+00 0. -1.
          6    2    1    2  502    0  0.77770035879E+02  0.37782275916E+02 -0.37210200509E+03  0.41896812197E+03  0.17204274521E+03 0.  0.
         24    2    3    3    0    0 -0.10765867642E+02 -0.82300770354E+01 -0.23914164559E+03  0.25266631790E+03  0.80423276943E+02 0.  0.
         -6    2    1    2    0  501 -0.77770035879E+02 -0.37782275916E+02 -0.65559122935E+02  0.20395655426E+03  0.17269799816E+03 0.  0.
        -24    2    5    5    0    0 -0.22735312158E+02  0.42082181361E+02 -0.14660002157E+02  0.94320963104E+02  0.79960765446E+02 0.  0.
          5    1    3    3  502    0  0.88535903522E+02  0.46012352951E+02 -0.13296035950E+03  0.16630180406E+03  0.47000000000E+01 0. -1.
        -11    1    4    4    0    0 -0.38233475043E+01 -0.28975556079E+02 -0.28266613910E+02  0.40659590482E+02  0.00000000000E+00 0.  1.
         12    1    4    4    0    0 -0.69425201380E+01  0.20745479044E+02 -0.21087503168E+03  0.21200672742E+03  0.00000000000E+00 0. -1.
         -5    1    5    5    0  501 -0.55034723722E+02 -0.79864457277E+02 -0.50899120778E+02  0.10963559115E+03  0.47000000000E+01 0.  1.
         13    1    6    6    0    0 -0.14465563584E+02  0.22535291784E+02 -0.47903303382E+02  0.54880036265E+02  0.00000000000E+00 0. -1.
        -14    1    6    6    0    0 -0.82697485735E+01  0.19546889577E+02  0.33243301225E+02  0.39440926839E+02  0.00000000000E+00 0.  1.
</event>
<event>
12    1  0.2614920E-002  0.1858265E+03  0.7818608E-02  0.1162280E+00
         -1   -1    0    0    0  501 -0.00000000000E+00  0.00000000000E+00  0.33835883225E+03  0.33835883225E+03  0.00000000000E+00 0.  1.
          1   -1    0    0  502    0  0.00000000000E+00 -0.00000000000E+00 -0.13104364813E+03  0.13104364813E+03  0.00000000000E+00 0. -1.
          6    2    1    2  502    0 -0.37076287491E+02 -0.60124642499E+02  0.21440422243E+03  0.28427877653E+03  0.17278781340E+03 0.  0.
         24    2    3    3    0    0  0.38211039618E+02 -0.55741146475E+02  0.13999196041E+03  0.17822845168E+03  0.87180691961E+02 0.  0.
         -6    2    1    2    0  501  0.37076287491E+02  0.60124642499E+02 -0.70890383075E+01  0.18512370385E+03  0.17097048732E+03 0.  0.
        -24    2    5    5    0    0  0.69862932708E+02 -0.93673279647E+00  0.26035676054E+02  0.10816402376E+03  0.78357467888E+02 0.  0.
          5    1    3    3  502    0 -0.75287327109E+02 -0.43834960246E+01  0.74412262022E+02  0.10605032485E+03  0.47000000000E+01 0. -1.
        -13    1    4    4    0    0 -0.31554421183E+01  0.16654376215E+02  0.61219144937E+02  0.63522506003E+02  0.00000000000E+00 0.  1.
         14    1    4    4    0    0  0.41366481736E+02 -0.72395522690E+02  0.78772815474E+02  0.11470594568E+03  0.00000000000E+00 0. -1.
         -5    1    5    5    0  501 -0.32786645217E+02  0.61061375296E+02 -0.33124714361E+02  0.76959680087E+02  0.47000000000E+01 0.  1.
         11    1    6    6    0    0  0.78162983900E+02  0.16919397435E+02  0.61982446632E+01  0.80213068129E+02  0.00000000000E+00 0. -1.
        -12    1    6    6    0    0 -0.83000511916E+01 -0.17856130232E+02  0.19837431390E+02  0.27950955633E+02  0.00000000000E+00 0.  1.
</event>
<event>
12    1  0.2614920E-002  0.2105709E+03  0.7818608E-02  0.1141115E+00
          2   -1    0    0  502    0  0.00000000000E+00  0.00000000000E+00  0.24254644347E+04  0.24254644347E+04  0.00000000000E+00 0.  1.
         -2   -1    0    0    0  501 -0.00000000000E+00 -0.00000000000E+00 -0.18997098830E+02  0.18997098830E+02  0.00000000000E+00 0. -1.
          6    2    1    2  502    0 -0.45613905626E+02 -0.10922025624E+03  0.14326363512E+04  0.14478252152E+04  0.17245650602E+03 0.  0.
         24    2    3    3    0    0 -0.21785280173E+02  0.93951731497E+01  0.74691454579E+03  0.75149633616E+03  0.79388518330E+02 0.  0.
         -6    2    1    2    0  501  0.45613905626E+02  0.10922025624E+03  0.97383098474E+03  0.99663631832E+03  0.17586208058E+03 0.  0.
        -24    2    5    5    0    0  0.38571305463E+02 -0.13252935488E+01  0.26738153259E+03  0.28153993654E+03  0.79261276074E+02 0.  0.
          5    1    3    3  502    0 -0.23828625453E+02 -0.11861542939E+03  0.68572180536E+03  0.69632887907E+03  0.47000000000E+01 0. -1.
        -11    1    4    4    0    0  0.20841080822E+02  0.14056104226E+02  0.51740881926E+03  0.51801912220E+03  0.00000000000E+00 0.  1.
         12    1    4    4    0    0 -0.42626360995E+02 -0.46609310763E+01  0.22950572652E+03  0.23347721396E+03  0.00000000000E+00 0. -1.
         -5    1    5    5    0  501  0.70426001631E+01  0.11054554979E+03  0.70644945215E+03  0.71509638178E+03  0.47000000000E+01 0.  1.
         13    1    6    6    0    0  0.16297949601E+02  0.38506677062E+02  0.14572701228E+03  0.15160722096E+03  0.00000000000E+00 0. -1.
        -14    1    6    6    0    0  0.22273355862E+02 -0.39831970611E+02  0.12165452031E+03  0.12993271558E+03  0.00000000000E+00 0.  1.
</event>
<event>
12    1  0.2614920E-002  0.1900543E+03  0.7818608E-02  0.1158412E+00
          2   -1    0    0  502    0  0.00000000000E+00  0.00000000000E+00  0.50468455935E+02  0.50468455935E+02  0.00000000000E+00 0.  1.
         -2   -1    0    0    0  501 -0.00000000000E+00 -0.00000000000E+00 -0.74570642757E+03  0.74570642757E+03  0.00000000000E+00 0. -1.
          6    2    1    2  502    0 -0.74545408154E+02  0.24547721527E+02 -0.42694155606E+03  0.46721227553E+03  0.17276750161E+03 0.  0.
         24    2    3    3    0    0 -0.11330575608E+03  0.11099434579E+02 -0.25920909715E+03  0.29447117225E+03  0.81009403344E+02 0.  0.
         -6    2    1    2    0  501  0.74545408154E+02 -0.24547721527E+02 -0.26829641558E+03  0.32896260797E+03  0.17341805650E+03 0.  0.
        -24    2    5    5    0    0  0.93881805693E+02 -0.11675389306E+02 -0.10301175436E+03  0.16198745281E+03  0.81721509872E+02 0.  0.
          5    1    3    3  502    0  0.38760347930E+02  0.13448286948E+02 -0.16773245891E+03  0.17274110329E+03  0.47000000000E+01 0. -1.
        -13    1    4    4    0    0 -0.87396277408E+02  0.41912996615E+02 -0.20676660547E+03  0.22835769689E+03  0.00000000000E+00 0.  1.
         14    1    4    4    0    0 -0.25909478677E+02 -0.30813562036E+02 -0.52442491673E+02  0.66113475355E+02  0.00000000000E+00 0. -1.
         -5    1    5    5    0  501 -0.19336397539E+02 -0.12872332221E+02 -0.16528466122E+03  0.16697515516E+03  0.47000000000E+01 0.  1.
         13    1    6    6    0    0  0.77984125739E+01  0.28611409656E+02 -0.29529415890E+02  0.41849903274E+02  0.00000000000E+00 0. -1.
        -14    1    6    6    0    0  0.86083393119E+02 -0.40286798962E+02 -0.73482338470E+02  0.12013754954E+03  0.00000000000E+00 0.  1.
</event>
<event>
12    1  0.2614920E-002  0.3421184E+03  0.7818608E-02  0.1065897E+00
          4   -1    0    0  502    0  0.00000000000E+00  0.00000000000E+00  0.17579634522E+03  0.17579634522E+03  0.00000000000E+00 0. -1.
         -4   -1    0    0    0  501 -0.00000000000E+00 -0.00000000000E+00 -0.68172980787E+03  0.68172980787E+03  0.00000000000E+00 0.  1.
          6    2    1    2  502    0 -0.10322578334E+03 -0.27751283485E+03 -0.18721399215E+03  0.38973766108E+03  0.17081402095E+03 0.  0.
         24    2    3    3    0    0 -0.13896067810E+03 -0.22970462203E+03 -0.13924181104E+03  0.31301720699E+03  0.80729217065E+02 0.  0.
         -6    2    1    2    0  501  0.10322578334E+03  0.27751283485E+03 -0.31871947050E+03  0.46778849202E+03  0.17197394145E+03 0.  0.
        -24    2    5    5    0    0  0.75628098110E+02  0.94881930648E+02 -0.79464588278E+02  0.16549613673E+03  0.79700442252E+02 0.  0.
          5    1    3    3  502    0  0.35734894752E+02 -0.47808212817E+02 -0.47972181108E+02  0.76720454091E+02  0.47000000000E+01 0. -1.
        -13    1    4    4    0    0 -0.97630166310E+02 -0.21231741553E+03 -0.12935518752E+03  0.26710128950E+03  0.00000000000E+00 0.  1.
         14    1    4    4    0    0 -0.41330511786E+02 -0.17387206500E+02 -0.98866235199E+01  0.45915917491E+02  0.00000000000E+00 0. -1.
         -5    1    5    5    0  501  0.27597685234E+02  0.18263090420E+03 -0.23925488222E+03  0.30229235529E+03  0.47000000000E+01 0.  1.
         13    1    6    6    0    0  0.82739066624E+02  0.77003853752E+02 -0.89150386688E+02  0.14395533365E+03  0.00000000000E+00 0. -1.
        -14    1    6    6    0    0 -0.71109685132E+01  0.17878076896E+02  0.96857984100E+01  0.21540803085E+02  0.00000000000E+00 0.  1.
</event>
<event>
12    1  0.2614920E-002  0.1880598E+03  0.7818608E-02  0.1160223E+00
         -1   -1    0    0    0  501 -0.00000000000E+00  0.00000000000E+00  0.51773687011E+02  0.51773687011E+02  0.00000000000E+00 0. -1.
          1   -1    0    0  502    0  0.00000000000E+00 -0.00000000000E+00 -0.82322088401E+03  0.82322088401E+03  0.00000000000E+00 0.  1.
          6    2    1    2  502    0  0.63756943261E+02  0.36408200909E+02 -0.56780995029E+03  0.59843982769E+03  0.17415964747E+03 0.  0.
         24    2    3    3    0    0 -0.37764604161E+00 -0.36511567839E+02 -0.33613321691E+03  0.34718948040E+03  0.78878124929E+02 0.  0.
         -6    2    1    2    0  501 -0.63756943261E+02 -0.36408200909E+02 -0.20363724671E+03  0.27655474333E+03  0.17211592868E+03 0.  0.
        -24    2    5    5    0    0 -0.59925672017E+02  0.72694097924E+01 -0.20922168994E+03  0.23210602769E+03  0.80346512448E+02 0.  0.
          5    1    3    3  502    0  0.64134589302E+02  0.72919768749E+02 -0.23167673339E+03  0.25125034729E+03  0.47000000000E+01 0. -1.
        -13    1    4    4    0    0  0.16329650633E+02 -0.55243802294E+02 -0.17836222643E+03  0.18743430582E+03  0.00000000000E+00 0.  1.
         14    1    4    4    0    0 -0.16707296675E+02  0.18732234454E+02 -0.15777099048E+03  0.15975517459E+03  0.00000000000E+00 0. -1.
         -5    1    5    5    0  501 -0.38312712438E+01 -0.43677610702E+02  0.55844432341E+01  0.44448715641E+02  0.47000000000E+01 0.  1.
         11    1    6    6    0    0 -0.28581658175E+02  0.15994348120E+01 -0.99525280560E+01  0.30307131016E+02  0.00000000000E+00 0. -1.
        -12    1    6    6    0    0 -0.31344013842E+02  0.56699749805E+01 -0.19926916188E+03  0.20179889667E+03  0.00000000000E+00 0.  1.
</event>
<event>
12    1  0.2614920E-002  0.2478588E+03  0.7818608E-02  0.1114666E+00
         -1   -1    0    0    0  501 -0.00000000000E+00  0.00000000000E+00  0.15417722112E+03  0.15417722112E+03  0.00000000000E+00 0. -1.
          1   -1    0    0  502    0  0.00000000000E+00 -0.00000000000E+00 -0.39848825831E+03  0.39848825831E+03  0.00000000000E+00 0.  1.
          6    2    1    2  502    0 -0.20193140697E+02 -0.17938116773E+03 -0.11982096117E+03  0.27491355006E+03  0.16921888488E+03 0.  0.
         24    2    3    3    0    0 -0.12136395900E+02 -0.18887002923E+02 -0.24310476140E+02  0.87917210987E+02  0.81451984339E+02 0.  0.
         -6    2    1    2    0  501  0.20193140697E+02  0.17938116773E+03 -0.12449007602E+03  0.27775192938E+03  0.17047870535E+03 0.  0.
        -24    2    5    5    0    0 -0.33216794629E+02  0.40688225957E+02 -0.27005629200E+02  0.99949621568E+02  0.80633340910E+02 0.  0.
          5    1    3    3  502    0 -0.80567447974E+01 -0.16049416481E+03 -0.95510485029E+02  0.18699633907E+03  0.47000000000E+01 0. -1.
        -13    1    4    4    0    0  0.25133955553E+02 -0.13829339170E+02 -0.38243739346E+02  0.47807425603E+02  0.00000000000E+00 0.  1.
         14    1    4    4    0    0 -0.37270351453E+02 -0.50576637532E+01  0.13933263206E+02  0.40109785385E+02  0.00000000000E+00 0. -1.
         -5    1    5    5    0  501  0.53409935326E+02  0.13869294178E+03 -0.97484446823E+02  0.17780230781E+03  0.47000000000E+01 0.  1.
         11    1    6    6    0    0  0.26929320436E+02  0.13306814387E+02 -0.62460409049E+01  0.30680166806E+02  0.00000000000E+00 0. -1.
        -12    1    6    6    0    0 -0.60146115065E+02  0.27381411570E+02 -0.20759588295E+02  0.69269454763E+02  0.00000000000E+00 0.  1.
</event>
<event>
12    1  0.2614920E-002  0.1786325E+03  0.7818608E-02  0.1169133E+00
          2   -1    0    0  502    0  0.00000000000E+00  0.00000000000E+00  0.14578541549E+04  0.14578541549E+04  0.00000000000E+00 0. -1.
         -2   -1    0    0    0  501 -0.00000000000E+00 -0.00000000000E+00 -0.27392621576E+02  0.27392621576E+02  0.00000000000E+00 0.  1.
          6    2    1    2  502    0  0.74155735219E+01  0.47112405822E+02  0.37561773975E+03  0.41502420429E+03  0.16994656284E+03 0.  0.
         24    2    3    3    0    0 -0.32491300623E+02  0.47567150090E+01  0.87705680988E+02  0.12125217239E+03  0.77016179324E+02 0.  0.
         -6    2    1    2    0  501 -0.74155735219E+01 -0.47112405822E+02  0.10548437936E+04  0.10702225722E+04  0.17437418289E+03 0.  0.
        -24    2    5    5    0    0  0.30967992269E+02  0.22335056254E+02  0.34961411993E+03  0.36052740473E+03  0.79322792613E+02 0.  0.
          5    1    3    3  502    0  0.39906874145E+02  0.42355690813E+02  0.28791205876E+03  0.29377203190E+03  0.47000000000E+01 0. -1.
        -13    1    4    4    0    0  0.13006758943E+01  0.24538207339E+02 -0.67932188094E+00  0.24582043353E+02  0.00000000000E+00 0.  1.
         14    1    4    4    0    0 -0.33791976517E+02 -0.19781492330E+02  0.88385002869E+02  0.96670129036E+02  0.00000000000E+00 0. -1.
         -5    1    5    5    0  501 -0.38383565791E+02 -0.69447462076E+02  0.70522967364E+03  0.70969516745E+03  0.47000000000E+01 0.  1.
         11    1    6    6    0    0 -0.16748135796E+02  0.33381299510E+02  0.18719458940E+03  0.19088380107E+03  0.00000000000E+00 0. -1.
        -12    1    6    6    0    0  0.47716128066E+02 -0.11046243256E+02  0.16241953053E+03  0.16964360366E+03  0.00000000000E+00 0.  1.
</event>
<event>
12    1  0.2614920E-002  0.1816392E+03  0.7818608E-02  0.1166226E+00
         -1   -1    0    0    0  501 -0.00000000000E+00  0.00000000000E+00  0.22322100862E+02  0.22322100862E+02  0.00000000000E+00 0. -1.
          1   -1    0    0  502    0  0.00000000000E+00 -0.00000000000E+00 -0.15019847343E+04  0.15019847343E+04  0.00000000000E+00 0.  1.
          6    2    1    2  502    0  0.50415664650E+02  0.30346152740E+02 -0.64343807537E+03  0.66857455037E+03  0.17180437812E+03 0.  0.
         24    2    3    3    0    0 -0.99564630731E+01  0.70973503349E+01 -0.54230900713E+03  0.54843097351E+03  0.80795853533E+02 0.  0.
         -6    2    1    2    0  501 -0.50415664650E+02 -0.30346152740E+02 -0.83622455811E+03  0.85573228484E+03  0.17188252817E+03 0.  0.
        -24    2    5    5    0    0  0.62936841943E+01  0.41230088213E+02 -0.38316351825E+03  0.39353589329E+03  0.79477587753E+02 0.  0.
          5    1    3    3  502    0  0.60372127723E+02  0.23248802405E+02 -0.10112906824E+03  0.12014357686E+03  0.47000000000E+01 0. -1.
        -13    1    4    4    0    0  0.23602234129E+02  0.42379747180E+01 -0.44137488838E+03  0.44202581144E+03  0.00000000000E+00 0.  1.
         14    1    4    4    0    0 -0.33558697202E+02  0.28593756169E+01 -0.10093411875E+03  0.10640516207E+03  0.00000000000E+00 0. -1.
         -5    1    5    5    0  501 -0.56709348845E+02 -0.71576240952E+02 -0.45306103987E+03  0.46219639155E+03  0.47000000000E+01 0.  1.
         11    1    6    6    0    0 -0.88696842264E+01  0.62743485184E+02 -0.26357543286E+03  0.27108564152E+03  0.00000000000E+00 0. -1.
        -12    1    6    6    0    0  0.15163368421E+02 -0.21513396972E+02 -0.11958808539E+03  0.12245025177E+03  0.00000000000E+00 0.  1.
</event>
<event>
12    1  0.2614920E-002  0.2308356E+03  0.7818608E-02  0.1126053E+00
         -2   -1    0    0    0  501 -0.00000000000E+00  0.00000000000E+00  0.36406595735E+03  0.36406595735E+03  0.00000000000E+00 0. -1.
          2   -1    0    0  502    0  0.00000000000E+00 -0.00000000000E+00 -0.14637364602E+03  0.14637364602E+03  0.00000000000E+00 0.  1.
          6    2    1    2  502    0  0.10700503251E+03 -0.11055257806E+03  0.10688878774E+03  0.25496309024E+03  0.17294223008E+03 0.  0.
         24    2    3    3    0    0  0.98900688797E+02 -0.14081143090E+03  0.61677901381E+02  0.19975989462E+03  0.80564549653E+02 0.  0.
         -6    2    1    2    0  501 -0.10700503251E+03  0.11055257806E+03  0.11080352360E+03  0.25547651313E+03  0.17122756326E+03 0.  0.
        -24    2    5    5    0    0 -0.13008843521E+02  0.51104118562E+02  0.10800435145E+03  0.14412424217E+03  0.79536132079E+02 0.  0.
          5    1    3    3  502    0  0.81043437174E+01  0.30258852843E+02  0.45210886357E+02  0.55203195629E+02  0.47000000000E+01 0. -1.
        -13    1    4    4    0    0  0.45380196457E+02 -0.27084737611E+02 -0.11824397496E+02  0.54154977777E+02  0.00000000000E+00 0.  1.
         14    1    4    4    0    0  0.53520492340E+02 -0.11372669329E+03  0.73502298877E+02  0.14560491684E+03  0.00000000000E+00 0. -1.
         -5    1    5    5    0  501 -0.93996188994E+02  0.59448459497E+02  0.27991721455E+01  0.11135227095E+03  0.47000000000E+01 0.  1.
         11    1    6    6    0    0 -0.13512043479E+02  0.70685233379E+02  0.65441715723E+02  0.97270734004E+02  0.00000000000E+00 0. -1.
        -12    1    6    6    0    0  0.50319995770E+00 -0.19581114818E+02  0.42562635729E+02  0.46853508170E+02  0.00000000000E+00 0.  1.
</event>
<event>
12    1  0.2614920E-002  0.2313307E+03  0.7818608E-02  0.1125707E+00
         -2   -1    0    0    0  501 -0.00000000000E+00  0.00000000000E+00  0.40749159845E+02  0.40749159845E+02  0.00000000000E+00 0. -1.
          2   -1    0    0  502    0  0.00000000000E+00 -0.00000000000E+00 -0.18628707255E+04  0.18628707255E+04  0.00000000000E+00 0.  1.
          6    2    1    2  502    0  0.32925735987E+02  0.15070149678E+03 -0.39420629511E+03  0.45709583798E+03  0.17246146459E+03 0.  0.
         24    2    3    3    0    0 -0.29006385821E+02  0.85943734107E+02 -0.31337650531E+03  0.33632870479E+03  0.81758594267E+02 0.  0.
         -6    2    1    2    0  501 -0.32925735987E+02 -0.15070149678E+03 -0.14279152705E+04  0.14465240473E+04  0.17232166008E+03 0.  0.
        -24    2    5    5    0    0 -0.66940079823E+02 -0.14840028093E+03 -0.93494561518E+03  0.95235460043E+03  0.79701718561E+02 0.  0.
          5    1    3    3  502    0  0.61932121809E+02  0.64757762678E+02 -0.80829789804E+02  0.12076713319E+03  0.47000000000E+01 0. -1.
        -13    1    4    4    0    0  0.83671813893E+01 -0.12196917041E+02 -0.65036554996E+02  0.66697286268E+02  0.00000000000E+00 0.  1.
         14    1    4    4    0    0 -0.37373567211E+02  0.98140651148E+02 -0.24833995031E+03  0.26963141852E+03  0.00000000000E+00 0. -1.
         -5    1    5    5    0  501  0.34014343836E+02 -0.23012158586E+01 -0.49296965532E+03  0.49416944690E+03  0.47000000000E+01 0.  1.
         13    1    6    6    0    0 -0.30427257618E+01 -0.91919926634E+02 -0.38479594973E+03  0.39563424273E+03  0.00000000000E+00 0. -1.
        -14    1    6    6    0    0 -0.63897354061E+02 -0.56480354292E+02 -0.55014966546E+03  0.55672035770E+03  0.00000000000E+00 0.  1.
</event>
<event>
12    1  0.2614920E-002  0.2111017E+03  0.7818608E-02  0.1140697E+00
          2   -1    0    0  502    0  0.00000000000E+00  0.00000000000E+00  0.14950441525E+03  0.14950441525E+03  0.00000000000E+00 0.  1.
         -2   -1    0    0    0  501 -0.00000000000E+00 -0.00000000000E+00 -0.33198925467E+03  0.33198925467E+03  0.00000000000E+00 0. -1.
          6    2    1    2  502    0 -0.11190882894E+03 -0.47253737722E+02 -0.16804203897E+03  0.26953061580E+03  0.17219792178E+03 0.  0.
         24    2    3    3    0    0 -0.36262018607E+02 -0.47197183652E+02 -0.16584792441E+03  0.19370616558E+03  0.80461397034E+02 0.  0.
         -6    2    1    2    0  501  0.11190882894E+03  0.47253737722E+02 -0.14442800444E+02  0.21196305412E+03  0.17309893155E+03 0.  0.
        -24    2    5    5    0    0  0.12050231267E+02  0.20773753756E+02 -0.56231257770E+02  0.10042250434E+03  0.79661584898E+02 0.  0.
          5    1    3    3  502    0 -0.75646810336E+02 -0.56554070446E-01 -0.21941145603E+01  0.75824450219E+02  0.47000000000E+01 0. -1.
        -13    1    4    4    0    0 -0.15345602634E+02  0.19025299234E+02 -0.17984766169E+02  0.30346356376E+02  0.00000000000E+00 0.  1.
         14    1    4    4    0    0 -0.20916415973E+02 -0.66222482885E+02 -0.14786315824E+03  0.16335980920E+03  0.00000000000E+00 0. -1.
         -5    1    5    5    0  501  0.99858597676E+02  0.26479983966E+02  0.41788457326E+02  0.11154054978E+03  0.47000000000E+01 0.  1.
         13    1    6    6    0    0  0.33280538146E+02  0.41442942326E+02 -0.31184483990E+02  0.61624538373E+02  0.00000000000E+00 0. -1.
        -14    1    6    6    0    0 -0.21230306878E+02 -0.20669188570E+02 -0.25046773780E+02  0.38797965966E+02  0.00000000000E+00 0.  1.
</event>
<event>
12    1  0.2614920E-002  0.1823474E+03  0.7818608E-02  0.1165550E+00
          2   -1    0    0  502    0  0.00000000000E+00  0.00000000000E+00  0.71413449227E+03  0.71413449227E+03  0.00000000000E+00 0.  1.
         -2   -1    0    0    0  501 -0.00000000000E+00 -0.00000000000E+00 -0.77585600809E+02  0.77585600809E+02  0.00000000000E+00 0. -1.
          6    2    1    2  502    0  0.58621407538E+02  0.49695682170E+02  0.73688319110E+02  0.20163875754E+03  0.17123694088E+03 0.  0.
         24    2    3    3    0    0  0.10867057601E+01 -0.53175342064E+00  0.93078445893E+02  0.12270141396E+03  0.79941079596E+02 0.  0.
         -6    2    1    2    0  501 -0.58621407538E+02 -0.49695682170E+02  0.56286057235E+03  0.59008133553E+03  0.15961775714E+03 0.  0.
        -24    2    5    5    0    0 -0.23289663977E+02 -0.39361008180E+02  0.15649143653E+03  0.18202116579E+03  0.80934774197E+02 0.  0.
          5    1    3    3  502    0  0.57534701778E+02  0.50227435591E+02 -0.19390126783E+02  0.78937343579E+02  0.47000000000E+01 0. -1.
        -13    1    4    4    0    0  0.20340136052E+02  0.34296443431E+02  0.51716212601E+02  0.65303398169E+02  0.00000000000E+00 0.  1.
         14    1    4    4    0    0 -0.19253430292E+02 -0.34828196852E+02  0.41362233292E+02  0.57398015792E+02  0.00000000000E+00 0. -1.
         -5    1    5    5    0  501 -0.35331743561E+02 -0.10334673990E+02  0.40636913582E+03  0.40806016975E+03  0.47000000000E+01 0.  1.
         13    1    6    6    0    0  0.90118424605E+01  0.19702903161E+02  0.18522007858E+02  0.28504078175E+02  0.00000000000E+00 0. -1.
        -14    1    6    6    0    0 -0.32301506437E+02 -0.59063911341E+02  0.13796942867E+03  0.15351708761E+03  0.00000000000E+00 0.  1.
</event>
<event>
12    1  0.2614920E-002  0.1886674E+03  0.7818608E-02  0.1159669E+00
          2   -1    0    0  502    0  0.00000000000E+00  0.00000000000E+00  0.52384593296E+03  0.52384593296E+03  0.00000000000E+00 0.  1.
         -2   -1    0    0    0  501 -0.00000000000E+00 -0.00000000000E+00 -0.15302729080E+03  0.15302729080E+03  0.00000000000E+00 0. -1.
          6    2    1    2  502    0 -0.75277630057E+02 -0.18792374561E+01  0.43736595114E+03  0.47597347347E+03  0.17202185649E+03 0.  0.
         24    2    3    3    0    0 -0.67845161480E+02 -0.35259142144E+02  0.42632756510E+03  0.43973267336E+03  0.75917443415E+02 0.  0.
         -6    2    1    2    0  501  0.75277630057E+02  0.18792374561E+01 -0.66547308970E+02  0.20089975029E+03  0.17395951315E+03 0.  0.
        -24    2    5    5    0    0  0.10041846166E+03  0.43886550415E+02 -0.27483094220E+02  0.13809227757E+03  0.79399369676E+02 0.  0.
          5    1    3    3  502    0 -0.74324685778E+01  0.33379904688E+02  0.11038386033E+02  0.36240800106E+02  0.47000000000E+01 0. -1.
        -11    1    4    4    0    0 -0.66029003083E+02 -0.63541849457E+00  0.34595996027E+03  0.35220523436E+03  0.00000000000E+00 0.  1.
         12    1    4    4    0    0 -0.18161583971E+01 -0.34623723649E+02  0.80367604834E+02  0.87527438997E+02  0.00000000000E+00 0. -1.
         -5    1    5    5    0  501 -0.25140831607E+02 -0.42007312959E+02 -0.39064214750E+02  0.62807472723E+02  0.47000000000E+01 0.  1.
         11    1    6    6    0    0  0.79883292978E+02  0.54244523194E+02 -0.47492088205E+02  0.10760718952E+03  0.00000000000E+00 0. -1.
        -12    1    6    6    0    0  0.20535168686E+02 -0.10357972779E+02  0.20008993985E+02  0.30485088049E+02  0.00000000000E+00 0.  1.
</event>
<event>
12    1  0.2614920E-002  0.1974121E+03  0.7818608E-02  0.1151941E+00
         -2   -1    0    0    0  501 -0.00000000000E+00  0.00000000000E+00  0.79432778979E+02  0.79432778979E+02  0.00000000000E+00 0. -1.
          2   -1    0    0  502    0  0.00000000000E+00 -0.00000000000E+00 -0.49514505662E+03  0.49514505662E+03  0.00000000000E+00 0.  1.
          6    2    1    2  502    0  0.84951194104E+02 -0.52408734410E+02 -0.17967143932E+03  0.26640355324E+03  0.16948641906E+03 0.  0.
         24    2    3    3    0    0  0.59089108606E+02 -0.94143323569E+02 -0.16533055000E+03  0.21503844343E+03  0.80949695877E+02 0.  0.
         -6    2    1    2    0  501 -0.84951194104E+02  0.52408734410E+02 -0.23604083832E+03  0.30817428237E+03  0.17115119086E+03 0.  0.
        -24    2    5    5    0    0 -0.73743210329E+02 -0.31743009772E+02 -0.13945451621E+03  0.17949583596E+03  0.79533095612E+02 0.  0.
          5    1    3    3  502    0  0.25862085498E+02  0.41734589158E+02 -0.14340889321E+02  0.51365109803E+02  0.47000000000E+01 0. -1.
        -11    1    4    4    0    0  0.30837524735E+02 -0.47032635715E+02 -0.14657171869E+03  0.15699137069E+03  0.00000000000E+00 0.  1.
         12    1    4    4    0    0  0.28251583871E+02 -0.47110687854E+02 -0.18758831315E+02  0.58047072739E+02  0.00000000000E+00 0. -1.
         -5    1    5    5    0  501 -0.11207983775E+02  0.84151744182E+02 -0.96586322117E+02  0.12867844640E+03  0.47000000000E+01 0.  1.
         13    1    6    6    0    0 -0.70360174644E+01  0.22199797173E+02 -0.12951596717E+02  0.26647333709E+02  0.00000000000E+00 0. -1.
        -14    1    6    6    0    0 -0.66707192865E+02 -0.53942806945E+02 -0.12650291949E+03  0.15284850225E+03  0.00000000000E+00 0.  1.
</event>
<event>
12    1  0.2614920E-002  0.2400538E+03  0.7818608E-02  0.1119757E+00
          2   -1    0    0  502    0  0.00000000000E+00  0.00000000000E+00  0.68290798480E+03  0.68290798480E+03  0.00000000000E+00 0. -1.
         -2   -1    0    0    0  501 -0.00000000000E+00 -0.00000000000E+00 -0.20234804898E+03  0.20234804898E+03  0.00000000000E+00 0.  1.
          6    2    1    2  502    0  0.12869866004E+03 -0.10854585968E+03  0.57836979546E+03  0.62632793693E+03  0.17155032944E+03 0.  0.
         24    2    3    3    0    0  0.65948250748E+02 -0.20866646853E+02  0.15906268716E+03  0.19335472840E+03  0.85443102843E+02 0.  0.
         -6    2    1    2    0  501 -0.12869866004E+03  0.10854585968E+03 -0.97809859635E+02  0.25892809684E+03  0.17067935418E+03 0.  0.
        -24    2    5    5    0    0 -0.62114795230E+02  0.76272677282E+01  0.23756283345E+01  0.10183832871E+03  0.80305532712E+02 0.  0.
          5    1    3    3  502    0  0.62750409297E+02 -0.87679212822E+02  0.41930710830E+03  0.43297320852E+03  0.47000000000E+01 0. -1.
        -11    1    4    4    0    0  0.79817260769E+02 -0.53996845511E+01  0.15135484486E+03  0.17119649755E+03  0.00000000000E+00 0.  1.
         12    1    4    4    0    0 -0.13869010021E+02 -0.15466962302E+02  0.77078422948E+01  0.22158230856E+02  0.00000000000E+00 0. -1.
         -5    1    5    5    0  501 -0.66583864815E+02  0.10091859195E+03 -0.10018548797E+03  0.15708976814E+03  0.47000000000E+01 0.  1.
         11    1    6    6    0    0 -0.61145124346E+02  0.37627114798E+02  0.17314240528E+01  0.71815902338E+02  0.00000000000E+00 0. -1.
        -12    1    6    6    0    0 -0.96967088406E+00 -0.29999847070E+02  0.64420428164E+00  0.30022426368E+02  0.00000000000E+00 0.  1.
</event>
<event>
12    1  0.2614920E-002  0.3028913E+03  0.7818608E-02  0.1083804E+00
         -2   -1    0    0    0  501 -0.00000000000E+00  0.00000000000E+00  0.61804659488E+02  0.61804659488E+02  0.00000000000E+00 0. -1.
          2   -1    0    0  502    0  0.00000000000E+00 -0.00000000000E+00 -0.15362680917E+04  0.15362680917E+04  0.00000000000E+00 0.  1.
          6    2    1    2  502    0  0.24740031335E+03 -0.39055959640E+02 -0.88161037501E+03  0.93185918470E+03  0.16850045624E+03 0.  0.
         24    2    3    3    0    0  0.10713397009E+03  0.55123228959E+01 -0.33852952926E+03  0.36916932884E+03  0.10087456532E+03 0.  0.
         -6    2    1    2    0  501 -0.24740031335E+03  0.39055959640E+02 -0.59285305722E+03  0.66621356650E+03  0.17214379371E+03 0.  0.
        -24    2    5    5    0    0 -0.24317098822E+03  0.73715052800E+02 -0.49307889101E+03  0.56040187447E+03  0.79733491245E+02 0.  0.
          5    1    3    3  502    0  0.14026634326E+03 -0.44568282536E+02 -0.54308084575E+03  0.56268985585E+03  0.47000000000E+01 0. -1.
        -13    1    4    4    0    0  0.97758976553E+02  0.10783447109E+02 -0.34351317851E+03  0.35731555247E+03  0.00000000000E+00 0.  1.
         14    1    4    4    0    0  0.93749935388E+01 -0.52711242130E+01  0.49836492544E+01  0.11853776369E+02  0.00000000000E+00 0. -1.
         -5    1    5    5    0  501 -0.42293251359E+01 -0.34659093160E+02 -0.99774166207E+02  0.10581169204E+03  0.47000000000E+01 0.  1.
         11    1    6    6    0    0 -0.82198610375E+02  0.64094066265E+02 -0.17243210791E+03  0.20148819498E+03  0.00000000000E+00 0. -1.
        -12    1    6    6    0    0 -0.16097237784E+03  0.96209865342E+01 -0.32064678310E+03  0.35891367949E+03  0.00000000000E+00 0.  1.
</event>
<event>
12    1  0.2614920E-002  0.1982190E+03  0.7818608E-02  0.1151250E+00
          2   -1    0    0  502    0  0.00000000000E+00  0.00000000000E+00  0.30248221400E+03  0.30248221400E+03  0.00000000000E+00 0.  1.
         -2   -1    0    0    0  501 -0.00000000000E+00 -0.00000000000E+00 -0.14104506333E+03  0.14104506333E+03  0.00000000000E+00 0. -1.
          6    2    1    2  502    0  0.25557754986E+02 -0.94843734713E+02  0.18415659393E+02  0.19920662265E+03  0.17232413975E+03 0.  0.
         24    2    3    3    0    0 -0.21649487259E+02 -0.10831909215E+03  0.43551251663E+02  0.14385323994E+03  0.81211557656E+02 0.  0.
         -6    2    1    2    0  501 -0.25557754986E+02  0.94843734713E+02  0.14302149127E+03  0.24432065468E+03  0.17201425082E+03 0.  0.
        -24    2    5    5    0    0 -0.20443498284E+02  0.50387484586E+02  0.11680191459E+01  0.95501934921E+02  0.78501083304E+02 0.  0.
          5    1    3    3  502    0  0.47207242245E+02  0.13475357435E+02 -0.25135592270E+02  0.55353382707E+02  0.47000000000E+01 0. -1.
        -13    1    4    4    0    0  0.17949667338E+02 -0.19520462251E+02  0.38168153201E+02  0.46476304961E+02  0.00000000000E+00 0.  1.
         14    1    4    4    0    0 -0.39599154597E+02 -0.88798629898E+02  0.53830984614E+01  0.97376934977E+02  0.00000000000E+00 0. -1.
         -5    1    5    5    0  501 -0.51142567020E+01  0.44456250127E+02  0.14185347213E+03  0.14881871976E+03  0.47000000000E+01 0.  1.
         13    1    6    6    0    0 -0.19910764577E+01 -0.33892622789E+01 -0.30276945115E+02  0.30531047964E+02  0.00000000000E+00 0. -1.
        -14    1    6    6    0    0 -0.18452421826E+02  0.53776746865E+02  0.31444964261E+02  0.64970886958E+02  0.00000000000E+00 0.  1.
</event>
<event>
12    1  0.2614920E-002  0.2066886E+03  0.7818608E-02  0.1144215E+00
          1   -1    0    0  502    0  0.00000000000E+00  0.00000000000E+00  0.75811558019E+03  0.75811558019E+03  0.00000000000E+00 0. -1.
         -1   -1    0    0    0  501 -0.00000000000E+00 -0.00000000000E+00 -0.56407195708E+02  0.56407195708E+02  0.00000000000E+00 0.  1.
          6    2    1    2  502    0  0.85088477912E+02  0.81214757307E+02  0.36650942710E+03  0.42174717165E+03  0.17235321510E+03 0.  0.
         24    2    3    3    0    0  0.12540006736E+03  0.74940942050E+02  0.27769634668E+03  0.32389913510E+03  0.80337208489E+02 0.  0.
         -6    2    1    2    0  501 -0.85088477912E+02 -0.81214757307E+02  0.33519895738E+03  0.39277560426E+03  0.16756625075E+03 0.  0.
        -24    2    5    5    0    0 -0.78381920994E+02 -0.11439378742E+03  0.31544389089E+03  0.35330183326E+03  0.78023540935E+02 0.  0.
          5    1    3    3  502    0 -0.40311589449E+02  0.62738152568E+01  0.88813080425E+02  0.97848036548E+02  0.47000000000E+01 0. -1.
        -11    1    4    4    0    0  0.12255888742E+03  0.69940287405E+02  0.28290171031E+03  0.31614190229E+03  0.00000000000E+00 0.  1.
         12    1    4    4    0    0  0.28411799418E+01  0.50006546452E+01 -0.52053636279E+01  0.77572328082E+01  0.00000000000E+00 0. -1.
         -5    1    5    5    0  501 -0.67065569186E+01  0.33179030114E+02  0.19755066485E+02  0.39473770999E+02  0.47000000000E+01 0.  1.
         11    1    6    6    0    0  0.12189998970E+02  0.21900030584E+00  0.35515962866E+02  0.37550334943E+02  0.00000000000E+00 0. -1.
        -12    1    6    6    0    0 -0.90571919964E+02 -0.11461278773E+03  0.27992792803E+03  0.31575149831E+03  0.00000000000E+00 0.  1.
</event>
<event>
12    1  0.2614920E-002  0.2091259E+03  0.7818608E-02  0.1142260E+00
          2   -1    0    0  502    0  0.00000000000E+00  0.00000000000E+00  0.12120108789E+04  0.12120108789E+04  0.00000000000E+00 0.  1.
         -2   -1    0    0    0  501 -0.00000000000E+00 -0.00000000000E+00 -0.44264366863E+02  0.44264366863E+02  0.00000000000E+00 0. -1.
          6    2    1    2  502    0  0.96388106835E+02 -0.72925214699E+02  0.31212690417E+03  0.37528987292E+03  0.16973664993E+03 0.  0.
         24    2    3    3    0    0  0.60364534321E+02  0.95422351059E+01  0.23952447145E+03  0.25956700876E+03  0.79171512270E+02 0.  0.
         -6    2    1    2    0  501 -0.96388106835E+02  0.72925214699E+02  0.85561960786E+03  0.88098537284E+03  0.17158542980E+03 0.  0.
        -24    2    5    5    0    0 -0.12614021454E+03  0.62395217844E+02  0.80412418115E+03  0.82040536195E+03  0.81515288612E+02 0.  0.
          5    1    3    3  502    0  0.36023572514E+02 -0.82467449805E+02  0.72602432721E+02  0.11572286417E+03  0.47000000000E+01 0. -1.
        -13    1    4    4    0    0  0.25811894112E+02 -0.34354513585E+02  0.84791160395E+02  0.95058021032E+02  0.00000000000E+00 0.  1.
         14    1    4    4    0    0  0.34552640209E+02  0.43896748691E+02  0.15473331106E+03  0.16450898773E+03  0.00000000000E+00 0. -1.
         -5    1    5    5    0  501  0.29752107707E+02  0.10529996855E+02  0.51495426719E+02  0.60580010892E+02  0.47000000000E+01 0.  1.
         11    1    6    6    0    0 -0.17349878325E+02 -0.19668774542E+02  0.14247619891E+03  0.14487010122E+03  0.00000000000E+00 0. -1.
        -12    1    6    6    0    0 -0.10879033622E+03  0.82063992385E+02  0.66164798223E+03  0.67553526073E+03  0.00000000000E+00 0.  1.
</event>
<event>
12    1  0.2614920E-002  0.1973454E+03  0.7818608E-02  0.1151998E+00
         -2   -1    0    0    0  501 -0.00000000000E+00  0.00000000000E+00  0.26809456601E+03  0.26809456601E+03  0.00000000000E+00 0. -1.
          2   -1    0    0  502    0  0.00000000000E+00 -0.00000000000E+00 -0.16095154243E+03  0.16095154243E+03  0.00000000000E+00 0.  1.
          6    2    1    2  502    0  0.13236332658E+02  0.85823083174E+02 -0.13614404712E+02  0.19689885866E+03  0.17619025631E+03 0.  0.
         24    2    3    3    0    0  0.53010031886E+02  0.11350811107E+03 -0.94265014246E+01  0.14803131878E+03  0.78295961916E+02 0.  0.
         -6    2    1    2    0  501 -0.13236332658E+02 -0.85823083174E+02  0.12075742829E+03  0.23214724977E+03  0.17823912865E+03 0.  0.
        -24    2    5    5    0    0 -0.35759813504E+02 -0.47560880696E+02  0.14912311773E+03  0.17925107160E+03  0.79702200674E+02 0.  0.
          5    1    3    3  502    0 -0.39773699227E+02 -0.27685027895E+02 -0.41879032875E+01  0.48867539878E+02  0.47000000000E+01 0. -1.
        -11    1    4    4    0    0  0.16091602130E+02  0.10883939316E+03 -0.17559697898E+01  0.11003652390E+03  0.00000000000E+00 0.  1.
         12    1    4    4    0    0  0.36918429756E+02  0.46687179111E+01 -0.76705316349E+01  0.37994794882E+02  0.00000000000E+00 0. -1.
         -5    1    5    5    0  501  0.22523480846E+02 -0.38262202479E+02 -0.28365689442E+02  0.52896178174E+02  0.47000000000E+01 0.  1.
         13    1    6    6    0    0 -0.44146657569E+02  0.60766035636E+01  0.57430607671E+02  0.72692002193E+02  0.00000000000E+00 0. -1.
        -14    1    6    6    0    0  0.83868440645E+01 -0.53637484259E+02  0.91692510062E+02  0.10655906941E+03  0.00000000000E+00 0.  1.
</event>
<event>
12    1  0.2614920E-002  0.1781422E+03  0.7818608E-02  0.1169613E+00
          2   -1    0    0  502    0  0.00000000000E+00  0.00000000000E+00  0.27263092480E+03  0.27263092480E+03  0.00000000000E+00 0.  1.
         -2   -1    0    0    0  501 -0.00000000000E+00 -0.00000000000E+00 -0.12729623615E+03  0.12729623615E+03  0.00000000000E+00 0. -1.
          6    2    1    2  502    0 -0.50754602956E+02 -0.62131755459E+01  0.13152397893E+03  0.22223048818E+03  0.17167760359E+03 0.  0.
         24    2    3    3    0    0 -0.75126952660E+02 -0.42736633117E+02  0.13380798777E+03  0.17801192783E+03  0.79455585286E+02 0.  0.
         -6    2    1    2    0  501  0.50754602956E+02  0.62131755459E+01  0.13810709727E+02  0.17769667277E+03  0.16961939317E+03 0.  0.
        -24    2    5    5    0    0  0.69672776712E+02  0.38139677631E+02 -0.33403146761E+02  0.11746016326E+03  0.79825991475E+02 0.  0.
          5    1    3    3  502    0  0.24372349704E+02  0.36523457571E+02 -0.22840088434E+01  0.44218560350E+02  0.47000000000E+01 0. -1.
        -11    1    4    4    0    0 -0.51683210966E+02 -0.26427136804E+02  0.13746626695E+03  0.14921971185E+03  0.00000000000E+00 0.  1.
         12    1    4    4    0    0 -0.23443741694E+02 -0.16309496312E+02 -0.36582791803E+01  0.28792215981E+02  0.00000000000E+00 0. -1.
         -5    1    5    5    0  501 -0.18918173756E+02 -0.31926502085E+02  0.47213856488E+02  0.60236509511E+02  0.47000000000E+01 0.  1.
         13    1    6    6    0    0  0.41905973834E+01  0.30510904229E+02 -0.40803056791E+02  0.51121089843E+02  0.00000000000E+00 0. -1.
        -14    1    6    6    0    0  0.65482179329E+02  0.76287734021E+01  0.73999100304E+01  0.66339073417E+02  0.00000000000E+00 0.  1.
</event>
<event>
12    1  0.2614920E-002  0.3124286E+03  0.7818608E-02  0.1079188E+00
         -2   -1    0    0    0  501 -0.00000000000E+00  0.00000000000E+00  0.76977127212E+02  0.76977127212E+02  0.00000000000E+00 0.  1.
          2   -1    0    0  502    0  0.00000000000E+00 -0.00000000000E+00 -0.17120580882E+04  0.17120580882E+04  0.00000000000E+00 0. -1.
          6    2    1    2  502    0 -0.75340326357E+02  0.24993329908E+03 -0.36245665729E+03  0.47867661723E+03  0.17208618976E+03 0.  0.
         24    2    3    3    0    0  0.21792290683E+01  0.12408616629E+03 -0.23304452265E+03  0.28216612668E+03  0.99528125694E+02 0.  0.
         -6    2    1    2    0  501  0.75340326357E+02 -0.24993329908E+03 -0.12726243037E+04  0.13103585981E+04  0.17124315661E+03 0.  0.
        -24    2    5    5    0    0  0.98805855064E+01 -0.22895705465E+03 -0.10248959633E+04  0.10532275010E+04  0.79733772115E+02 0.  0.
          5    1    3    3  502    0 -0.77519555425E+02  0.12584713279E+03 -0.12941213464E+03  0.19651049055E+03  0.47000000000E+01 0. -1.
        -11    1    4    4    0    0 -0.31075740557E+02  0.44238483684E+02 -0.30844452345E+02  0.62242472077E+02  0.00000000000E+00 0.  1.
         12    1    4    4    0    0  0.33254969625E+02  0.79847682604E+02 -0.20220007030E+03  0.21992365460E+03  0.00000000000E+00 0. -1.
         -5    1    5    5    0  501  0.65459740850E+02 -0.20976244435E+02 -0.24772834039E+03  0.25713109718E+03  0.47000000000E+01 0.  1.
         11    1    6    6    0    0 -0.15956737287E+02 -0.69044153989E+02 -0.46503649987E+03  0.47040478195E+03  0.00000000000E+00 0. -1.
        -12    1    6    6    0    0  0.25837322793E+02 -0.15991290066E+03 -0.55985946340E+03  0.58282271902E+03  0.00000000000E+00 0.  1.
</event>
<event>
12    1  0.2614920E-002  0.2384818E+03  0.7818608E-02  0.1120808E+00
         -1   -1    0    0    0  501 -0.00000000000E+00  0.00000000000E+00  0.16972601758E+03  0.16972601758E+03  0.00000000000E+00 0.  1.
          1   -1    0    0  502    0  0.00000000000E+00 -0.00000000000E+00 -0.39888503068E+03  0.39888503068E+03  0.00000000000E+00 0. -1.
          6    2    1    2  502    0  0.46797998973E+02  0.15971727192E+03 -0.22881238794E+03  0.33147770858E+03  0.17269250925E+03 0.  0.
         24    2    3    3    0    0 -0.24972366823E+02  0.68526757997E+02 -0.16937793262E+03  0.20101223531E+03  0.79984367333E+02 0.  0.
         -6    2    1    2    0  501 -0.46797998973E+02 -0.15971727192E+03 -0.34662516548E+00  0.23713333968E+03  0.16891548473E+03 0.  0.
        -24    2    5    5    0    0 -0.93804908111E+02 -0.11339459967E+03  0.16879605652E+02  0.16876468824E+03  0.80863483053E+02 0.  0.
          5    1    3    3  502    0  0.71770365796E+02  0.91190513923E+02 -0.59434455319E+02  0.13046547327E+03  0.47000000000E+01 0. -1.
        -13    1    4    4    0    0 -0.11152523669E+02  0.14823959061E+02 -0.13390612007E+03  0.13518497527E+03  0.00000000000E+00 0.  1.
         14    1    4    4    0    0 -0.13819843154E+02  0.53702798936E+02 -0.35471812552E+02  0.65827260038E+02  0.00000000000E+00 0. -1.
         -5    1    5    5    0  501  0.47006909139E+02 -0.46322672253E+02 -0.17226230817E+02  0.68368651439E+02  0.47000000000E+01 0.  1.
         13    1    6    6    0    0  0.29046082294E+01  0.29289499512E+01  0.16997009607E+02  0.17490392573E+02  0.00000000000E+00 0. -1.
        -14    1    6    6    0    0 -0.96709516341E+02 -0.11632354962E+03 -0.11740395547E+00  0.15127429567E+03  0.00000000000E+00 0.  1.
</event>
<event>
12    1  0.2614920E-002  0.3076430E+03  0.7818608E-02  0.1081481E+00
         -2   -1    0    0    0  501 -0.00000000000E+00  0.00000000000E+00  0.28679127602E+02  0.28679127602E+02  0.00000000000E+00 0.  1.
          2   -1    0    0  502    0  0.00000000000E+00 -0.00000000000E+00 -0.51567750025E+04  0.51567750025E+04  0.00000000000E+00 0. -1.
          6    2    1    2  502    0 -0.25481588984E+03  0.77481720944E+01 -0.41211179841E+04  0.41326035719E+04  0.17264898289E+03 0.  0.
         24    2    3    3    0    0 -0.62221354097E+02 -0.37474294966E+02 -0.12695910928E+04  0.12742184633E+04  0.80593608394E+02 0.  0.
         -6    2    1    2    0  501  0.25481588984E+03 -0.77481720944E+01 -0.10069778908E+04  0.10528505582E+04  0.17175172073E+03 0.  0.
        -24    2    5    5    0    0  0.15413427823E+03  0.59736519226E+02 -0.67888582287E+03  0.70305423821E+03  0.77932495892E+02 0.  0.
          5    1    3    3  502    0 -0.19259453574E+03  0.45222467060E+02 -0.28515268914E+04  0.28583851086E+04  0.47000000000E+01 0. -1.
        -11    1    4    4    0    0  0.12828865182E+02 -0.12445784430E+02 -0.55020227790E+03  0.55049252850E+03  0.00000000000E+00 0.  1.
         12    1    4    4    0    0 -0.75050219279E+02 -0.25028510535E+02 -0.71938881486E+03  0.72372593480E+03  0.00000000000E+00 0. -1.
         -5    1    5    5    0  501  0.10068161160E+03 -0.67484691320E+02 -0.32809206789E+03  0.34979632000E+03  0.47000000000E+01 0.  1.
         11    1    6    6    0    0  0.36576939007E+02  0.19919405894E+02 -0.33258723358E+03  0.33518490888E+03  0.00000000000E+00 0. -1.
        -12    1    6    6    0    0  0.11755733923E+03  0.39817113332E+02 -0.34629858929E+03  0.36786932933E+03  0.00000000000E+00 0.  1.
</event>
<event>
12    1  0.2614920E-002  0.1919336E+03  0.7818608E-02  0.1156729E+00
          2   -1    0    0  502    0  0.00000000000E+00  0.00000000000E+00  0.42269647913E+03  0.42269647913E+03  0.00000000000E+00 0. -1.
         -2   -1    0    0    0  501 -0.00000000000E+00 -0.00000000000E+00 -0.13609529427E+03  0.13609529427E+03  0.00000000000E+00 0.  1.
          6    2    1    2  502    0  0.43438191150E+02  0.72653246707E+02  0.31062590404E+03  0.36489266519E+03  0.17173477849E+03 0.  0.
         24    2    3    3    0    0  0.22139980585E-01 -0.26761530229E+02  0.12598611176E+03  0.15069137139E+03  0.78225373538E+02 0.  0.
         -6    2    1    2    0  501 -0.43438191150E+02 -0.72653246707E+02 -0.24024719179E+02  0.19389910822E+03  0.17278398748E+03 0.  0.
        -24    2    5    5    0    0 -0.81243753222E+02 -0.91458699903E+02 -0.36372683218E+02  0.14965582839E+03  0.78157876522E+02 0.  0.
          5    1    3    3  502    0  0.43416051170E+02  0.99414776936E+02  0.18463979227E+03  0.21420129379E+03  0.47000000000E+01 0. -1.
        -13    1    4    4    0    0 -0.34350697788E+02 -0.39135530975E+01  0.88197126314E+02  0.94731301197E+02  0.00000000000E+00 0.  1.
         14    1    4    4    0    0  0.34372837768E+02 -0.22847977132E+02  0.37788985449E+02  0.55960070198E+02  0.00000000000E+00 0. -1.
         -5    1    5    5    0  501  0.37805562072E+02  0.18805453196E+02  0.12347964038E+02  0.44243279821E+02  0.47000000000E+01 0.  1.
         11    1    6    6    0    0  0.13734981187E+02 -0.59553837441E+01  0.42444952388E+01  0.15560592648E+02  0.00000000000E+00 0. -1.
        -12    1    6    6    0    0 -0.94978734409E+02 -0.85503316159E+02 -0.40617178456E+02  0.13409523575E+03  0.00000000000E+00 0.  1.
</event>
<event>
12    1  0.2614920E-002  0.4593231E+03  0.7818608E-02  0.1024978E+00
          2   -1    0    0  502    0  0.00000000000E+00  0.00000000000E+00  0.13710268284E+04  0.13710268284E+04  0.00000000000E+00 0.  1.
         -2   -1    0    0    0  501 -0.00000000000E+00 -0.00000000000E+00 -0.19537815220E+03  0.19537815220E+03  0.00000000000E+00 0. -1.
          6    2    1    2  502    0 -0.12459866329E+03 -0.40688965851E+03  0.94941426816E+03  0.10549692512E+04  0.17460998640E+03 0.  0.
         24    2    3    3    0    0 -0.64905378864E+02 -0.23484015526E+03  0.70392922107E+03  0.74927443917E+03  0.80828399637E+02 0.  0.
         -6    2    1    2    0  501  0.12459866329E+03  0.40688965851E+03  0.22623440808E+03  0.51143572942E+03  0.17117382054E+03 0.  0.
        -24    2    5    5    0    0  0.32078538495E+02  0.31368218133E+03  0.14045136544E+03  0.35450125999E+03  0.80740409710E+02 0.  0.
          5    1    3    3  502    0 -0.59693284423E+02 -0.17204950325E+03  0.24548504709E+03  0.30569481206E+03  0.47000000000E+01 0. -1.
        -11    1    4    4    0    0  0.30864474390E+01  0.20352785255E+01  0.55030614418E+02  0.55154664714E+02  0.00000000000E+00 0.  1.
         12    1    4    4    0    0 -0.67991826303E+02 -0.23687543378E+03  0.64889860665E+03  0.69411977445E+03  0.00000000000E+00 0. -1.
         -5    1    5    5    0  501  0.92520124792E+02  0.93207477172E+02  0.85783042638E+02  0.15693446943E+03  0.47000000000E+01 0.  1.
         11    1    6    6    0    0  0.18834022733E+02  0.16376454211E+03  0.29356320142E+02  0.16743756806E+03  0.00000000000E+00 0. -1.
        -12    1    6    6    0    0  0.13244515763E+02  0.14991763922E+03  0.11109504530E+03  0.18706369192E+03  0.00000000000E+00 0.  1.
</event>
<event>
12    1  0.3268940E-002  0.1847499E+03  0.7818608E-02  0.1163284E+00
          1   -1    0    0  502    0  0.00000000000E+00  0.00000000000E+00  0.62190895102E+03  0.62190895102E+03  0.00000000000E+00 0. -1.
         -1   -1    0    0    0  501 -0.00000000000E+00 -0.00000000000E+00 -0.60135301049E+02  0.60135301049E+02  0.00000000000E+00 0.  1.
          6    2    1    2  502    0  0.59919509059E+02 -0.37339578127E+02  0.18476312637E+03  0.26359821959E+03  0.17424699952E+03 0.  0.
         24    2    3    3    0    0 -0.20529768410E+02  0.19756202784E+02  0.98802231584E+02  0.13266548924E+03  0.83824054606E+02 0.  0.
         -6    2    1    2    0  501 -0.59919509059E+02  0.37339578127E+02  0.37701052360E+03  0.41844603248E+03  0.16725894755E+03 0.  0.
        -24    2    5    5    0    0 -0.30608191974E+02  0.81288789481E+02  0.18642077656E+03  0.22061472009E+03  0.79833702621E+02 0.  0.
          5    1    3    3  502    0  0.80449277468E+02 -0.57095780911E+02  0.85960894788E+02  0.13093273035E+03  0.47000000000E+01 0. -1.
        -11    1    4    4    0    0  0.65072569747E+01  0.33056707508E+02  0.96768181768E+02  0.10246546397E+03  0.00000000000E+00 0.  1.
         12    1    4    4    0    0 -0.27037025384E+02 -0.13300504725E+02  0.20340498155E+01  0.30200025268E+02  0.00000000000E+00 0. -1.
         -5    1    5    5    0  501 -0.29311317085E+02 -0.43949211353E+02  0.19058974704E+03  0.19783131239E+03  0.47000000000E+01 0.  1.
         13    1    6    6    0    0 -0.35068197729E+02  0.24255960956E+02  0.25163744467E+02  0.49511050983E+02  0.00000000000E+00 0. -1.
        -14    1    6    6    0    0  0.44600057552E+01  0.57032828525E+02  0.16125703210E+03  0.17110366911E+03  0.00000000000E+00 0.  1.
</event>
<event>
12    1  0.2614920E-002  0.1894975E+03  0.7818608E-02  0.1158915E+00
          2   -1    0    0  502    0  0.00000000000E+00  0.00000000000E+00  0.27521819973E+04  0.27521819973E+04  0.00000000000E+00 0.  1.
         -2   -1    0    0    0  501 -0.00000000000E+00 -0.00000000000E+00 -0.16933348212E+02  0.16933348212E+02  0.00000000000E+00 0. -1.
          6    2    1    2  502    0  0.82096085008E+02  0.11162017848E+02  0.20269874837E+04  0.20357614731E+04  0.16965305293E+03 0.  0.
         24    2    3    3    0    0  0.85349397717E+02  0.15136474473E+02  0.79926374154E+03  0.80801799115E+03  0.80974767251E+02 0.  0.
         -6    2    1    2    0  501 -0.82096085008E+02 -0.11162017848E+02  0.70826116538E+03  0.73335387243E+03  0.17120066005E+03 0.  0.
        -24    2    5    5    0    0  0.22398525397E+02 -0.27915000741E+02  0.27832308723E+03  0.29055750040E+03  0.75359000429E+02 0.  0.
          5    1    3    3  502    0 -0.32533127091E+01 -0.39744566251E+01  0.12277237421E+04  0.12277434819E+04  0.47000000000E+01 0. -1.
        -13    1    4    4    0    0  0.33784342593E+02  0.42484080947E+02  0.51304659184E+03  0.51590995759E+03  0.00000000000E+00 0.  1.
         14    1    4    4    0    0  0.51565055124E+02 -0.27347606474E+02  0.28621714970E+03  0.29210803356E+03  0.00000000000E+00 0. -1.
         -5    1    5    5    0  501 -0.10449461040E+03  0.16752982893E+02  0.42993807815E+03  0.44279637203E+03  0.47000000000E+01 0.  1.
         13    1    6    6    0    0  0.13425507528E+02 -0.45075698551E+02  0.25887372013E+03  0.26311150835E+03  0.00000000000E+00 0. -1.
        -14    1    6    6    0    0  0.89730178690E+01  0.17160697810E+02  0.19449367108E+02  0.27445992055E+02  0.00000000000E+00 0.  1.
</event>
<event>
12    1  0.2614920E-002  0.1890128E+03  0.7818608E-02  0.1159355E+00
          2   -1    0    0  502    0  0.00000000000E+00  0.00000000000E+00  0.80332676669E+03  0.80332676669E+03  0.00000000000E+00 0.  1.
         -2   -1    0    0    0  501 -0.00000000000E+00 -0.00000000000E+00 -0.44562381059E+02  0.44562381059E+02  0.00000000000E+00 0. -1.
          6    2    1    2  502    0 -0.24602746473E+02 -0.75966264598E+02  0.36213834742E+03  0.40889434217E+03  0.17226210233E+03 0.  0.
         24    2    3    3    0    0  0.47837395758E+02 -0.46649593254E+02  0.12466936678E+03  0.15885304920E+03  0.72299648986E+02 0.  0.
         -6    2    1    2    0  501  0.24602746473E+02  0.75966264598E+02  0.39662603821E+03  0.43899480557E+03  0.17037622089E+03 0.  0.
        -24    2    5    5    0    0  0.77806573241E+02  0.74902560972E+02  0.29696330206E+03  0.32591726747E+03  0.79816075953E+02 0.  0.
          5    1    3    3  502    0 -0.72440142232E+02 -0.29316671344E+02  0.23746898064E+03  0.25004129297E+03  0.47000000000E+01 0. -1.
        -11    1    4    4    0    0  0.34886244692E+01 -0.95258196772E+01  0.91741290074E+02  0.92300466118E+02  0.00000000000E+00 0.  1.
         12    1    4    4    0    0  0.44348771289E+02 -0.37123773577E+02  0.32928076706E+02  0.66552583083E+02  0.00000000000E+00 0. -1.
         -5    1    5    5    0  501 -0.53203826768E+02  0.10637036259E+01  0.99662736147E+02  0.11307753811E+03  0.47000000000E+01 0.  1.
         13    1    6    6    0    0  0.66656500844E+02  0.86569433920E+02  0.20258922529E+03  0.23017330470E+03  0.00000000000E+00 0. -1.
        -14    1    6    6    0    0  0.11150072397E+02 -0.11666872948E+02  0.94374076776E+02  0.95743962766E+02  0.00000000000E+00 0.  1.
</event>
<event>
12    1  0.2614920E-002  0.1759572E+03  0.7818608E-02  0.1171774E+00
          2   -1    0    0  502    0  0.00000000000E+00  0.00000000000E+00  0.74328377036E+03  0.74328377036E+03  0.00000000000E+00 0.  1.
         -2   -1    0    0    0  501 -0.00000000000E+00 -0.00000000000E+00 -0.44098843947E+02  0.44098843947E+02  0.00000000000E+00 0. -1.
          6    2    1    2  502    0 -0.18525664132E+01  0.31450788994E+02  0.44393631900E+03  0.47786580211E+03  0.17402208299E+03 0.  0.
         24    2    3    3    0    0 -0.52625384504E+02  0.56064136981E+02  0.36081736082E+03  0.37729469709E+03  0.79053792031E+02 0.  0.
         -6    2    1    2    0  501  0.18525664132E+01 -0.31450788994E+02  0.25524860742E+03  0.30951681220E+03  0.17220981771E+03 0.  0.
        -24    2    5    5    0    0 -0.61356094395E+02 -0.18276012953E+02  0.10486199163E+03  0.14578797011E+03  0.78482558387E+02 0.  0.
          5    1    3    3  502    0  0.50772818091E+02 -0.24613347987E+02  0.83118958181E+02  0.10057110502E+03  0.47000000000E+01 0. -1.
        -11    1    4    4    0    0 -0.33942728030E+02 -0.14619079650E+02  0.13248644536E+03  0.13754448183E+03  0.00000000000E+00 0.  1.
         12    1    4    4    0    0 -0.18682656474E+02  0.70683216631E+02  0.22833091545E+03  0.23975021526E+03  0.00000000000E+00 0. -1.
         -5    1    5    5    0  501  0.63208660808E+02 -0.13174776041E+02  0.15038661579E+03  0.16372884209E+03  0.47000000000E+01 0.  1.
         13    1    6    6    0    0 -0.24487664661E+02 -0.85758364794E+01 -0.76031971092E+01  0.27036998690E+02  0.00000000000E+00 0. -1.
        -14    1    6    6    0    0 -0.36868429734E+02 -0.97001764735E+01  0.11246518874E+03  0.11875097142E+03  0.00000000000E+00 0.  1.
</event>
<event>
12    1  0.2614920E-002  0.1988432E+03  0.7818608E-02  0.1150719E+00
          2   -1    0    0  502    0  0.00000000000E+00  0.00000000000E+00  0.20416964616E+04  0.20416964616E+04  0.00000000000E+00 0.  1.
         -2   -1    0    0    0  501 -0.00000000000E+00 -0.00000000000E+00 -0.19775751855E+02  0.19775751855E+02  0.00000000000E+00 0. -1.
          6    2    1    2  502    0  0.94843351641E+02 -0.26046202783E+02  0.11544198967E+04  0.11712534533E+04  0.17168485071E+03 0.  0.
         24    2    3    3    0    0  0.11052306452E+03  0.29539837500E+02  0.86693513926E+03  0.87798695841E+03  0.78718572557E+02 0.  0.
         -6    2    1    2    0  501 -0.94843351641E+02  0.26046202783E+02  0.86750081308E+03  0.89021876018E+03  0.17394859658E+03 0.  0.
        -24    2    5    5    0    0 -0.12788215875E+03  0.25882819941E+02  0.80478386426E+03  0.81917584964E+03  0.79675827925E+02 0.  0.
          5    1    3    3  502    0 -0.15679712876E+02 -0.55586040283E+02  0.28748475743E+03  0.29326649489E+03  0.47000000000E+01 0. -1.
        -11    1    4    4    0    0  0.11370010626E+03  0.19510108754E+02  0.85166918270E+03  0.85944677280E+03  0.00000000000E+00 0.  1.
         12    1    4    4    0    0 -0.31770417402E+01  0.10029728746E+02  0.15265956554E+02  0.18540185609E+02  0.00000000000E+00 0. -1.
         -5    1    5    5    0  501  0.33038807113E+02  0.16338284202E+00  0.62716948820E+02  0.71042910545E+02  0.47000000000E+01 0.  1.
         13    1    6    6    0    0 -0.42933119903E+02  0.48084810442E+02  0.30495719731E+03  0.31169583567E+03  0.00000000000E+00 0. -1.
        -14    1    6    6    0    0 -0.84949038851E+02 -0.22201990501E+02  0.49982666695E+03  0.50748001397E+03  0.00000000000E+00 0.  1.
</event>
<event>
12    1  0.2614920E-002  0.2437721E+03  0.7818608E-02  0.1117305E+00
         -2   -1    0    0    0  501 -0.00000000000E+00  0.00000000000E+00  0.47127001508E+03  0.47127001508E+03  0.00000000000E+00 0.  1.
          2   -1    0    0  502    0  0.00000000000E+00 -0.00000000000E+00 -0.18082791185E+03  0.18082791185E+03  0.00000000000E+00 0. -1.
          6    2    1    2  502    0 -0.42511284782E+02  0.16716211394E+03  0.32462858040E+03  0.40600595313E+03  0.17235642457E+03 0.  0.
         24    2    3    3    0    0 -0.18068358772E+02  0.52496793902E+02  0.24818649091E+03  0.26596640408E+03  0.77840958822E+02 0.  0.
         -6    2    1    2    0  501  0.42511284782E+02 -0.16716211394E+03 -0.34186477179E+02  0.24609197381E+03  0.17216899453E+03 0.  0.
        -24    2    5    5    0    0  0.10407135748E+02 -0.18887764059E+03 -0.37806450951E+02  0.20688183872E+03  0.74750892093E+02 0.  0.
          5    1    3    3  502    0 -0.24442926010E+02  0.11466532004E+03  0.76442089490E+02  0.14003954905E+03  0.47000000000E+01 0. -1.
        -11    1    4    4    0    0  0.23661628989E+02  0.27322343550E+02  0.48903104690E+02  0.60810334581E+02  0.00000000000E+00 0.  1.
         12    1    4    4    0    0 -0.41729987761E+02  0.25174450352E+02  0.19928338622E+03  0.20515606950E+03  0.00000000000E+00 0. -1.
         -5    1    5    5    0  501  0.32104149035E+02  0.21715526655E+02  0.36199737716E+01  0.39210135083E+02  0.47000000000E+01 0.  1.
         13    1    6    6    0    0 -0.24659661447E+02 -0.62274193614E+02 -0.34794092484E+02  0.75477168499E+02  0.00000000000E+00 0. -1.
        -14    1    6    6    0    0  0.35066797195E+02 -0.12660344698E+03 -0.30123584668E+01  0.13140467022E+03  0.00000000000E+00 0.  1.
</event>
<event>
12    1  0.2614920E-002  0.1981824E+03  0.7818608E-02  0.1151282E+00
         -2   -1    0    0    0  501 -0.00000000000E+00  0.00000000000E+00  0.10984214532E+03  0.10984214532E+03  0.00000000000E+00 0. -1.
          2   -1    0    0  502    0  0.00000000000E+00 -0.00000000000E+00 -0.54276431800E+03  0.54276431800E+03  0.00000000000E+00 0.  1.
          6    2    1    2  502    0  0.96434000505E+02 -0.38517910038E+01 -0.24797291243E+02  0.19825108483E+03  0.17138913104E+03 0.  0.
         24    2    3    3    0    0  0.79610598289E+02  0.56752185682E+02  0.71812110674E+01  0.12753628113E+03  0.81579870517E+02 0.  0.
         -6    2    1    2    0  501 -0.96434000505E+02  0.38517910038E+01 -0.40812488143E+03  0.45435537848E+03  0.17481000648E+03 0.  0.
        -24    2    5    5    0    0 -0.40899720584E+02 -0.65308423865E+02 -0.24598889973E+03  0.26948418513E+03  0.78569777121E+02 0.  0.
          5    1    3    3  502    0  0.16823402216E+02 -0.60603976686E+02 -0.31978502310E+02  0.70714803700E+02  0.47000000000E+01 0. -1.
        -13    1    4    4    0    0  0.96279134078E+02  0.47251184008E+02  0.59346427638E+00  0.10725063286E+03  0.00000000000E+00 0.  1.
         14    1    4    4    0    0 -0.16668535789E+02  0.95010016749E+01  0.65877467910E+01  0.20285648275E+02  0.00000000000E+00 0. -1.
         -5    1    5    5    0  501 -0.55534279921E+02  0.69160214869E+02 -0.16213598170E+03  0.18487119335E+03  0.47000000000E+01 0.  1.
         13    1    6    6    0    0  0.79102076422E+01 -0.28826538370E+02 -0.21367770046E+02  0.36744010343E+02  0.00000000000E+00 0. -1.
        -14    1    6    6    0    0 -0.48809928226E+02 -0.36481885495E+02 -0.22462112968E+03  0.23274017479E+03  0.00000000000E+00 0.  1.
</event>
<event>
12    1  0.2614920E-002  0.1706170E+03  0.7818608E-02  0.1177206E+00
         -2   -1    0    0    0  501 -0.00000000000E+00  0.00000000000E+00  0.33758996068E+03  0.33758996068E+03  0.00000000000E+00 0.  1.
          2   -1    0    0  502    0  0.00000000000E+00 -0.00000000000E+00 -0.27124744123E+03  0.27124744123E+03  0.00000000000E+00 0. -1.
          6    2    1    2  502    0  0.95546844839E+00 -0.17658501377E+01  0.28459443973E+03  0.33186651784E+03  0.17069668829E+03 0.  0.
         24    2    3    3    0    0 -0.21406090477E+02  0.33214068586E+02  0.27621043140E+03  0.28925178298E+03  0.76243009406E+02 0.  0.
         -6    2    1    2    0  501 -0.95546844839E+00  0.17658501377E+01 -0.21825192027E+03  0.27697088407E+03  0.17051374952E+03 0.  0.
        -24    2    5    5    0    0  0.25861312234E+01  0.56208255357E+02 -0.19336583045E+03  0.21682168723E+03  0.80344530758E+02 0.  0.
          5    1    3    3  502    0  0.22361558925E+02 -0.34979918724E+02  0.83840083294E+01  0.42614734860E+02  0.47000000000E+01 0. -1.
        -11    1    4    4    0    0 -0.18854183407E+01 -0.19398404276E+02  0.14826870664E+03  0.14954418163E+03  0.00000000000E+00 0.  1.
         12    1    4    4    0    0 -0.19520672136E+02  0.52612472861E+02  0.12794172476E+03  0.13970760135E+03  0.00000000000E+00 0. -1.
         -5    1    5    5    0  501 -0.35415996718E+01 -0.54442405219E+02 -0.24886089821E+02  0.60149196843E+02  0.47000000000E+01 0.  1.
         11    1    6    6    0    0 -0.33164313967E+02  0.49923836045E+02 -0.13990174499E+03  0.15219973515E+03  0.00000000000E+00 0. -1.
        -12    1    6    6    0    0  0.35750445191E+02  0.62844193121E+01 -0.53464085455E+02  0.64621952082E+02  0.00000000000E+00 0.  1.
</event>
<event>
12    1  0.2614920E-002  0.2008214E+03  0.7818608E-02  0.1149048E+00
         -1   -1    0    0    0  501 -0.00000000000E+00  0.00000000000E+00  0.21793613266E+03  0.21793613266E+03  0.00000000000E+00 0. -1.
          1   -1    0    0  502    0  0.00000000000E+00 -0.00000000000E+00 -0.19781215587E+03  0.19781215587E+03  0.00000000000E+00 0.  1.
          6    2    1    2  502    0  0.84770150608E+02 -0.16542320610E+02 -0.42328941788E+02  0.19658713316E+03  0.17145009422E+03 0.  0.
         24    2    3    3    0    0 -0.19717484941E+02 -0.26748290893E+02 -0.16200489092E+02  0.88297642203E+02  0.80185831004E+02 0.  0.
         -6    2    1    2    0  501 -0.84770150608E+02  0.16542320610E+02  0.62452918577E+02  0.21916115537E+03  0.19149835033E+03 0.  0.
        -24    2    5    5    0    0 -0.84076163517E+02  0.41270609198E+01  0.11635530611E+03  0.16364379166E+03  0.78453166830E+02 0.  0.
          5    1    3    3  502    0  0.10448763555E+03  0.10205970283E+02 -0.26128452696E+02  0.10828949096E+03  0.47000000000E+01 0. -1.
        -13    1    4    4    0    0  0.17407491753E+02 -0.40722654560E+02 -0.19709189429E+02  0.48474813167E+02  0.00000000000E+00 0.  1.
         14    1    4    4    0    0 -0.37124976694E+02  0.13974363667E+02  0.35087003378E+01  0.39822829037E+02  0.00000000000E+00 0. -1.
         -5    1    5    5    0  501 -0.69398709101E+00  0.12415259690E+02 -0.53902387532E+02  0.55517363707E+02  0.47000000000E+01 0.  1.
         11    1    6    6    0    0 -0.14858041474E+02 -0.31987490725E+02  0.49964576779E+02  0.61158972294E+02  0.00000000000E+00 0. -1.
        -12    1    6    6    0    0 -0.69218122043E+02  0.36114551645E+02  0.66390729330E+02  0.10248481937E+03  0.00000000000E+00 0.  1.
</event>
<event>
12    1  0.2614920E-002  0.1778769E+03  0.7818608E-02  0.1169874E+00
         -1   -1    0    0    0  501 -0.00000000000E+00  0.00000000000E+00  0.38147129712E+02  0.38147129712E+02  0.00000000000E+00 0. -1.
          1   -1    0    0  502    0  0.00000000000E+00 -0.00000000000E+00 -0.84383148114E+03  0.84383148114E+03  0.00000000000E+00 0.  1.
          6    2    1    2  502    0  0.22434687744E+02 -0.39663854092E+02 -0.34564359582E+03  0.38881462799E+03  0.17213594357E+03 0.  0.
         24    2    3    3    0    0 -0.24323292815E+02  0.33522045995E+02 -0.20644660287E+03  0.22467938630E+03  0.78391814939E+02 0.  0.
         -6    2    1    2    0  501 -0.22434687744E+02  0.39663854092E+02 -0.46004075560E+03  0.49316398286E+03  0.17174597708E+03 0.  0.
        -24    2    5    5    0    0  0.12302252368E+02  0.63151341571E+02 -0.15593470890E+03  0.18614461097E+03  0.78706704910E+02 0.  0.
          5    1    3    3  502    0  0.46757980560E+02 -0.73185900087E+02 -0.13919699296E+03  0.16413524169E+03  0.47000000000E+01 0. -1.
        -11    1    4    4    0    0 -0.73885184858E+01  0.48555935382E+02 -0.65200393630E+02  0.81629408890E+02  0.00000000000E+00 0.  1.
         12    1    4    4    0    0 -0.16934774330E+02 -0.15033889387E+02 -0.14124620924E+03  0.14304997741E+03  0.00000000000E+00 0. -1.
         -5    1    5    5    0  501 -0.34736940112E+02 -0.23487487479E+02 -0.30410604670E+03  0.30701937189E+03  0.47000000000E+01 0.  1.
         13    1    6    6    0    0 -0.16810962357E+02  0.19349245398E+02 -0.47444394422E+01  0.26067440582E+02  0.00000000000E+00 0. -1.
        -14    1    6    6    0    0  0.29113214725E+02  0.43802096173E+02 -0.15119026946E+03  0.16007717039E+03  0.00000000000E+00 0.  1.
</event>
<event>
12    1  0.2614920E-002  0.3369694E+03  0.7818608E-02  0.1068094E+00
          1   -1    0    0  502    0  0.00000000000E+00  0.00000000000E+00  0.95334769279E+03  0.95334769279E+03  0.00000000000E+00 0. -1.
         -1   -1    0    0    0  501 -0.00000000000E+00 -0.00000000000E+00 -0.17809753757E+03  0.17809753757E+03  0.00000000000E+00 0.  1.
          6    2    1    2  502    0 -0.28058059171E+03  0.70873682868E+02  0.71343500854E+03  0.78913210502E+03  0.17318031178E+03 0.  0.
         24    2    3    3    0    0 -0.19733286557E+03  0.26833552147E+02  0.61919904049E+03  0.65581959737E+03  0.83854595520E+02 0.  0.
         -6    2    1    2    0  501  0.28058059171E+03 -0.70873682868E+02  0.61815146673E+02  0.34231312534E+03  0.17207154342E+03 0.  0.
        -24    2    5    5    0    0  0.48792555833E+02 -0.26640002118E+02  0.57106747496E+02  0.10624836492E+03  0.70264722455E+02 0.  0.
          5    1    3    3  502    0 -0.83247726141E+02  0.44040130721E+02  0.94235968050E+02  0.13331250765E+03  0.47000000000E+01 0. -1.
        -13    1    4    4    0    0 -0.11748440201E+01  0.15328771822E+02  0.20007787680E+02  0.25232183256E+02  0.00000000000E+00 0.  1.
         14    1    4    4    0    0 -0.19615802155E+03  0.11504780325E+02  0.59919125281E+03  0.63058741411E+03  0.00000000000E+00 0. -1.
         -5    1    5    5    0  501  0.23178803588E+03 -0.44233680749E+02  0.47083991766E+01  0.23606476042E+03  0.47000000000E+01 0.  1.
         11    1    6    6    0    0  0.34047753052E+02  0.17080894949E+02  0.44174442794E+02  0.58329991054E+02  0.00000000000E+00 0. -1.
        -12    1    6    6    0    0  0.14744802781E+02 -0.43720897067E+02  0.12932304702E+02  0.47918373869E+02  0.00000000000E+00 0.  1.
</event>
<event>
12    1  0.2614920E-002  0.1872365E+03  0.7818608E-02  0.1160978E+00
         -2   -1    0    0    0  501 -0.00000000000E+00  0.00000000000E+00  0.26810279844E+02  0.26810279844E+02  0.00000000000E+00 0. -1.
          2   -1    0    0  502    0  0.00000000000E+00 -0.00000000000E+00 -0.18795423305E+04  0.18795423305E+04  0.00000000000E+00 0.  1.
          6    2    1    2  502    0 -0.14629577888E+02 -0.68284583737E+02 -0.14584570837E+04  0.14706646650E+04  0.17572900463E+03 0.  0.
         24    2    3    3    0    0  0.59724536607E+02 -0.50515053062E+02 -0.81804287458E+03  0.82568657254E+03  0.80283127475E+02 0.  0.
         -6    2    1    2    0  501  0.14629577888E+02  0.68284583737E+02 -0.39427496702E+03  0.43568794537E+03  0.17173941655E+03 0.  0.
        -24    2    5    5    0    0 -0.11837880204E+02  0.25453014907E+02 -0.37029817732E+03  0.37972325945E+03  0.79252900646E+02 0.  0.
          5    1    3    3  502    0 -0.74354114495E+02 -0.17769530675E+02 -0.64041420908E+03  0.64497809246E+03  0.47000000000E+01 0. -1.
        -13    1    4    4    0    0  0.25208917692E+02 -0.25966166427E+02 -0.99172157306E+02  0.10556916271E+03  0.00000000000E+00 0.  1.
         14    1    4    4    0    0  0.34515618915E+02 -0.24548886635E+02 -0.71887071727E+03  0.72011740983E+03  0.00000000000E+00 0. -1.
         -5    1    5    5    0  501  0.26467458092E+02  0.42831568830E+02 -0.23976789694E+02  0.55964685922E+02  0.47000000000E+01 0.  1.
         13    1    6    6    0    0  0.23730141289E+02  0.35540190753E+02 -0.25746853380E+03  0.26099093981E+03  0.00000000000E+00 0. -1.
        -14    1    6    6    0    0 -0.35568021493E+02 -0.10087175846E+02 -0.11282964352E+03  0.11873231964E+03  0.00000000000E+00 0.  1.
</event>
<event>
12    1  0.2614920E-002  0.2220098E+03  0.7818608E-02  0.1132393E+00
          2   -1    0    0  502    0  0.00000000000E+00  0.00000000000E+00  0.73998542138E+03  0.73998542138E+03  0.00000000000E+00 0.  1.
         -2   -1    0    0    0  501 -0.00000000000E+00 -0.00000000000E+00 -0.36525949554E+03  0.36525949554E+03  0.00000000000E+00 0. -1.
          6    2    1    2  502    0  0.11176729443E+03 -0.74787426785E+02  0.68762969810E+03  0.72379035035E+03  0.18152901213E+03 0.  0.
         24    2    3    3    0    0  0.58516218165E+02 -0.10264636391E+03  0.60383349732E+03  0.62056394498E+03  0.80773098934E+02 0.  0.
         -6    2    1    2    0  501 -0.11176729443E+03  0.74787426785E+02 -0.31290377226E+03  0.38145456657E+03  0.17179560049E+03 0.  0.
        -24    2    5    5    0    0 -0.13737053511E+03  0.71033672662E+02 -0.19975151780E+03  0.26528598521E+03  0.80990978004E+02 0.  0.
          5    1    3    3  502    0  0.53251076267E+02  0.27858937122E+02  0.83796200781E+02  0.10322640537E+03  0.47000000000E+01 0. -1.
        -11    1    4    4    0    0  0.68620467487E+02 -0.53629301116E+02  0.46256089767E+03  0.47068827747E+03  0.00000000000E+00 0.  1.
         12    1    4    4    0    0 -0.10104249322E+02 -0.49017062790E+02  0.14127259965E+03  0.14987566751E+03  0.00000000000E+00 0. -1.
         -5    1    5    5    0  501  0.25603240682E+02  0.37537541227E+01 -0.11315225447E+03  0.11616858135E+03  0.47000000000E+01 0.  1.
         11    1    6    6    0    0 -0.52172647745E+02  0.46653143073E+02 -0.14529496172E+03  0.16127345359E+03  0.00000000000E+00 0. -1.
        -12    1    6    6    0    0 -0.85197887368E+02  0.24380529589E+02 -0.54456556083E+02  0.10401253163E+03  0.00000000000E+00 0.  1.
</event>
<event>
12    1  0.2614920E-002  0.1929260E+03  0.7818608E-02  0.1155848E+00
         -1   -1    0    0    0  501 -0.00000000000E+00  0.00000000000E+00  0.72752026660E+02  0.72752026660E+02  0.00000000000E+00 0. -1.
          1   -1    0    0  502    0  0.00000000000E+00 -0.00000000000E+00 -0.64995083061E+03  0.64995083061E+03  0.00000000000E+00 0.  1.
          6    2    1    2  502    0 -0.28353026504E+02 -0.77422478103E+02 -0.45101409855E+03  0.48917490686E+03  0.17052928833E+03 0.  0.
         24    2    3    3    0    0 -0.84156348043E+02 -0.47708192484E+02 -0.30465584266E+03  0.32967638481E+03  0.80702996809E+02 0.  0.
         -6    2    1    2    0  501  0.28353026504E+02  0.77422478103E+02 -0.12618470540E+03  0.23352795041E+03  0.17836644729E+03 0.  0.
        -24    2    5    5    0    0 -0.16239583101E+02  0.11261687983E+03 -0.78925455683E+02  0.15948287341E+03  0.79115571634E+02 0.  0.
          5    1    3    3  502    0  0.55803321540E+02 -0.29714285619E+02 -0.14635825590E+03  0.15949852205E+03  0.47000000000E+01 0. -1.
        -13    1    4    4    0    0 -0.57966164741E+02 -0.63496229293E+02 -0.27048200961E+03  0.28381748521E+03  0.00000000000E+00 0.  1.
         14    1    4    4    0    0 -0.26190183302E+02  0.15788036809E+02 -0.34173833042E+02  0.45858899599E+02  0.00000000000E+00 0. -1.
         -5    1    5    5    0  501  0.44592609605E+02 -0.35194401728E+02 -0.47259249715E+02  0.74045077000E+02  0.47000000000E+01 0.  1.
         11    1    6    6    0    0  0.30921933766E+02  0.43871823304E+02 -0.19511355583E+02  0.57110383159E+02  0.00000000000E+00 0. -1.
        -12    1    6    6    0    0 -0.47161516867E+02  0.68745056527E+02 -0.59414100100E+02  0.10237249025E+03  0.00000000000E+00 0.  1.
</event>
<event>
12    1  0.2614920E-002  0.1951126E+03  0.7818608E-02  0.1153929E+00
          2   -1    0    0  502    0  0.00000000000E+00  0.00000000000E+00  0.11957080841E+04  0.11957080841E+04  0.00000000000E+00 0.  1.
         -2   -1    0    0    0  501 -0.00000000000E+00 -0.00000000000E+00 -0.43492125080E+02  0.43492125080E+02  0.00000000000E+00 0. -1.
          6    2    1    2  502    0  0.76758641277E+02  0.52743456893E+02  0.25671928625E+03  0.32282588490E+03  0.17215690162E+03 0.  0.
         24    2    3    3    0    0  0.94651704459E+02 -0.15552865788E+02  0.15671407083E+03  0.20032003805E+03  0.79799629429E+02 0.  0.
         -6    2    1    2    0  501 -0.76758641277E+02 -0.52743456893E+02  0.89549667280E+03  0.91637432430E+03  0.17074498529E+03 0.  0.
        -24    2    5    5    0    0 -0.10939953504E+03 -0.50897223642E+02  0.83262853246E+03  0.84535792062E+03  0.82467904350E+02 0.  0.
          5    1    3    3  502    0 -0.17893063182E+02  0.68296322680E+02  0.10000521542E+03  0.12250584685E+03  0.47000000000E+01 0. -1.
        -11    1    4    4    0    0  0.67948278231E+02  0.23550465123E+02  0.12196044089E+03  0.14158369279E+03  0.00000000000E+00 0.  1.
         12    1    4    4    0    0  0.26703426228E+02 -0.39103330911E+02  0.34753629948E+02  0.58736345266E+02  0.00000000000E+00 0. -1.
         -5    1    5    5    0  501  0.32640893764E+02 -0.18462332505E+01  0.62868140332E+02  0.71016403681E+02  0.47000000000E+01 0.  1.
         13    1    6    6    0    0 -0.13555550863E+02  0.21408824563E+02  0.18047543791E+03  0.18224564307E+03  0.00000000000E+00 0. -1.
        -14    1    6    6    0    0 -0.95843984178E+02 -0.72306048205E+02  0.65215309455E+03  0.66311227756E+03  0.00000000000E+00 0.  1.
</event>
<event>
12    1  0.2614920E-002  0.1760283E+03  0.7818608E-02  0.1171703E+00
         -2   -1    0    0    0  501 -0.00000000000E+00  0.00000000000E+00  0.54188154881E+02  0.54188154881E+02  0.00000000000E+00 0. -1.
          2   -1    0    0  502    0  0.00000000000E+00 -0.00000000000E+00 -0.82831081445E+03  0.82831081445E+03  0.00000000000E+00 0.  1.
          6    2    1    2  502    0  0.26864868920E+01 -0.38223439042E+02 -0.14139710372E+03  0.22572165527E+03  0.17172325473E+03 0.  0.
         24    2    3    3    0    0  0.13239338124E+02 -0.63185546016E+02 -0.16110910643E+03  0.19188199652E+03  0.81822143173E+02 0.  0.
         -6    2    1    2    0  501 -0.26864868920E+01  0.38223439042E+02 -0.63272555585E+03  0.65677731406E+03  0.17189113629E+03 0.  0.
        -24    2    5    5    0    0 -0.56069650377E+02  0.58503297169E+02 -0.49077409350E+03  0.50369778423E+03  0.79283072068E+02 0.  0.
          5    1    3    3  502    0 -0.10552851232E+02  0.24962106973E+02  0.19712002711E+02  0.33839658754E+02  0.47000000000E+01 0. -1.
        -11    1    4    4    0    0  0.42286906264E+02 -0.58789662114E+02 -0.13179237650E+03  0.15037831398E+03  0.00000000000E+00 0.  1.
         12    1    4    4    0    0 -0.29047568141E+02 -0.43958839022E+01 -0.29316729935E+02  0.41503682538E+02  0.00000000000E+00 0. -1.
         -5    1    5    5    0  501  0.53383163485E+02 -0.20279858126E+02 -0.14195146235E+03  0.15307952982E+03  0.47000000000E+01 0.  1.
         11    1    6    6    0    0 -0.30560349590E+02  0.23753503290E+02 -0.64303095940E+02  0.75053661024E+02  0.00000000000E+00 0. -1.
        -12    1    6    6    0    0 -0.25509300787E+02  0.34749793879E+02 -0.42647099756E+03  0.42864412321E+03  0.00000000000E+00 0.  1.
</event>
<event>
12    1  0.2614920E-002  0.1974433E+03  0.7818608E-02  0.1151914E+00
         -3   -1    0    0    0  501 -0.00000000000E+00  0.00000000000E+00  0.14035860304E+04  0.14035860304E+04  0.00000000000E+00 0. -1.
          3   -1    0    0  502    0  0.00000000000E+00 -0.00000000000E+00 -0.34679167279E+02  0.34679167279E+02  0.00000000000E+00 0.  1.
          6    2    1    2  502    0 -0.49198031661E+02  0.82634454641E+02  0.36462142285E+03  0.41482769163E+03  0.17287085449E+03 0.  0.
         24    2    3    3    0    0 -0.24924931811E+02 -0.42046019301E+01  0.77170359211E+02  0.11352981725E+03  0.79339927905E+02 0.  0.
         -6    2    1    2    0  501  0.49198031661E+02 -0.82634454641E+02  0.10042854403E+04  0.10234375061E+04  0.17200634822E+03 0.  0.
        -24    2    5    5    0    0 -0.27714361953E+02 -0.68178048939E+02  0.41562326473E+03  0.42957746288E+03  0.79860917934E+02 0.  0.
          5    1    3    3  502    0 -0.24273099849E+02  0.86839056571E+02  0.28745106364E+03  0.30129787438E+03  0.47000000000E+01 0. -1.
        -11    1    4    4    0    0 -0.49382476780E+02 -0.12471605979E+02  0.70304894860E+02  0.86815598886E+02  0.00000000000E+00 0.  1.
         12    1    4    4    0    0  0.24457544969E+02  0.82670040484E+01  0.68654643502E+01  0.26714218360E+02  0.00000000000E+00 0. -1.
         -5    1    5    5    0  501  0.76912393614E+02 -0.14456405702E+02  0.58866217557E+03  0.59386004320E+03  0.47000000000E+01 0.  1.
         11    1    6    6    0    0 -0.18213215414E+01 -0.65643118882E+02  0.37903955401E+03  0.38468600153E+03  0.00000000000E+00 0. -1.
        -12    1    6    6    0    0 -0.25893040412E+02 -0.25349300569E+01  0.36583710726E+02  0.44891461356E+02  0.00000000000E+00 0.  1.
</event>
<event>
12    1  0.2614920E-002  0.2075437E+03  0.7818608E-02  0.1143526E+00
         -1   -1    0    0    0  501 -0.00000000000E+00  0.00000000000E+00  0.31590192134E+02  0.31590192134E+02  0.00000000000E+00 0.  1.
          1   -1    0    0  502    0  0.00000000000E+00 -0.00000000000E+00 -0.13641729340E+04  0.13641729340E+04  0.00000000000E+00 0. -1.
          6    2    1    2  502    0  0.22511396240E+02  0.11417119411E+03 -0.65306810722E+03  0.68541798361E+03  0.17250517401E+03 0.  0.
         24    2    3    3    0    0 -0.26609057570E+02  0.72895946689E+01 -0.26553008820E+03  0.28039415534E+03  0.85752402141E+02 0.  0.
         -6    2    1    2    0  501 -0.22511396240E+02 -0.11417119411E+03 -0.67951463468E+03  0.71034514256E+03  0.17119654871E+03 0.  0.
        -24    2    5    5    0    0 -0.60412095287E+02 -0.12145424719E+03 -0.42854873215E+03  0.45638553931E+03  0.78949282748E+02 0.  0.
          5    1    3    3  502    0  0.49120453809E+02  0.10688159944E+03 -0.38753801902E+03  0.40502382827E+03  0.47000000000E+01 0. -1.
        -11    1    4    4    0    0  0.20684371097E+00  0.29386326189E+02 -0.28865634475E+02  0.41192521224E+02  0.00000000000E+00 0.  1.
         12    1    4    4    0    0 -0.26815901281E+02 -0.22096731520E+02 -0.23666445373E+03  0.23920163412E+03  0.00000000000E+00 0. -1.
         -5    1    5    5    0  501  0.37900699048E+02  0.72830530763E+01 -0.25096590253E+03  0.25395960325E+03  0.47000000000E+01 0.  1.
         13    1    6    6    0    0  0.22939136247E+01 -0.51108024381E+02 -0.24242840532E+03  0.24776768131E+03  0.00000000000E+00 0. -1.
        -14    1    6    6    0    0 -0.62706008912E+02 -0.70346222805E+02 -0.18612032683E+03  0.20861785800E+03  0.00000000000E+00 0.  1.
</event>
<event>
12    1  0.2614920E-002  0.1915050E+03  0.7818608E-02  0.1157111E+00
          1   -1    0    0  502    0  0.00000000000E+00  0.00000000000E+00  0.39602547657E+02  0.39602547657E+02  0.00000000000E+00 0.  1.
         -1   -1    0    0    0  501 -0.00000000000E+00 -0.00000000000E+00 -0.92652836639E+03  0.92652836639E+03  0.00000000000E+00 0. -1.
          6    2    1    2  502    0 -0.69613817590E+02  0.47223460707E+02 -0.43251299861E+03  0.47300732869E+03  0.17202412676E+03 0.  0.
         24    2    3    3    0    0  0.12923303596E+02  0.40525083836E+02 -0.11956829073E+03  0.14925785021E+03  0.78562303335E+02 0.  0.
         -6    2    1    2    0  501  0.69613817590E+02 -0.47223460707E+02 -0.45441282012E+03  0.49312358535E+03  0.17205731749E+03 0.  0.
        -24    2    5    5    0    0 -0.81319843291E+01 -0.44602194337E+02 -0.34890469798E+03  0.36195447850E+03  0.84976887031E+02 0.  0.
          5    1    3    3  502    0 -0.82537121187E+02  0.66983768705E+01 -0.31294470789E+03  0.32374947849E+03  0.47000000000E+01 0. -1.
        -13    1    4    4    0    0 -0.14123585658E+02  0.28055381592E+02 -0.61654535432E+01  0.32009263120E+02  0.00000000000E+00 0.  1.
         14    1    4    4    0    0  0.27046889255E+02  0.12469702244E+02 -0.11340283719E+03  0.11724858709E+03  0.00000000000E+00 0. -1.
         -5    1    5    5    0  501  0.77745801919E+02 -0.26212663694E+01 -0.10550812214E+03  0.13116910685E+03  0.47000000000E+01 0.  1.
         13    1    6    6    0    0  0.17641934501E+02 -0.55619844770E+01 -0.26693462934E+03  0.26757479303E+03  0.00000000000E+00 0. -1.
        -14    1    6    6    0    0 -0.25773918830E+02 -0.39040209860E+02 -0.81970068641E+02  0.94379685477E+02  0.00000000000E+00 0.  1.
</event>
<event>
12    1  0.2614920E-002  0.2402067E+03  0.7818608E-02  0.1119655E+00
          2   -1    0    0  502    0  0.00000000000E+00  0.00000000000E+00  0.94616457091E+02  0.94616457091E+02  0.00000000000E+00 0.  1.
         -2   -1    0    0    0  501 -0.00000000000E+00 -0.00000000000E+00 -0.64657784279E+03  0.64657784279E+03  0.00000000000E+00 0. -1.
          6    2    1    2  502    0  0.13737614808E+03  0.89924825357E+02 -0.18498658251E+03  0.30120786703E+03  0.17189375549E+03 0.  0.
         24    2    3    3    0    0  0.10305750047E+03  0.10438570720E+03 -0.70068228170E+02  0.18031450559E+03  0.78016280702E+02 0.  0.
         -6    2    1    2    0  501 -0.13737614808E+03 -0.89924825357E+02 -0.36697480319E+03  0.43998643285E+03  0.17877045237E+03 0.  0.
        -24    2    5    5    0    0 -0.11450102038E+03  0.10191676684E+02 -0.21904339165E+03  0.25984099725E+03  0.79517183580E+02 0.  0.
          5    1    3    3  502    0  0.34318647602E+02 -0.14460881846E+02 -0.11491835434E+03  0.12089336144E+03  0.47000000000E+01 0. -1.
        -11    1    4    4    0    0  0.77064641378E+02  0.34630101828E+02 -0.10829042277E+02  0.85179052942E+02  0.00000000000E+00 0.  1.
         12    1    4    4    0    0  0.25992859096E+02  0.69755605374E+02 -0.59239185893E+02  0.95135452647E+02  0.00000000000E+00 0. -1.
         -5    1    5    5    0  501 -0.22875127698E+02 -0.10011650204E+03 -0.14793141155E+03  0.18014543561E+03  0.47000000000E+01 0.  1.
         11    1    6    6    0    0 -0.67190987031E+02  0.38909912784E+01 -0.19522360704E+03  0.20649945592E+03  0.00000000000E+00 0. -1.
        -12    1    6    6    0    0 -0.47310033347E+02  0.63006854060E+01 -0.23819784607E+02  0.53341541322E+02  0.00000000000E+00 0.  1.
</event>
<event>
12    1  0.2614920E-002  0.2938794E+03  0.7818608E-02  0.1088341E+00
          2   -1    0    0  502    0  0.00000000000E+00  0.00000000000E+00  0.12165185116E+03  0.12165185116E+03  0.00000000000E+00 0.  1.
         -2   -1    0    0    0  501 -0.00000000000E+00 -0.00000000000E+00 -0.73929929492E+03  0.73929929492E+03  0.00000000000E+00 0. -1.
          6    2    1    2  502    0 -0.23804804501E+03  0.93543571714E+01 -0.39309212713E+03  0.48991915292E+03  0.16954344651E+03 0.  0.
         24    2    3    3    0    0 -0.11024571213E+03  0.56331372024E+02 -0.14021496538E+03  0.20267496212E+03  0.78035653622E+02 0.  0.
         -6    2    1    2    0  501  0.23804804501E+03 -0.93543571714E+01 -0.22455531663E+03  0.37103199316E+03  0.17460032643E+03 0.  0.
        -24    2    5    5    0    0  0.57625435328E+02  0.43033973161E+02 -0.86383301264E+02  0.13777151414E+03  0.79663678860E+02 0.  0.
          5    1    3    3  502    0 -0.12780233287E+03 -0.46977014853E+02 -0.25287716175E+03  0.28724419080E+03  0.47000000000E+01 0. -1.
        -11    1    4    4    0    0 -0.40042432184E+02  0.45549342335E+02 -0.10974677187E+03  0.12538936517E+03  0.00000000000E+00 0.  1.
         12    1    4    4    0    0 -0.70203279948E+02  0.10782029690E+02 -0.30468193508E+02  0.77285596946E+02  0.00000000000E+00 0. -1.
         -5    1    5    5    0  501  0.18042260968E+03 -0.52388330333E+02 -0.13817201537E+03  0.23326047901E+03  0.47000000000E+01 0.  1.
         13    1    6    6    0    0  0.74465020773E+02  0.42251273066E+02 -0.85334932234E+02  0.12088118155E+03  0.00000000000E+00 0. -1.
        -14    1    6    6    0    0 -0.16839585445E+02  0.78270009564E+00 -0.10483690299E+01  0.16890332590E+02  0.00000000000E+00 0.  1.
</event>
<event>
12    1  0.2614920E-002  0.2093902E+03  0.7818608E-02  0.1142050E+00
          2   -1    0    0  502    0  0.00000000000E+00  0.00000000000E+00  0.17846105143E+04  0.17846105143E+04  0.00000000000E+00 0.  1.
         -2   -1    0    0    0  501 -0.00000000000E+00 -0.00000000000E+00 -0.26728746732E+02  0.26728746732E+02  0.00000000000E+00 0. -1.
          6    2    1    2  502    0 -0.11811962614E+03 -0.81123953674E+01  0.61964236546E+03  0.65391579208E+03  0.17213699493E+03 0.  0.
         24    2    3    3    0    0 -0.81300103292E+02  0.62846419358E+02  0.38569619868E+03  0.40664321050E+03  0.77703048521E+02 0.  0.
         -6    2    1    2    0  501  0.11811962614E+03  0.81123953674E+01  0.11382394021E+04  0.11574234690E+04  0.17326884582E+03 0.  0.
        -24    2    5    5    0    0  0.11968395936E+03 -0.30812367391E+02  0.10577944064E+04  0.10679188790E+04  0.79044757765E+02 0.  0.
          5    1    3    3  502    0 -0.36819522850E+02 -0.70958814726E+02  0.23394616678E+03  0.24727258158E+03  0.47000000000E+01 0. -1.
        -13    1    4    4    0    0 -0.72685736471E+01  0.46454600613E+02  0.21143693775E+03  0.21660203306E+03  0.00000000000E+00 0.  1.
         14    1    4    4    0    0 -0.74031529644E+02  0.16391818745E+02  0.17425926094E+03  0.19004117745E+03  0.00000000000E+00 0. -1.
         -5    1    5    5    0  501 -0.15643332180E+01  0.38924762759E+02  0.80444995729E+02  0.89504590006E+02  0.47000000000E+01 0.  1.
         11    1    6    6    0    0  0.94111008280E+02 -0.13650922424E+02  0.48142687928E+03  0.49072912045E+03  0.00000000000E+00 0. -1.
        -12    1    6    6    0    0  0.25572951079E+02 -0.17161444967E+02  0.57636752712E+03  0.57718975852E+03  0.00000000000E+00 0.  1.
</event>
<event>
12    1  0.2614920E-002  0.2111817E+03  0.7818608E-02  0.1140634E+00
         -1   -1    0    0    0  501 -0.00000000000E+00  0.00000000000E+00  0.26421934461E+03  0.26421934461E+03  0.00000000000E+00 0.  1.
          1   -1    0    0  502    0  0.00000000000E+00 -0.00000000000E+00 -0.22876647327E+03  0.22876647327E+03  0.00000000000E+00 0. -1.
          6    2    1    2  502    0  0.11904811992E+03 -0.39456965486E+02 -0.10837807599E+03  0.23873441474E+03  0.17181096136E+03 0.  0.
         24    2    3    3    0    0  0.10040841229E+02  0.25870436262E+02 -0.28105665541E+02  0.88348224861E+02  0.79027732067E+02 0.  0.
         -6    2    1    2    0  501 -0.11904811992E+03  0.39456965486E+02  0.14383094734E+03  0.25425140314E+03  0.16800930808E+03 0.  0.
        -24    2    5    5    0    0 -0.67274005640E+02  0.88942060156E+02  0.10218397011E+03  0.17127011479E+03  0.80345544814E+02 0.  0.
          5    1    3    3  502    0  0.10900727869E+03 -0.65327401748E+02 -0.80272410454E+02  0.15038618988E+03  0.47000000000E+01 0. -1.
        -11    1    4    4    0    0  0.24715301450E+02  0.49318195926E+02 -0.24825602164E+02  0.60493314490E+02  0.00000000000E+00 0.  1.
         12    1    4    4    0    0 -0.14674460221E+02 -0.23447759664E+02 -0.32800633768E+01  0.27854910371E+02  0.00000000000E+00 0. -1.
         -5    1    5    5    0  501 -0.51774114284E+02 -0.49485094670E+02  0.41646977227E+02  0.82981288352E+02  0.47000000000E+01 0.  1.
         13    1    6    6    0    0 -0.73678450232E+02  0.78302586484E+02  0.51736590875E+02  0.11931673778E+03  0.00000000000E+00 0. -1.
        -14    1    6    6    0    0  0.64044445926E+01  0.10639473672E+02  0.50447379239E+02  0.51953377009E+02  0.00000000000E+00 0.  1.
</event>
<event>
12    1  0.2614920E-002  0.1775587E+03  0.7818608E-02  0.1170187E+00
         -2   -1    0    0    0  501 -0.00000000000E+00  0.00000000000E+00  0.16857229563E+03  0.16857229563E+03  0.00000000000E+00 0. -1.
          2   -1    0    0  502    0  0.00000000000E+00 -0.00000000000E+00 -0.39785135203E+03  0.39785135203E+03  0.00000000000E+00 0.  1.
          6    2    1    2  502    0  0.18436978257E+02 -0.39329322558E+02  0.91477213519E+02  0.19987785069E+03  0.17232630915E+03 0.  0.
         24    2    3    3    0    0  0.18140711383E+02  0.77169519775E+01  0.12572030844E+03  0.14149875108E+03  0.61868116562E+02 0.  0.
         -6    2    1    2    0  501 -0.18436978257E+02  0.39329322558E+02 -0.32075626992E+03  0.36654579697E+03  0.17200150814E+03 0.  0.
        -24    2    5    5    0    0  0.14445242148E+02  0.28977975889E+02 -0.61892419667E+02  0.10535434656E+03  0.78870010907E+02 0.  0.
          5    1    3    3  502    0  0.29626687349E+00 -0.47046274536E+02 -0.34243094918E+02  0.58379099610E+02  0.47000000000E+01 0. -1.
        -13    1    4    4    0    0  0.18234523911E+02  0.26891313490E+02  0.31172755896E+02  0.45026451266E+02  0.00000000000E+00 0.  1.
         14    1    4    4    0    0 -0.93812527930E-01 -0.19174361512E+02  0.94547552542E+02  0.96472299816E+02  0.00000000000E+00 0. -1.
         -5    1    5    5    0  501 -0.32882220405E+02  0.10351346669E+02 -0.25886385025E+03  0.26119145041E+03  0.47000000000E+01 0.  1.
         13    1    6    6    0    0 -0.57513870097E+01 -0.14581452751E+02  0.10225595050E+02  0.18715234730E+02  0.00000000000E+00 0. -1.
        -14    1    6    6    0    0  0.20196629158E+02  0.43559428640E+02 -0.72118014717E+02  0.86639111835E+02  0.00000000000E+00 0.  1.
</event>
<event>
12    1  0.2614920E-002  0.1762981E+03  0.7818608E-02  0.1171435E+00
         -1   -1    0    0    0  501 -0.00000000000E+00  0.00000000000E+00  0.63681016286E+03  0.63681016286E+03  0.00000000000E+00 0. -1.
          1   -1    0    0  502    0  0.00000000000E+00 -0.00000000000E+00 -0.68447660752E+02  0.68447660752E+02  0.00000000000E+00 0.  1.
          6    2    1    2  502    0  0.21904430638E+02  0.32116793235E+02  0.96331306569E+02  0.20169156164E+03  0.17288283004E+03 0.  0.
         24    2    3    3    0    0  0.18605826850E+02  0.62890840292E+02  0.12267830038E+03  0.16077485549E+03  0.80604926587E+02 0.  0.
         -6    2    1    2    0  501 -0.21904430638E+02 -0.32116793235E+02  0.47203119554E+03  0.50356626197E+03  0.17103870365E+03 0.  0.
        -24    2    5    5    0    0  0.53371404790E+02 -0.18738239697E+02  0.21850647990E+03  0.23872232956E+03  0.77740854112E+02 0.  0.
          5    1    3    3  502    0  0.32986037887E+01 -0.30774047057E+02 -0.26346993806E+02  0.40916706146E+02  0.47000000000E+01 0. -1.
        -11    1    4    4    0    0  0.14343384984E+02 -0.17453273664E+02  0.18854274818E+02  0.29425042622E+02  0.00000000000E+00 0.  1.
         12    1    4    4    0    0  0.42624418661E+01  0.80344113957E+02  0.10382402556E+03  0.13134981287E+03  0.00000000000E+00 0. -1.
         -5    1    5    5    0  501 -0.75275835428E+02 -0.13378553538E+02  0.25352471564E+03  0.26484393241E+03  0.47000000000E+01 0.  1.
         11    1    6    6    0    0 -0.12501241712E+02  0.14898842439E+02  0.72321932537E+02  0.74891377850E+02  0.00000000000E+00 0. -1.
        -12    1    6    6    0    0  0.65872646502E+02 -0.33637082137E+02  0.14618454736E+03  0.16383095171E+03  0.00000000000E+00 0.  1.
</event>
<event>
12    1  0.2614920E-002  0.1816251E+03  0.7818608E-02  0.1166239E+00
          2   -1    0    0  502    0  0.00000000000E+00  0.00000000000E+00  0.39791275514E+03  0.39791275514E+03  0.00000000000E+00 0.  1.
         -2   -1    0    0    0  501 -0.00000000000E+00 -0.00000000000E+00 -0.84003158360E+02  0.84003158360E+02  0.00000000000E+00 0. -1.
          6    2    1    2  502    0  0.23626166199E+02 -0.55799059577E+02  0.12886143384E+03  0.22220398893E+03  0.17058022390E+03 0.  0.
         24    2    3    3    0    0 -0.19453749138E+02  0.13125515377E+02  0.11111443614E+03  0.13887619005E+03  0.79934039904E+02 0.  0.
         -6    2    1    2    0  501 -0.23626166199E+02  0.55799059577E+02  0.18504816295E+03  0.25971192457E+03  0.17185962405E+03 0.  0.
        -24    2    5    5    0    0 -0.63252544445E+02  0.79405326129E+02  0.96457041422E+02  0.15972201265E+03  0.76818424152E+02 0.  0.
          5    1    3    3  502    0  0.43079915338E+02 -0.68924574954E+02  0.17746997697E+02  0.83327798875E+02  0.47000000000E+01 0. -1.
        -11    1    4    4    0    0  0.17110104631E+02  0.35268648092E+02  0.65722840633E+02  0.76525322604E+02  0.00000000000E+00 0.  1.
         12    1    4    4    0    0 -0.36563853770E+02 -0.22143132715E+02  0.45391595506E+02  0.62350867448E+02  0.00000000000E+00 0. -1.
         -5    1    5    5    0  501  0.39626378246E+02 -0.23606266552E+02  0.88591121523E+02  0.99989911922E+02  0.47000000000E+01 0.  1.
         11    1    6    6    0    0 -0.21687806853E+02 -0.10909378586E+02  0.35812029067E+02  0.43265193090E+02  0.00000000000E+00 0. -1.
        -12    1    6    6    0    0 -0.41564737593E+02  0.90314704715E+02  0.60645012355E+02  0.11645681956E+03  0.00000000000E+00 0.  1.
</event>
<event>
12    1  0.2614920E-002  0.1924169E+03  0.7818608E-02  0.1156299E+00
          1   -1    0    0  502    0  0.00000000000E+00  0.00000000000E+00  0.42074174577E+03  0.42074174577E+03  0.00000000000E+00 0.  1.
         -1   -1    0    0    0  501 -0.00000000000E+00 -0.00000000000E+00 -0.90010729131E+02  0.90010729131E+02  0.00000000000E+00 0. -1.
          6    2    1    2  502    0  0.28153525572E+02  0.80899927405E+02  0.12690677010E+03  0.23023139818E+03  0.17194112119E+03 0.  0.
         24    2    3    3    0    0  0.23347615939E+02  0.59655688858E+02  0.15944216712E+03  0.19079719352E+03  0.82932816274E+02 0.  0.
         -6    2    1    2    0  501 -0.28153525572E+02 -0.80899927405E+02  0.20382424653E+03  0.28052107672E+03  0.17265668754E+03 0.  0.
        -24    2    5    5    0    0 -0.67179397429E+02  0.58213621559E+00  0.11414115094E+03  0.15313389918E+03  0.76865976990E+02 0.  0.
          5    1    3    3  502    0  0.48059096327E+01  0.21244238547E+02 -0.32535397014E+02  0.39434204666E+02  0.47000000000E+01 0. -1.
        -11    1    4    4    0    0  0.58770957196E+01  0.75713714431E+02  0.91953202925E+02  0.11925811643E+03  0.00000000000E+00 0.  1.
         12    1    4    4    0    0  0.17470520219E+02 -0.16058025572E+02  0.67488964193E+02  0.71539077083E+02  0.00000000000E+00 0. -1.
         -5    1    5    5    0  501  0.39025871857E+02 -0.81482063621E+02  0.89683095595E+02  0.12738717754E+03  0.47000000000E+01 0.  1.
         11    1    6    6    0    0  0.38360807110E+01 -0.16159046641E+01 -0.95900164596E+01  0.10454428669E+02  0.00000000000E+00 0. -1.
        -12    1    6    6    0    0 -0.71015478140E+02  0.21980408797E+01  0.12373116740E+03  0.14267947051E+03  0.00000000000E+00 0.  1.
</event>
<event>
12    1  0.2614920E-002  0.2219461E+03  0.7818608E-02  0.1132440E+00
         -2   -1    0    0    0  501 -0.00000000000E+00  0.00000000000E+00  0.43492315474E+03  0.43492315474E+03  0.00000000000E+00 0. -1.
          2   -1    0    0  502    0  0.00000000000E+00 -0.00000000000E+00 -0.12524639926E+03  0.12524639926E+03  0.00000000000E+00 0.  1.
          6    2    1    2  502    0  0.10972063752E+03  0.87080959776E+02  0.67972419871E+02  0.23177890939E+03  0.17169595546E+03 0.  0.
         24    2    3    3    0    0  0.12854266776E+03  0.52048880064E+02  0.23705967462E+02  0.17208699838E+03  0.99094191390E+02 0.  0.
         -6    2    1    2    0  501 -0.10972063752E+03 -0.87080959776E+02  0.24170433560E+03  0.32839064461E+03  0.17262015458E+03 0.  0.
        -24    2    5    5    0    0 -0.12540063387E+03 -0.30868804885E+02  0.21701057152E+03  0.26484899978E+03  0.79832339581E+02 0.  0.
          5    1    3    3  502    0 -0.18822030237E+02  0.35032079712E+02  0.44266452410E+02  0.59691911011E+02  0.47000000000E+01 0. -1.
        -13    1    4    4    0    0  0.62872854879E+01 -0.21841214238E+02  0.18223459055E+02  0.29131822088E+02  0.00000000000E+00 0.  1.
         14    1    4    4    0    0  0.12225538227E+03  0.73890094302E+02  0.54825084062E+01  0.14295517629E+03  0.00000000000E+00 0. -1.
         -5    1    5    5    0  501  0.15679996352E+02 -0.56212154890E+02  0.24693764080E+02  0.63541644828E+02  0.47000000000E+01 0.  1.
         11    1    6    6    0    0 -0.11777758660E+03 -0.37698165355E+02  0.22149220748E+03  0.25367599325E+03  0.00000000000E+00 0. -1.
        -12    1    6    6    0    0 -0.76230472742E+01  0.68293604698E+01 -0.44816359577E+01  0.11173006535E+02  0.00000000000E+00 0.  1.
</event>
<event>
12    1  0.2614920E-002  0.1760991E+03  0.7818608E-02  0.1171633E+00
          1   -1    0    0  502    0  0.00000000000E+00  0.00000000000E+00  0.20794179115E+03  0.20794179115E+03  0.00000000000E+00 0.  1.
         -1   -1    0    0    0  501 -0.00000000000E+00 -0.00000000000E+00 -0.19135926686E+03  0.19135926686E+03  0.00000000000E+00 0. -1.
          6    2    1    2  502    0 -0.34752532779E+02  0.19418146343E+02  0.10209599954E+03  0.20404041886E+03  0.17211652003E+03 0.  0.
         24    2    3    3    0    0 -0.33232204742E+02  0.57798743432E+02  0.12156220352E+03  0.16072293131E+03  0.81298321948E+02 0.  0.
         -6    2    1    2    0  501  0.34752532779E+02 -0.19418146343E+02 -0.85513475249E+02  0.19526063915E+03  0.17096596097E+03 0.  0.
        -24    2    5    5    0    0  0.18524380660E+02  0.94203078344E+01  0.15897204507E+02  0.88484118651E+02  0.84527056401E+02 0.  0.
          5    1    3    3  502    0 -0.15203280370E+01 -0.38380597090E+02 -0.19466203979E+02  0.43317487550E+02  0.47000000000E+01 0. -1.
        -13    1    4    4    0    0 -0.11770370014E+02  0.71568912002E+02  0.60148404029E+02  0.94225693325E+02  0.00000000000E+00 0.  1.
         14    1    4    4    0    0 -0.21461834728E+02 -0.13770168570E+02  0.61413799491E+02  0.66497237989E+02  0.00000000000E+00 0. -1.
         -5    1    5    5    0  501  0.16228152119E+02 -0.28838454177E+02 -0.10141067976E+03  0.10677652050E+03  0.47000000000E+01 0.  1.
         13    1    6    6    0    0 -0.63019237408E+01 -0.18846213793E+02 -0.25642030584E+02  0.32440834601E+02  0.00000000000E+00 0. -1.
        -14    1    6    6    0    0  0.24826304401E+02  0.28266521627E+02  0.41539235091E+02  0.56043284049E+02  0.00000000000E+00 0.  1.
</event>
<event>
12    1  0.2614920E-002  0.3814261E+03  0.7818608E-02  0.1050408E+00
         -2   -1    0    0    0  501 -0.00000000000E+00  0.00000000000E+00  0.47771437494E+03  0.47771437494E+03  0.00000000000E+00 0.  1.
          2   -1    0    0  502    0  0.00000000000E+00 -0.00000000000E+00 -0.38583285120E+03  0.38583285120E+03  0.00000000000E+00 0. -1.
          6    2    1    2  502    0  0.18063654447E+03  0.28777262018E+03  0.24406492117E+03  0.45231461500E+03  0.17198308950E+03 0.  0.
         24    2    3    3    0    0  0.18765617939E+03  0.19614103487E+03  0.21488271889E+03  0.35577802282E+03  0.81958961792E+02 0.  0.
         -6    2    1    2    0  501 -0.18063654447E+03 -0.28777262018E+03 -0.15218339744E+03  0.41123261114E+03  0.17467063832E+03 0.  0.
        -24    2    5    5    0    0 -0.20114607372E+03 -0.21811406984E+03 -0.14023102630E+03  0.33749046851E+03  0.78750143886E+02 0.  0.
          5    1    3    3  502    0 -0.70196349219E+01  0.91631585305E+02  0.29182202282E+02  0.96536592181E+02  0.47000000000E+01 0. -1.
        -11    1    4    4    0    0  0.45428457877E+02  0.95075862680E+01  0.19144559291E+02  0.50206106523E+02  0.00000000000E+00 0.  1.
         12    1    4    4    0    0  0.14222772152E+03  0.18663344860E+03  0.19573815960E+03  0.30557191630E+03  0.00000000000E+00 0. -1.
         -5    1    5    5    0  501  0.20509529247E+02 -0.69658550333E+02 -0.11952371138E+02  0.73742142634E+02  0.47000000000E+01 0.  1.
         13    1    6    6    0    0 -0.20405004439E+02 -0.40837876608E+02 -0.52452224008E+02  0.69536552800E+02  0.00000000000E+00 0. -1.
        -14    1    6    6    0    0 -0.18074106928E+03 -0.17727619323E+03 -0.87778802291E+02  0.26795391571E+03  0.00000000000E+00 0.  1.
</event>
<event>
12    1  0.2614920E-002  0.2266273E+03  0.7818608E-02  0.1129036E+00
         -1   -1    0    0    0  501 -0.00000000000E+00  0.00000000000E+00  0.14797406713E+03  0.14797406713E+03  0.00000000000E+00 0.  1.
          1   -1    0    0  502    0  0.00000000000E+00 -0.00000000000E+00 -0.35322870877E+03  0.35322870877E+03  0.00000000000E+00 0. -1.
          6    2    1    2  502    0 -0.13017187733E+03 -0.73315638275E+02 -0.13581052794E+03  0.26447842432E+03  0.17083453097E+03 0.  0.
         24    2    3    3    0    0 -0.11646967106E+03 -0.93129766189E+02 -0.52941634941E+02  0.17805103545E+03  0.81615053061E+02 0.  0.
         -6    2    1    2    0  501  0.13017187733E+03  0.73315638275E+02 -0.69444113704E+02  0.23672435157E+03  0.16998833265E+03 0.  0.
        -24    2    5    5    0    0  0.35695480559E+02  0.42735892370E+02 -0.92223354013E+02  0.13473467467E+03  0.80918240861E+02 0.  0.
          5    1    3    3  502    0 -0.13702206268E+02  0.19814127914E+02 -0.82868892995E+02  0.86427388875E+02  0.47000000000E+01 0. -1.
        -11    1    4    4    0    0 -0.17423913836E+02 -0.62520153098E+02 -0.92754162844E+01  0.65562151154E+02  0.00000000000E+00 0.  1.
         12    1    4    4    0    0 -0.99045757223E+02 -0.30609613092E+02 -0.43666218657E+02  0.11248888429E+03  0.00000000000E+00 0. -1.
         -5    1    5    5    0  501  0.94476396769E+02  0.30579745905E+02  0.22779240309E+02  0.10198967690E+03  0.47000000000E+01 0.  1.
         11    1    6    6    0    0  0.31884156102E+02 -0.18470672418E+02 -0.36764089792E+02  0.52051546069E+02  0.00000000000E+00 0. -1.
        -12    1    6    6    0    0  0.38113244568E+01  0.61206564789E+02 -0.55459264222E+02  0.82683128602E+02  0.00000000000E+00 0.  1.
</event>
<event>
12    1  0.2614920E-002  0.1820604E+03  0.7818608E-02  0.1165824E+00
         -3   -1    0    0    0  501 -0.00000000000E+00  0.00000000000E+00  0.87661507617E+02  0.87661507617E+02  0.00000000000E+00 0.  1.
          3   -1    0    0  502    0  0.00000000000E+00 -0.00000000000E+00 -0.40263146325E+03  0.40263146325E+03  0.00000000000E+00 0. -1.
          6    2    1    2  502    0  0.25639599514E+02 -0.51913772365E+02 -0.21784803430E+03  0.28380455898E+03  0.17243791006E+03 0.  0.
         24    2    3    3    0    0 -0.11344772101E+02 -0.95416148885E+02 -0.15570544078E+03  0.19928182574E+03  0.78969085452E+02 0.  0.
         -6    2    1    2    0  501 -0.25639599514E+02  0.51913772365E+02 -0.97121921340E+02  0.20648841189E+03  0.17277837774E+03 0.  0.
        -24    2    5    5    0    0 -0.73106582270E+02  0.85491311203E+01 -0.90912906442E+02  0.14172539445E+03  0.80020440259E+02 0.  0.
          5    1    3    3  502    0  0.36984371615E+02  0.43502376520E+02 -0.62142593513E+02  0.84522733245E+02  0.47000000000E+01 0. -1.
        -13    1    4    4    0    0  0.23828918454E+02 -0.94138415098E+01 -0.12336990805E+02  0.28436580469E+02  0.00000000000E+00 0.  1.
         14    1    4    4    0    0 -0.35173690555E+02 -0.86002307375E+02 -0.14336844998E+03  0.17084524527E+03  0.00000000000E+00 0. -1.
         -5    1    5    5    0  501  0.47466982756E+02  0.43364641244E+02 -0.62090148977E+01  0.64763017442E+02  0.47000000000E+01 0.  1.
         11    1    6    6    0    0 -0.34294508433E+02  0.39302519559E+02 -0.21405954785E+02  0.56382765564E+02  0.00000000000E+00 0. -1.
        -12    1    6    6    0    0 -0.38812073837E+02 -0.30753388439E+02 -0.69506951657E+02  0.85342628883E+02  0.00000000000E+00 0.  1.
</event>
<event>
12    1  0.2614920E-002  0.2242001E+03  0.7818608E-02  0.1130790E+00
         -2   -1    0    0    0  501 -0.00000000000E+00  0.00000000000E+00  0.52855980381E+02  0.52855980381E+02  0.00000000000E+00 0. -1.
          2   -1    0    0  502    0  0.00000000000E+00 -0.00000000000E+00 -0.10590947175E+04  0.10590947175E+04  0.00000000000E+00 0.  1.
          6    2    1    2  502    0  0.11502049681E+03  0.87875947386E+02 -0.67987527358E+03  0.71575398099E+03  0.17065015931E+03 0.  0.
         24    2    3    3    0    0 -0.76799143070E+01  0.39240126102E+02 -0.32314306825E+03  0.33535841015E+03  0.80281081953E+02 0.  0.
         -6    2    1    2    0  501 -0.11502049681E+03 -0.87875947386E+02 -0.32636346357E+03  0.39619671691E+03  0.17177552598E+03 0.  0.
        -24    2    5    5    0    0 -0.29420024097E+02 -0.10598401229E+03 -0.21137588383E+03  0.25162985889E+03  0.80868244339E+02 0.  0.
          5    1    3    3  502    0  0.12270041112E+03  0.48635821284E+02 -0.35673220533E+03  0.38039557084E+03  0.47000000000E+01 0. -1.
        -13    1    4    4    0    0 -0.23706755336E+01  0.56489765321E+02 -0.30334227829E+03  0.30856644582E+03  0.00000000000E+00 0.  1.
         14    1    4    4    0    0 -0.53092387733E+01 -0.17249639219E+02 -0.19800789962E+02  0.26791964330E+02  0.00000000000E+00 0. -1.
         -5    1    5    5    0  501 -0.85600472714E+02  0.18108064908E+02 -0.11498757974E+03  0.14456685802E+03  0.47000000000E+01 0.  1.
         11    1    6    6    0    0 -0.62450515308E+01 -0.96875175222E+02 -0.20357419347E+03  0.22553547945E+03  0.00000000000E+00 0. -1.
        -12    1    6    6    0    0 -0.23174972566E+02 -0.91088370718E+01 -0.78016903606E+01  0.26094379447E+02  0.00000000000E+00 0.  1.
</event>
<event>
12    1  0.2614920E-002  0.1801848E+03  0.7818608E-02  0.1167624E+00
         -2   -1    0    0    0  501 -0.00000000000E+00  0.00000000000E+00  0.13788819578E+03  0.13788819578E+03  0.00000000000E+00 0.  1.
          2   -1    0    0  502    0  0.00000000000E+00 -0.00000000000E+00 -0.50277788691E+03  0.50277788691E+03  0.00000000000E+00 0. -1.
          6    2    1    2  502    0  0.67908319088E+01  0.46291463949E+02  0.51323943375E+02  0.18696292617E+03  0.17358563756E+03 0.  0.
         24    2    3    3    0    0 -0.50394097949E+02  0.70560943219E+02  0.26788271578E+02  0.12000612654E+03  0.78520361028E+02 0.  0.
         -6    2    1    2    0  501 -0.67908319088E+01 -0.46291463949E+02 -0.41621363451E+03  0.45370315652E+03  0.17442405123E+03 0.  0.
        -24    2    5    5    0    0 -0.56242934389E+01  0.28870079473E+02 -0.32285482900E+03  0.33375077018E+03  0.79304614119E+02 0.  0.
          5    1    3    3  502    0  0.57184929857E+02 -0.24269479271E+02  0.24535671797E+02  0.66956799635E+02  0.47000000000E+01 0. -1.
        -13    1    4    4    0    0 -0.62994810044E+02  0.31214385579E+02 -0.83165979903E+00  0.70309143200E+02  0.00000000000E+00 0.  1.
         14    1    4    4    0    0  0.12600712095E+02  0.39346557640E+02  0.27619931377E+02  0.49696983336E+02  0.00000000000E+00 0. -1.
         -5    1    5    5    0  501 -0.11665384699E+01 -0.75161543422E+02 -0.93358805512E+02  0.11995238634E+03  0.47000000000E+01 0.  1.
         11    1    6    6    0    0 -0.20835816259E+02  0.16727897201E+02 -0.30827840847E+03  0.30943421096E+03  0.00000000000E+00 0. -1.
        -12    1    6    6    0    0  0.15211522820E+02  0.12142182272E+02 -0.14576420534E+02  0.24316559222E+02  0.00000000000E+00 0.  1.
</event>
<event>
12    1  0.2614920E-002  0.2952911E+03  0.7818608E-02  0.1087619E+00
         -2   -1    0    0    0  501 -0.00000000000E+00  0.00000000000E+00  0.45481389714E+02  0.45481389714E+02  0.00000000000E+00 0. -1.
          2   -1    0    0  502    0  0.00000000000E+00 -0.00000000000E+00 -0.20639241316E+04  0.20639241316E+04  0.00000000000E+00 0.  1.
          6    2    1    2  502    0 -0.16177879604E+03  0.17567401806E+03 -0.72424004783E+03  0.78167543311E+03  0.17163652403E+03 0.  0.
         24    2    3    3    0    0 -0.26319252107E+02  0.72901670222E+02 -0.40359950963E+03  0.41871002393E+03  0.80113440922E+02 0.  0.
         -6    2    1    2    0  501  0.16177879604E+03 -0.17567401806E+03 -0.12942026941E+04  0.13277300882E+04  0.17570667130E+03 0.  0.
        -24    2    5    5    0    0  0.23213039978E+02 -0.34533888717E+02 -0.26012533671E+03  0.27489625714E+03  0.78557792053E+02 0.  0.
          5    1    3    3  502    0 -0.13545954393E+03  0.10277234784E+03 -0.32064053820E+03  0.36296540918E+03  0.47000000000E+01 0. -1.
        -13    1    4    4    0    0 -0.10305681012E+01 -0.13330878767E+02 -0.16105908069E+02  0.20932622245E+02  0.00000000000E+00 0.  1.
         14    1    4    4    0    0 -0.25288684006E+02  0.86232548988E+02 -0.38749360156E+03  0.39777740169E+03  0.00000000000E+00 0. -1.
         -5    1    5    5    0  501  0.13856575606E+03 -0.14114012935E+03 -0.10340773574E+04  0.10528338311E+04  0.47000000000E+01 0.  1.
         11    1    6    6    0    0  0.46944002914E+02 -0.33057688750E+02 -0.12320189668E+03  0.13592371957E+03  0.00000000000E+00 0. -1.
        -12    1    6    6    0    0 -0.23730962936E+02 -0.14761999666E+01 -0.13692344003E+03  0.13897253757E+03  0.00000000000E+00 0.  1.
</event>
<event>
12    1  0.2614920E-002  0.1885150E+03  0.7818608E-02  0.1159808E+00
          2   -1    0    0  502    0  0.00000000000E+00  0.00000000000E+00  0.12411471611E+04  0.12411471611E+04  0.00000000000E+00 0.  1.
         -2   -1    0    0    0  501 -0.00000000000E+00 -0.00000000000E+00 -0.34876059363E+02  0.34876059363E+02  0.00000000000E+00 0. -1.
          6    2    1    2  502    0 -0.73996441406E+02  0.20602917630E+02  0.87286257267E+03  0.89297094539E+03  0.17207000023E+03 0.  0.
         24    2    3    3    0    0 -0.67853700998E+02  0.64276243654E+02  0.78544796271E+03  0.79494800573E+03  0.79235531423E+02 0.  0.
         -6    2    1    2    0  501  0.73996441406E+02 -0.20602917630E+02  0.33340852910E+03  0.38305227511E+03  0.17224356195E+03 0.  0.
        -24    2    5    5    0    0 -0.75009457403E+01 -0.49395569464E+02  0.21262505384E+03  0.23445355773E+03  0.85222477914E+02 0.  0.
          5    1    3    3  502    0 -0.61427404081E+01 -0.43673326024E+02  0.87414609958E+02  0.98022939661E+02  0.47000000000E+01 0. -1.
        -13    1    4    4    0    0 -0.56893399946E+02  0.25269302344E+01  0.28929514288E+03  0.29484728933E+03  0.00000000000E+00 0.  1.
         14    1    4    4    0    0 -0.10960301052E+02  0.61749313419E+02  0.49615281983E+03  0.50010071639E+03  0.00000000000E+00 0. -1.
         -5    1    5    5    0  501  0.81497387146E+02  0.28792651834E+02  0.12078347526E+03  0.14859871738E+03  0.47000000000E+01 0.  1.
         13    1    6    6    0    0 -0.19496681112E+02 -0.65344439932E+02  0.10644397977E+03  0.12641335861E+03  0.00000000000E+00 0. -1.
        -14    1    6    6    0    0  0.11995735371E+02  0.15948870468E+02  0.10618107407E+03  0.10804019912E+03  0.00000000000E+00 0.  1.
</event>
<event>
12    1  0.2614920E-002  0.1870009E+03  0.7818608E-02  0.1161194E+00
          1   -1    0    0  502    0  0.00000000000E+00  0.00000000000E+00  0.12013924683E+04  0.12013924683E+04  0.00000000000E+00 0. -1.
         -1   -1    0    0    0  501 -0.00000000000E+00 -0.00000000000E+00 -0.31193994763E+02  0.31193994763E+02  0.00000000000E+00 0.  1.
          6    2    1    2  502    0  0.51177265930E+02 -0.51577152925E+02  0.74453367554E+03  0.76766184249E+03  0.17232235823E+03 0.  0.
         24    2    3    3    0    0  0.65277513304E+02  0.31528815886E+02  0.42903395087E+03  0.44106180376E+03  0.72181464142E+02 0.  0.
         -6    2    1    2    0  501 -0.51177265930E+02  0.51577152925E+02  0.42566479795E+03  0.46492462053E+03  0.17229354981E+03 0.  0.
        -24    2    5    5    0    0  0.57751580312E+01 -0.28242987498E+02  0.25464588307E+03  0.26773336145E+03  0.77495859712E+02 0.  0.
          5    1    3    3  502    0 -0.14100247375E+02 -0.83105968811E+02  0.31549972467E+03  0.32660003873E+03  0.47000000000E+01 0. -1.
        -11    1    4    4    0    0 -0.90235993029E+01  0.26069708911E+02  0.12895029398E+03  0.13186824252E+03  0.00000000000E+00 0.  1.
         12    1    4    4    0    0  0.74301112607E+02  0.54591069750E+01  0.30008365689E+03  0.30919356124E+03  0.00000000000E+00 0. -1.
         -5    1    5    5    0  501 -0.56952423961E+02  0.79820140423E+02  0.17101891487E+03  0.19719125908E+03  0.47000000000E+01 0.  1.
         11    1    6    6    0    0  0.65072837573E+01 -0.20188724414E+02  0.10890621983E+02  0.23843971618E+02  0.00000000000E+00 0. -1.
        -12    1    6    6    0    0 -0.73212572611E+00 -0.80542630842E+01  0.24375526109E+03  0.24388938983E+03  0.00000000000E+00 0.  1.
</event>
<event>
12    1  0.2614920E-002  0.1917480E+03  0.7818608E-02  0.1156894E+00
          2   -1    0    0  502    0  0.00000000000E+00  0.00000000000E+00  0.42922336889E+04  0.42922336889E+04  0.00000000000E+00 0. -1.
         -2   -1    0    0    0  501 -0.00000000000E+00 -0.00000000000E+00 -0.86289561608E+01  0.86289561608E+01  0.00000000000E+00 0.  1.
          6    2    1    2  502    0  0.50224143383E+02  0.68237125787E+02  0.23213245060E+04  0.23292000391E+04  0.17160008699E+03 0.  0.
         24    2    3    3    0    0  0.63745423611E+02  0.31032682177E+02  0.76560896760E+03  0.77297385946E+03  0.79403965514E+02 0.  0.
         -6    2    1    2    0  501 -0.50224143383E+02 -0.68237125787E+02  0.19622802268E+04  0.19716626060E+04  0.17242671998E+03 0.  0.
        -24    2    5    5    0    0  0.13422270066E+02 -0.17968075298E+02  0.42008484083E+03  0.42732891742E+03  0.75071440014E+02 0.  0.
          5    1    3    3  502    0 -0.13521280228E+02  0.37204443611E+02  0.15557155384E+04  0.15562261796E+04  0.47000000000E+01 0. -1.
        -13    1    4    4    0    0 -0.60292975457E+01 -0.19353633916E+02  0.13246627062E+03  0.13400831477E+03  0.00000000000E+00 0.  1.
         14    1    4    4    0    0  0.69774721156E+02  0.50386316092E+02  0.63314269698E+03  0.63896554469E+03  0.00000000000E+00 0. -1.
         -5    1    5    5    0  501 -0.63646413449E+02 -0.50269050490E+02  0.15421953859E+04  0.15443336886E+04  0.47000000000E+01 0.  1.
         13    1    6    6    0    0  0.78088769360E+01 -0.41774253430E+02  0.35934632585E+03  0.36185058893E+03  0.00000000000E+00 0. -1.
        -14    1    6    6    0    0  0.56133931300E+01  0.23806178133E+02  0.60738514973E+02  0.65478328483E+02  0.00000000000E+00 0.  1.
</event>
<event>
12    1  0.2614920E-002  0.1842312E+03  0.7818608E-02  0.1163770E+00
         -2   -1    0    0    0  501 -0.00000000000E+00  0.00000000000E+00  0.20377076741E+03  0.20377076741E+03  0.00000000000E+00 0.  1.
          2   -1    0    0  502    0  0.00000000000E+00 -0.00000000000E+00 -0.40096063763E+03  0.40096063763E+03  0.00000000000E+00 0. -1.
          6    2    1    2  502    0  0.34643011230E+02 -0.57894470905E+02  0.13257025030E+03  0.22703681905E+03  0.17151949729E+03 0.  0.
         24    2    3    3    0    0 -0.22638117091E+02 -0.40290813751E+02  0.13803788641E+03  0.16667953737E+03  0.81189753524E+02 0.  0.
         -6    2    1    2    0  501 -0.34643011230E+02  0.57894470905E+02 -0.32976012053E+03  0.37769458599E+03  0.17134630198E+03 0.  0.
        -24    2    5    5    0    0 -0.61077585964E+02  0.30389662712E+02 -0.32149966023E+03  0.33838013038E+03  0.80529982007E+02 0.  0.
          5    1    3    3  502    0  0.57281128322E+02 -0.17603657154E+02 -0.54676361020E+01  0.60357281678E+02  0.47000000000E+01 0. -1.
        -13    1    4    4    0    0  0.19534513487E+02 -0.30810541560E+02  0.21411454903E+02  0.42300556609E+02  0.00000000000E+00 0.  1.
         14    1    4    4    0    0 -0.42172630578E+02 -0.94802721909E+01  0.11662643150E+03  0.12437898076E+03  0.00000000000E+00 0. -1.
         -5    1    5    5    0  501  0.26434574733E+02  0.27504808193E+02 -0.82604603012E+01  0.39314455604E+02  0.47000000000E+01 0.  1.
         11    1    6    6    0    0 -0.21859276954E+02  0.55037974872E+02 -0.18115442586E+03  0.19058838547E+03  0.00000000000E+00 0. -1.
        -12    1    6    6    0    0 -0.39218309010E+02 -0.24648312160E+02 -0.14034523437E+03  0.14779174491E+03  0.00000000000E+00 0.  1.
</event>
<event>
12    1  0.2614920E-002  0.2046556E+03  0.7818608E-02  0.1145869E+00
         -1   -1    0    0    0  501 -0.00000000000E+00  0.00000000000E+00  0.20380205630E+03  0.20380205630E+03  0.00000000000E+00 0.  1.
          1   -1    0    0  502    0  0.00000000000E+00 -0.00000000000E+00 -0.20959750933E+03  0.20959750933E+03  0.00000000000E+00 0. -1.
          6    2    1    2  502    0  0.10667147501E+03  0.28383471809E+02  0.25940775346E+02  0.20485227731E+03  0.17060804975E+03 0.  0.
         24    2    3    3    0    0  0.15537959032E+02  0.66007935436E+02  0.11766301157E+02  0.10513305290E+03  0.79473500347E+02 0.  0.
         -6    2    1    2    0  501 -0.10667147501E+03 -0.28383471809E+02 -0.31736228376E+02  0.20854728833E+03  0.17406998082E+03 0.  0.
        -24    2    5    5    0    0 -0.85656497336E+02  0.18676353987E+02  0.36044111394E+02  0.12326821147E+03  0.78803757894E+02 0.  0.
          5    1    3    3  502    0  0.91133515982E+02 -0.37624463627E+02  0.14174474189E+02  0.99719224410E+02  0.47000000000E+01 0. -1.
        -13    1    4    4    0    0  0.20507466544E+02  0.54342901730E+02  0.42443640801E+02  0.71938653010E+02  0.00000000000E+00 0.  1.
         14    1    4    4    0    0 -0.49695075127E+01  0.11665033706E+02 -0.30677339644E+02  0.33194399888E+02  0.00000000000E+00 0. -1.
         -5    1    5    5    0  501 -0.21014977677E+02 -0.47059825796E+02 -0.67780339769E+02  0.85279076859E+02  0.47000000000E+01 0.  1.
         11    1    6    6    0    0 -0.31711667882E+02 -0.23960837383E+02 -0.94066147820E+01  0.40844044971E+02  0.00000000000E+00 0. -1.
        -12    1    6    6    0    0 -0.53944829454E+02  0.42637191371E+02  0.45450726176E+02  0.82424166497E+02  0.00000000000E+00 0.  1.
</event>
<event>
12    1  0.2614920E-002  0.1703509E+03  0.7818608E-02  0.1177482E+00
         -2   -1    0    0    0  501 -0.00000000000E+00  0.00000000000E+00  0.14847762132E+02  0.14847762132E+02  0.00000000000E+00 0. -1.
          2   -1    0    0  502    0  0.00000000000E+00 -0.00000000000E+00 -0.21248069475E+04  0.21248069475E+04  0.00000000000E+00 0.  1.
          6    2    1    2  502    0  0.34027651338E+01  0.51602809559E+02 -0.80323215704E+03  0.82288164095E+03  0.17110776762E+03 0.  0.
         24    2    3    3    0    0 -0.32183599328E+02  0.64121553071E+02 -0.74868329628E+03  0.75639272093E+03  0.80348693297E+02 0.  0.
         -6    2    1    2    0  501 -0.34027651338E+01 -0.51602809559E+02 -0.13067270283E+04  0.13167730686E+04  0.15388748838E+03 0.  0.
        -24    2    5    5    0    0 -0.12185485704E+02  0.59915670361E-01 -0.37714118348E+03  0.38569943770E+03  0.79875492603E+02 0.  0.
          5    1    3    3  502    0  0.35586364462E+02 -0.12518743512E+02 -0.54548860757E+02  0.66488920014E+02  0.47000000000E+01 0. -1.
        -11    1    4    4    0    0 -0.36232664857E+02  0.77974123451E+02 -0.50378684713E+03  0.51107138178E+03  0.00000000000E+00 0.  1.
         12    1    4    4    0    0  0.40490655292E+01 -0.13852570380E+02 -0.24489644915E+03  0.24532133915E+03  0.00000000000E+00 0. -1.
         -5    1    5    5    0  501  0.87827205704E+01 -0.51662725229E+02 -0.92958584481E+03  0.93107363094E+03  0.47000000000E+01 0.  1.
         13    1    6    6    0    0  0.21799714379E+02 -0.13344590527E+02 -0.46634209107E+02  0.53179461283E+02  0.00000000000E+00 0. -1.
        -14    1    6    6    0    0 -0.33985200084E+02  0.13404506197E+02 -0.33050697437E+03  0.33251997642E+03  0.00000000000E+00 0.  1.
</event>
<event>
12    1  0.2614920E-002  0.2169365E+03  0.7818608E-02  0.1136188E+00
          2   -1    0    0  502    0  0.00000000000E+00  0.00000000000E+00  0.27293395809E+03  0.27293395809E+03  0.00000000000E+00 0.  1.
         -2   -1    0    0    0  501 -0.00000000000E+00 -0.00000000000E+00 -0.28116829736E+03  0.28116829736E+03  0.00000000000E+00 0. -1.
          6    2    1    2  502    0  0.93725285764E+02 -0.89360841746E+02  0.16818586522E+03  0.27318715444E+03  0.17197368073E+03 0.  0.
         24    2    3    3    0    0  0.87068557891E+02 -0.54100956904E+02  0.34760564750E+02  0.13494109732E+03  0.80578877954E+02 0.  0.
         -6    2    1    2    0  501 -0.93725285764E+02  0.89360841746E+02 -0.17642020449E+03  0.28091510101E+03  0.17612329827E+03 0.  0.
        -24    2    5    5    0    0 -0.54708569024E+02  0.11949667490E+02 -0.16274980032E+02  0.98752050411E+02  0.79694858100E+02 0.  0.
          5    1    3    3  502    0  0.66567278736E+01 -0.35259884843E+02  0.13342530047E+03  0.13824605712E+03  0.47000000000E+01 0. -1.
        -11    1    4    4    0    0  0.78614365470E+02 -0.26117143804E+02  0.54955836382E+02  0.99410601101E+02  0.00000000000E+00 0.  1.
         12    1    4    4    0    0  0.84541924204E+01 -0.27983813100E+02 -0.20195271632E+02  0.35530496216E+02  0.00000000000E+00 0. -1.
         -5    1    5    5    0  501 -0.39016716740E+02  0.77411174257E+02 -0.16014522446E+03  0.18216305060E+03  0.47000000000E+01 0.  1.
         11    1    6    6    0    0 -0.52638876160E+02  0.25661963618E+02  0.18418907689E+02  0.61389280990E+02  0.00000000000E+00 0. -1.
        -12    1    6    6    0    0 -0.20696928647E+01 -0.13712296128E+02 -0.34693887720E+02  0.37362769421E+02  0.00000000000E+00 0.  1.
</event>
<event>
12    1  0.2614920E-002  0.3417906E+03  0.7818608E-02  0.1066036E+00
         -2   -1    0    0    0  501 -0.00000000000E+00  0.00000000000E+00  0.11864838158E+03  0.11864838158E+03  0.00000000000E+00 0. -1.
          2   -1    0    0  502    0  0.00000000000E+00 -0.00000000000E+00 -0.15401484518E+04  0.15401484518E+04  0.00000000000E+00 0.  1.
          6    2    1    2  502    0 -0.50493086042E+02  0.28914542236E+03 -0.21456781931E+03  0.40479772173E+03  0.17795285731E+03 0.  0.
         24    2    3    3    0    0 -0.99275560156E+02  0.24213963835E+03 -0.18057016340E+03  0.32885561142E+03  0.83983259910E+02 0.  0.
         -6    2    1    2    0  501  0.50493086042E+02 -0.28914542236E+03 -0.12069322509E+04  0.12539991116E+04  0.17226051985E+03 0.  0.
        -24    2    5    5    0    0 -0.81258703929E+01 -0.11960210827E+03 -0.31362472411E+03  0.34284514834E+03  0.69365943325E+02 0.  0.
          5    1    3    3  502    0  0.48782474115E+02  0.47005784006E+02 -0.33997655908E+02  0.75942110308E+02  0.47000000000E+01 0. -1.
        -13    1    4    4    0    0 -0.58549158864E+02  0.22023528735E+03 -0.14088408792E+03  0.26791773369E+03  0.00000000000E+00 0.  1.
         14    1    4    4    0    0 -0.40726401292E+02  0.21904351007E+02 -0.39686075476E+02  0.60937877728E+02  0.00000000000E+00 0. -1.
         -5    1    5    5    0  501  0.58618956435E+02 -0.16954331409E+03 -0.89330752679E+03  0.91115396329E+03  0.47000000000E+01 0.  1.
         13    1    6    6    0    0 -0.29762659036E+01  0.74441809607E+01 -0.61096662001E+01  0.10079782239E+02  0.00000000000E+00 0. -1.
        -14    1    6    6    0    0 -0.51496044894E+01 -0.12704628923E+03 -0.30751505791E+03  0.33276536610E+03  0.00000000000E+00 0.  1.
</event>
<event>
12    1  0.2614920E-002  0.2175961E+03  0.7818608E-02  0.1135688E+00
         -1   -1    0    0    0  501 -0.00000000000E+00  0.00000000000E+00  0.20294300812E+02  0.20294300812E+02  0.00000000000E+00 0.  1.
          1   -1    0    0  502    0  0.00000000000E+00 -0.00000000000E+00 -0.24267913764E+04  0.24267913764E+04  0.00000000000E+00 0. -1.
          6    2    1    2  502    0  0.13260724000E+03 -0.14581374851E+02 -0.14457547716E+04  0.14620959802E+04  0.17239634321E+03 0.  0.
         24    2    3    3    0    0  0.60208388077E+02 -0.48751870692E+02 -0.11589833286E+04  0.11643222959E+04  0.80014110491E+02 0.  0.
         -6    2    1    2    0  501 -0.13260724000E+03  0.14581374851E+02 -0.96074230399E+03  0.98498969701E+03  0.17141071125E+03 0.  0.
        -24    2    5    5    0    0 -0.12796962520E+03 -0.38733393963E+02 -0.82143558204E+03  0.83568321749E+03  0.75720035440E+02 0.  0.
          5    1    3    3  502    0  0.72398851927E+02  0.34170495840E+02 -0.28677144305E+03  0.29777368435E+03  0.47000000000E+01 0. -1.
        -13    1    4    4    0    0 -0.18292749343E+02 -0.21283355022E+01 -0.13029257263E+03  0.13158764749E+03  0.00000000000E+00 0.  1.
         14    1    4    4    0    0  0.78501137419E+02 -0.46623535189E+02 -0.10286907560E+04  0.10327346484E+04  0.00000000000E+00 0. -1.
         -5    1    5    5    0  501 -0.46376148083E+01  0.53314768814E+02 -0.13930672195E+03  0.14930647952E+03  0.47000000000E+01 0.  1.
         13    1    6    6    0    0 -0.10274366657E+03 -0.42598468318E+02 -0.77275911360E+03  0.78072244632E+03  0.00000000000E+00 0. -1.
        -14    1    6    6    0    0 -0.25225958625E+02  0.38650743556E+01 -0.48676468440E+02  0.54960771174E+02  0.00000000000E+00 0.  1.
</event>
<event>
12    1  0.2614920E-002  0.1788597E+03  0.7818608E-02  0.1168911E+00
         -2   -1    0    0    0  501 -0.00000000000E+00  0.00000000000E+00  0.41092173695E+02  0.41092173695E+02  0.00000000000E+00 0. -1.
          2   -1    0    0  502    0  0.00000000000E+00 -0.00000000000E+00 -0.92413515128E+03  0.92413515128E+03  0.00000000000E+00 0.  1.
          6    2    1    2  502    0  0.46105947739E+02  0.98878422024E+01 -0.62593901960E+03  0.65008973875E+03  0.16909608019E+03 0.  0.
         24    2    3    3    0    0 -0.12199257707E+02  0.24032032485E+02 -0.18347286316E+03  0.20354976888E+03  0.83927685666E+02 0.  0.
         -6    2    1    2    0  501 -0.46105947739E+02 -0.98878422024E+01 -0.25710395798E+03  0.31513758622E+03  0.17602762623E+03 0.  0.
        -24    2    5    5    0    0 -0.60472522932E+02  0.34755705243E+02 -0.24321774235E+03  0.26600143053E+03  0.82079265189E+02 0.  0.
          5    1    3    3  502    0  0.58305205446E+02 -0.14144190283E+02 -0.44246615644E+03  0.44653996987E+03  0.47000000000E+01 0. -1.
        -11    1    4    4    0    0  0.33541701920E+02 -0.50589422820E+01 -0.72719532723E+02  0.80241941054E+02  0.00000000000E+00 0.  1.
         12    1    4    4    0    0 -0.45740959626E+02  0.29090974767E+02 -0.11075333044E+03  0.12330782783E+03  0.00000000000E+00 0. -1.
         -5    1    5    5    0  501  0.14366575193E+02 -0.44643547446E+02 -0.13886215636E+02  0.49136155690E+02  0.47000000000E+01 0.  1.
         13    1    6    6    0    0  0.53786263899E+01  0.33661255584E+02 -0.40950238675E+02  0.53281627198E+02  0.00000000000E+00 0. -1.
        -14    1    6    6    0    0 -0.65851149322E+02  0.10944496589E+01 -0.20226750367E+03  0.21271980333E+03  0.00000000000E+00 0.  1.
</event>
<event>
12    1  0.2614920E-002  0.2097022E+03  0.7818608E-02  0.1141802E+00
         -2   -1    0    0    0  501 -0.00000000000E+00  0.00000000000E+00  0.74440339042E+03  0.74440339042E+03  0.00000000000E+00 0.  1.
          2   -1    0    0  502    0  0.00000000000E+00 -0.00000000000E+00 -0.87748207623E+02  0.87748207623E+02  0.00000000000E+00 0. -1.
          6    2    1    2  502    0  0.21721544655E+02  0.11690907302E+03  0.56628733436E+03  0.60390497674E+03  0.17285924626E+03 0.  0.
         24    2    3    3    0    0 -0.38707767223E+01  0.14824468120E+03  0.43509331603E+03  0.46653377270E+03  0.79725146606E+02 0.  0.
         -6    2    1    2    0  501 -0.21721544655E+02 -0.11690907302E+03  0.90367848436E+02  0.22824662130E+03  0.17259958067E+03 0.  0.
        -24    2    5    5    0    0 -0.37293737977E+02 -0.11630440571E+03  0.12341173081E+03  0.19141121728E+03  0.80562156858E+02 0.  0.
          5    1    3    3  502    0  0.25592321377E+02 -0.31335608175E+02  0.13119401833E+03  0.13737120404E+03  0.47000000000E+01 0. -1.
        -13    1    4    4    0    0 -0.22404341519E+02  0.75970265063E+02  0.31778948505E+03  0.32751120973E+03  0.00000000000E+00 0.  1.
         14    1    4    4    0    0  0.18533564797E+02  0.72274416134E+02  0.11730383098E+03  0.13902256297E+03  0.00000000000E+00 0. -1.
         -5    1    5    5    0  501  0.15572193322E+02 -0.60466731370E+00 -0.33043882375E+02  0.36835404027E+02  0.47000000000E+01 0.  1.
         11    1    6    6    0    0 -0.39536234786E+02 -0.49157655217E+02  0.16607633617E+02  0.65233445577E+02  0.00000000000E+00 0. -1.
        -12    1    6    6    0    0  0.22424968089E+01 -0.67146750492E+02  0.10680409719E+03  0.12617777170E+03  0.00000000000E+00 0.  1.
</event>
<event>
12    1  0.2614920E-002  0.2269720E+03  0.7818608E-02  0.1128789E+00
          1   -1    0    0  502    0  0.00000000000E+00  0.00000000000E+00  0.31653676052E+03  0.31653676052E+03  0.00000000000E+00 0. -1.
         -1   -1    0    0    0  501 -0.00000000000E+00 -0.00000000000E+00 -0.16402407293E+03  0.16402407293E+03  0.00000000000E+00 0.  1.
          6    2    1    2  502    0  0.64984344193E+02  0.13222482425E+03  0.55220838443E+02  0.23399786485E+03  0.17320303294E+03 0.  0.
         24    2    3    3    0    0 -0.55642422844E+01  0.12560040584E+03  0.75304611050E+01  0.14845578127E+03  0.78587457062E+02 0.  0.
         -6    2    1    2    0  501 -0.64984344193E+02 -0.13222482425E+03  0.97291849154E+02  0.24656296860E+03  0.17210817655E+03 0.  0.
        -24    2    5    5    0    0 -0.73746985808E+02 -0.16146877549E+03  0.91003199838E+02  0.21504107649E+03  0.80313752395E+02 0.  0.
          5    1    3    3  502    0  0.70548586477E+02  0.66244184030E+01  0.47690377338E+02  0.85542083583E+02  0.47000000000E+01 0. -1.
        -11    1    4    4    0    0  0.25192501844E+02  0.76970382073E+02 -0.21800689955E+02  0.83871162793E+02  0.00000000000E+00 0.  1.
         12    1    4    4    0    0 -0.30756744128E+02  0.48630023770E+02  0.29331151060E+02  0.64584618476E+02  0.00000000000E+00 0. -1.
         -5    1    5    5    0  501  0.87626416158E+01  0.29243951239E+02  0.62886493156E+01  0.31521892113E+02  0.47000000000E+01 0.  1.
         13    1    6    6    0    0 -0.12729171884E+01 -0.77797585555E+02  0.11270164374E+02  0.78619979912E+02  0.00000000000E+00 0. -1.
        -14    1    6    6    0    0 -0.72474068620E+02 -0.83671189930E+02  0.79733035464E+02  0.13642109658E+03  0.00000000000E+00 0.  1.
</event>
<event>
12    1  0.2614920E-002  0.1753262E+03  0.7818608E-02  0.1172405E+00
          1   -1    0    0  502    0  0.00000000000E+00  0.00000000000E+00  0.61079544417E+03  0.61079544417E+03  0.00000000000E+00 0.  1.
         -1   -1    0    0    0  501 -0.00000000000E+00 -0.00000000000E+00 -0.76743083709E+02  0.76743083709E+02  0.00000000000E+00 0. -1.
          6    2    1    2  502    0  0.15507788159E+02 -0.28735566050E+02  0.65860790230E+02  0.18777882333E+03  0.17279183589E+03 0.  0.
         24    2    3    3    0    0  0.67757668228E+01  0.31835510202E+02  0.87585770845E+02  0.12266992795E+03  0.79481024420E+02 0.  0.
         -6    2    1    2    0  501 -0.15507788159E+02  0.28735566050E+02  0.46819157023E+03  0.49975970455E+03  0.17172708466E+03 0.  0.
        -24    2    5    5    0    0  0.37439452388E+02 -0.31807452318E+02  0.22418208337E+03  0.24279358415E+03  0.79231883625E+02 0.  0.
          5    1    3    3  502    0  0.87320213360E+01 -0.60571076252E+02 -0.21724980615E+02  0.65108895380E+02  0.47000000000E+01 0. -1.
        -13    1    4    4    0    0  0.79438956461E+01 -0.25884062495E+02  0.37417538546E+02  0.46186170659E+02  0.00000000000E+00 0.  1.
         14    1    4    4    0    0 -0.11681288233E+01  0.57719572697E+02  0.50168232299E+02  0.76483757290E+02  0.00000000000E+00 0. -1.
         -5    1    5    5    0  501 -0.52947240546E+02  0.60543018368E+02  0.24400948686E+03  0.25696612040E+03  0.47000000000E+01 0.  1.
         11    1    6    6    0    0  0.49379626556E+02  0.93836011587E+01  0.11606291842E+03  0.12647924937E+03  0.00000000000E+00 0. -1.
        -12    1    6    6    0    0 -0.11940174168E+02 -0.41191053477E+02  0.10811916495E+03  0.11631433478E+03  0.00000000000E+00 0.  1.
</event>
<event>
12    1  0.2614920E-002  0.2326706E+03  0.7818608E-02  0.1124774E+00
          2   -1    0    0  502    0  0.00000000000E+00  0.00000000000E+00  0.12731287904E+04  0.12731287904E+04  0.00000000000E+00 0. -1.
         -2   -1    0    0    0  501 -0.00000000000E+00 -0.00000000000E+00 -0.94562384870E+02  0.94562384870E+02  0.00000000000E+00 0.  1.
          6    2    1    2  502    0  0.14067556182E+03  0.69064128507E+02  0.81898048842E+02  0.24659825635E+03  0.17188351313E+03 0.  0.
         24    2    3    3    0    0  0.14363226703E+03  0.10449495633E+03  0.57034014572E+02  0.20295887200E+03  0.79937481035E+02 0.  0.
         -6    2    1    2    0  501 -0.14067556182E+03 -0.69064128507E+02  0.10966683567E+04  0.11210929190E+04  0.17207085972E+03 0.  0.
        -24    2    5    5    0    0 -0.16440739458E+03 -0.81023346145E+02  0.10252200380E+04  0.10447176937E+04  0.82245725591E+02 0.  0.
          5    1    3    3  502    0 -0.29567052081E+01 -0.35430827822E+02  0.24864034271E+02  0.43639384346E+02  0.47000000000E+01 0. -1.
        -13    1    4    4    0    0  0.92423939869E+02  0.60811206611E+02 -0.59248360990E+01  0.11079391316E+03  0.00000000000E+00 0.  1.
         14    1    4    4    0    0  0.51208327164E+02  0.43683749718E+02  0.62958850671E+02  0.92164958841E+02  0.00000000000E+00 0. -1.
         -5    1    5    5    0  501  0.23731832757E+02  0.11959217638E+02  0.71448318770E+02  0.76375225221E+02  0.47000000000E+01 0.  1.
         11    1    6    6    0    0 -0.12327018498E+03 -0.90676391170E+02  0.88965002924E+03  0.90271530449E+03  0.00000000000E+00 0. -1.
        -12    1    6    6    0    0 -0.41137209602E+02  0.96530450250E+01  0.13557000871E+03  0.14200238925E+03  0.00000000000E+00 0.  1.
</event>
<event>
12    1  0.2614920E-002  0.2948906E+03  0.7818608E-02  0.1087823E+00
          1   -1    0    0  502    0  0.00000000000E+00  0.00000000000E+00  0.68831804121E+03  0.68831804121E+03  0.00000000000E+00 0. -1.
         -1   -1    0    0    0  501 -0.00000000000E+00 -0.00000000000E+00 -0.12829599790E+03  0.12829599790E+03  0.00000000000E+00 0.  1.
          6    2    1    2  502    0 -0.23907416440E+03  0.26739600808E+02  0.33108137293E+03  0.44381913165E+03  0.17172385909E+03 0.  0.
         24    2    3    3    0    0 -0.13453680429E+03  0.50230070084E+02  0.27880444265E+03  0.32450932801E+03  0.83373707313E+02 0.  0.
         -6    2    1    2    0  501  0.23907416440E+03 -0.26739600808E+02  0.22894067038E+03  0.37279490746E+03  0.16938344117E+03 0.  0.
        -24    2    5    5    0    0  0.78032301001E+02  0.32601878674E+02  0.13088133118E+03  0.17507384901E+03  0.79806060307E+02 0.  0.
          5    1    3    3  502    0 -0.10453736011E+03 -0.23490469276E+02  0.52276930280E+02  0.11930980364E+03  0.47000000000E+01 0. -1.
        -13    1    4    4    0    0 -0.59777801571E+02  0.66055442365E+02  0.13683070402E+03  0.16327690771E+03  0.00000000000E+00 0.  1.
         14    1    4    4    0    0 -0.74759002717E+02 -0.15825372281E+02  0.14197373863E+03  0.16123242030E+03  0.00000000000E+00 0. -1.
         -5    1    5    5    0  501  0.16104186340E+03 -0.59341479481E+02  0.98059339200E+02  0.19772105846E+03  0.47000000000E+01 0.  1.
         11    1    6    6    0    0  0.32385815703E+02  0.10381179717E+02 -0.72326553183E+00  0.34016658626E+02  0.00000000000E+00 0. -1.
        -12    1    6    6    0    0  0.45646485298E+02  0.22220698957E+02  0.13160459671E+03  0.14105719038E+03  0.00000000000E+00 0.  1.
</event>
<event>
12    1  0.2614920E-002  0.4291982E+03  0.7818608E-02  0.1034114E+00
         -1   -1    0    0    0  501 -0.00000000000E+00  0.00000000000E+00  0.12660365357E+03  0.12660365357E+03  0.00000000000E+00 0.  1.
          1   -1    0    0  502    0  0.00000000000E+00 -0.00000000000E+00 -0.15965687797E+04  0.15965687797E+04  0.00000000000E+00 0. -1.
          6    2    1    2  502    0  0.38747239425E+03 -0.66527187029E+02 -0.47834309782E+03  0.64262627341E+03  0.17203396505E+03 0.  0.
         24    2    3    3    0    0  0.27293111615E+03  0.18947240567E+02 -0.28929374009E+03  0.40558760184E+03  0.77201312341E+02 0.  0.
         -6    2    1    2    0  501 -0.38747239425E+03  0.66527187029E+02 -0.99162202827E+03  0.10805461598E+04  0.17235148281E+03 0.  0.
        -24    2    5    5    0    0 -0.35919961273E+03  0.32990076291E+02 -0.76246792236E+03  0.84718424727E+03  0.79063956890E+02 0.  0.
          5    1    3    3  502    0  0.11454127810E+03 -0.85474427597E+02 -0.18904935773E+03  0.23703867157E+03  0.47000000000E+01 0. -1.
        -11    1    4    4    0    0  0.22716191162E+03 -0.14046469844E+02 -0.23851502733E+03  0.32968053577E+03  0.00000000000E+00 0.  1.
         12    1    4    4    0    0  0.45769204530E+02  0.32993710411E+02 -0.50778712763E+02  0.75907066073E+02  0.00000000000E+00 0. -1.
         -5    1    5    5    0  501 -0.28272781517E+02  0.33537110738E+02 -0.22915410591E+03  0.23336191255E+03  0.47000000000E+01 0.  1.
         11    1    6    6    0    0 -0.26112709258E+03  0.13059820746E+02 -0.62196124203E+03  0.67468044583E+03  0.00000000000E+00 0. -1.
        -12    1    6    6    0    0 -0.98072520151E+02  0.19930255545E+02 -0.14050668033E+03  0.17250380144E+03  0.00000000000E+00 0.  1.
</event>
<event>
12    1  0.2614920E-002  0.2064241E+03  0.7818608E-02  0.1144429E+00
         -1   -1    0    0    0  501 -0.00000000000E+00  0.00000000000E+00  0.18571717603E+03  0.18571717603E+03  0.00000000000E+00 0. -1.
          1   -1    0    0  502    0  0.00000000000E+00 -0.00000000000E+00 -0.24807903625E+03  0.24807903625E+03  0.00000000000E+00 0.  1.
          6    2    1    2  502    0 -0.10998497170E+03 -0.30577434914E+02  0.28289789251E+02  0.20822906579E+03  0.17183526454E+03 0.  0.
         24    2    3    3    0    0 -0.13990638123E+03 -0.32790919404E+02  0.48891638702E+02  0.17153143013E+03  0.79897429767E+02 0.  0.
         -6    2    1    2    0  501  0.10998497170E+03  0.30577434914E+02 -0.90651649475E+02  0.22556714649E+03  0.17213698759E+03 0.  0.
        -24    2    5    5    0    0  0.14108181926E+03  0.49811383304E+02 -0.79243100243E+02  0.18697694443E+03  0.79345164816E+02 0.  0.
          5    1    3    3  502    0  0.29921409537E+02  0.22134844909E+01 -0.20601849451E+02  0.36697635661E+02  0.47000000000E+01 0. -1.
        -11    1    4    4    0    0 -0.38917468710E+02  0.26540672644E+02  0.10396964004E+02  0.48239750577E+02  0.00000000000E+00 0.  1.
         12    1    4    4    0    0 -0.10098891252E+03 -0.59331592049E+02  0.38494674699E+02  0.12329167956E+03  0.00000000000E+00 0. -1.
         -5    1    5    5    0  501 -0.31096847564E+02 -0.19233948390E+02 -0.11408549233E+02  0.38590202056E+02  0.47000000000E+01 0.  1.
         11    1    6    6    0    0  0.14531862974E+03  0.29189147688E+02 -0.71260022289E+02  0.16446124550E+03  0.00000000000E+00 0. -1.
        -12    1    6    6    0    0 -0.42368104833E+01  0.20622235616E+02 -0.79830779537E+01  0.22515698934E+02  0.00000000000E+00 0.  1.
</event>
<event>
12    1  0.2614920E-002  0.2200529E+03  0.7818608E-02  0.1133844E+00
          1   -1    0    0  502    0  0.00000000000E+00  0.00000000000E+00  0.13639780658E+04  0.13639780658E+04  0.00000000000E+00 0.  1.
         -1   -1    0    0    0  501 -0.00000000000E+00 -0.00000000000E+00 -0.40527036459E+02  0.40527036459E+02  0.00000000000E+00 0. -1.
          6    2    1    2  502    0 -0.12604784783E+03 -0.56787180523E+02  0.41521058198E+03  0.47005638349E+03  0.17158185354E+03 0.  0.
         24    2    3    3    0    0 -0.10732154856E+03 -0.94788208373E+02  0.38072091551E+03  0.41522592212E+03  0.83435194354E+02 0.  0.
         -6    2    1    2    0  501  0.12604784783E+03  0.56787180523E+02  0.90824044740E+03  0.93444871880E+03  0.17082404385E+03 0.  0.
        -24    2    5    5    0    0  0.14501777789E+03  0.84449065844E+02  0.77142355964E+03  0.79350195962E+03  0.79932790109E+02 0.  0.
          5    1    3    3  502    0 -0.18726299275E+02  0.38001027849E+02  0.34489666463E+02  0.54830461378E+02  0.47000000000E+01 0. -1.
        -11    1    4    4    0    0 -0.10694113914E+03 -0.45191451402E+02  0.27017918623E+03  0.29406711341E+03  0.00000000000E+00 0.  1.
         12    1    4    4    0    0 -0.38040942185E+00 -0.49596756971E+02  0.11054172929E+03  0.12115880871E+03  0.00000000000E+00 0. -1.
         -5    1    5    5    0  501 -0.18969930054E+02 -0.27661885321E+02  0.13681688776E+03  0.14094675918E+03  0.47000000000E+01 0.  1.
         13    1    6    6    0    0  0.10351264966E+03  0.77810805637E+02  0.41831439972E+03  0.43789990537E+03  0.00000000000E+00 0. -1.
        -14    1    6    6    0    0  0.41505128230E+02  0.66382602069E+01  0.35310915992E+03  0.35560205425E+03  0.00000000000E+00 0.  1.
</event>
<event>
12    1  0.2614920E-002  0.2944159E+03  0.7818608E-02  0.1088066E+00
          1   -1    0    0  502    0  0.00000000000E+00  0.00000000000E+00  0.10052832163E+04  0.10052832163E+04  0.00000000000E+00 0.  1.
         -1   -1    0    0    0  501 -0.00000000000E+00 -0.00000000000E+00 -0.86253561364E+02  0.86253561364E+02  0.00000000000E+00 0. -1.
          6    2    1    2  502    0 -0.14539040426E+03  0.18978185498E+03  0.44981038148E+03  0.53766584387E+03  0.17204551215E+03 0.  0.
         24    2    3    3    0    0 -0.10956239522E+02  0.30465799147E+02  0.12791292774E+03  0.15413721259E+03  0.79676590779E+02 0.  0.
         -6    2    1    2    0  501  0.14539040426E+03 -0.18978185498E+03  0.46921927342E+03  0.55387093375E+03  0.17161224482E+03 0.  0.
        -24    2    5    5    0    0  0.14492162180E+03 -0.89275644709E+02  0.34906477526E+03  0.39715172150E+03  0.83131554538E+02 0.  0.
          5    1    3    3  502    0 -0.13443416474E+03  0.15931605584E+03  0.32189745373E+03  0.38352863129E+03  0.47000000000E+01 0. -1.
        -13    1    4    4    0    0 -0.24947942680E+02  0.42697075864E+01  0.12103432972E+03  0.12365249377E+03  0.00000000000E+00 0.  1.
         14    1    4    4    0    0  0.13991703158E+02  0.26196091560E+02  0.68785980284E+01  0.30484718813E+02  0.00000000000E+00 0. -1.
         -5    1    5    5    0  501  0.46878246408E+00 -0.10050621027E+03  0.12015449816E+03  0.15671921225E+03  0.47000000000E+01 0.  1.
         11    1    6    6    0    0  0.28325417360E+02 -0.56856932530E+02  0.16562669363E+03  0.17739008340E+03  0.00000000000E+00 0. -1.
        -12    1    6    6    0    0  0.11659620444E+03 -0.32418712179E+02  0.18343808163E+03  0.21976163810E+03  0.00000000000E+00 0.  1.
</event>
<event>
12    1  0.2614920E-002  0.1746290E+03  0.7818608E-02  0.1173105E+00
         -2   -1    0    0    0  501 -0.00000000000E+00  0.00000000000E+00  0.42449546157E+02  0.42449546157E+02  0.00000000000E+00 0.  1.
          2   -1    0    0  502    0  0.00000000000E+00 -0.00000000000E+00 -0.78331445468E+03  0.78331445468E+03  0.00000000000E+00 0. -1.
          6    2    1    2  502    0  0.33129766475E+02  0.28709587148E+00 -0.49020589614E+03  0.52053913444E+03  0.17193459809E+03 0.  0.
         24    2    3    3    0    0  0.60512111713E+02 -0.39706782413E+02 -0.39730622259E+03  0.41564994302E+03  0.98358001147E+02 0.  0.
         -6    2    1    2    0  501 -0.33129766475E+02 -0.28709587148E+00 -0.25065901238E+03  0.30522486640E+03  0.17098132860E+03 0.  0.
        -24    2    5    5    0    0  0.37728534715E+02  0.22642656782E+02 -0.93455380362E+02  0.13120836050E+03  0.80904842307E+02 0.  0.
          5    1    3    3  502    0 -0.27382345237E+02  0.39993878284E+02 -0.92899673551E+02  0.10488919142E+03  0.47000000000E+01 0. -1.
        -11    1    4    4    0    0 -0.13995939641E+02  0.21342001992E+02 -0.95004873083E+02  0.98373234596E+02  0.00000000000E+00 0.  1.
         12    1    4    4    0    0  0.74508051354E+02 -0.61048784405E+02 -0.30230134950E+03  0.31727670842E+03  0.00000000000E+00 0. -1.
         -5    1    5    5    0  501 -0.70858301190E+02 -0.22929752653E+02 -0.15720363202E+03  0.17401650590E+03  0.47000000000E+01 0.  1.
         11    1    6    6    0    0  0.61625560275E+02  0.24937223176E+02 -0.78736099714E+02  0.10304828081E+03  0.00000000000E+00 0. -1.
        -12    1    6    6    0    0 -0.23897025561E+02 -0.22945663939E+01 -0.14719280648E+02  0.28160079694E+02  0.00000000000E+00 0.  1.
</event>
<event>
12    1  0.2614920E-002  0.1782743E+03  0.7818608E-02  0.1169484E+00
          2   -1    0    0  502    0  0.00000000000E+00  0.00000000000E+00  0.30030170685E+03  0.30030170685E+03  0.00000000000E+00 0.  1.
         -2   -1    0    0    0  501 -0.00000000000E+00 -0.00000000000E+00 -0.13248652319E+03  0.13248652319E+03  0.00000000000E+00 0. -1.
          6    2    1    2  502    0 -0.50354513499E+02  0.51068216638E+00  0.18133304485E+03  0.25498809161E+03  0.17205062012E+03 0.  0.
         24    2    3    3    0    0 -0.37643562555E+02 -0.21753786018E+02  0.20137912859E+03  0.22210632933E+03  0.82990379503E+02 0.  0.
         -6    2    1    2    0  501  0.50354513499E+02 -0.51068216638E+00 -0.13517861188E+02  0.17780013842E+03  0.16998328984E+03 0.  0.
        -24    2    5    5    0    0 -0.58753246431E+00  0.42298090091E+02  0.33575046431E+02  0.96145285675E+02  0.79543438415E+02 0.  0.
          5    1    3    3  502    0 -0.12710950944E+02  0.22264468185E+02 -0.20046083739E+02  0.32881762281E+02  0.47000000000E+01 0. -1.
        -11    1    4    4    0    0 -0.16523469812E+02  0.27435690644E+02  0.12362537097E+03  0.12770659546E+03  0.00000000000E+00 0.  1.
         12    1    4    4    0    0 -0.21120092743E+02 -0.49189476662E+02  0.77753757618E+02  0.94399733874E+02  0.00000000000E+00 0. -1.
         -5    1    5    5    0  501  0.50942045964E+02 -0.42808772257E+02 -0.47092907619E+02  0.81654852747E+02  0.47000000000E+01 0.  1.
         13    1    6    6    0    0 -0.17800433524E+02  0.55828108154E+02  0.31767200660E+01  0.58683256932E+02  0.00000000000E+00 0. -1.
        -14    1    6    6    0    0  0.17212901060E+02 -0.13530018064E+02  0.30398326365E+02  0.37462028743E+02  0.00000000000E+00 0.  1.
</event>
<event>
12    1  0.2614920E-002  0.2020772E+03  0.7818608E-02  0.1147998E+00
         -2   -1    0    0    0  501 -0.00000000000E+00  0.00000000000E+00  0.48293812856E+02  0.48293812856E+02  0.00000000000E+00 0. -1.
          2   -1    0    0  502    0  0.00000000000E+00 -0.00000000000E+00 -0.87447454518E+03  0.87447454518E+03  0.00000000000E+00 0.  1.
          6    2    1    2  502    0  0.28415019107E+02 -0.10235234302E+03 -0.33057727635E+03  0.38781196776E+03  0.17272339524E+03 0.  0.
         24    2    3    3    0    0 -0.47094168228E+02 -0.84019291276E+02 -0.20423864435E+03  0.23941628691E+03  0.79558988207E+02 0.  0.
         -6    2    1    2    0  501 -0.28415019107E+02  0.10235234302E+03 -0.49560345598E+03  0.53495639028E+03  0.17109102400E+03 0.  0.
        -24    2    5    5    0    0 -0.12295759294E+02  0.13579420766E+03 -0.44207525210E+03  0.46964523152E+03  0.80900324139E+02 0.  0.
          5    1    3    3  502    0  0.75509187335E+02 -0.18333051745E+02 -0.12633863200E+03  0.14839568084E+03  0.47000000000E+01 0. -1.
        -13    1    4    4    0    0 -0.30575893157E+02  0.56583252621E+01 -0.32554699797E+02  0.45019000056E+02  0.00000000000E+00 0.  1.
         14    1    4    4    0    0 -0.16518275071E+02 -0.89677616538E+02 -0.17168394455E+03  0.19439728685E+03  0.00000000000E+00 0. -1.
         -5    1    5    5    0  501 -0.16119259813E+02 -0.33441864642E+02 -0.53528203883E+02  0.65311158761E+02  0.47000000000E+01 0.  1.
         13    1    6    6    0    0 -0.21463419444E+02  0.18125904713E+02 -0.30433380813E+02  0.41417598477E+02  0.00000000000E+00 0. -1.
        -14    1    6    6    0    0  0.91676601492E+01  0.11766830295E+03 -0.41164187128E+03  0.42822763305E+03  0.00000000000E+00 0.  1.
</event>
<event>
12    1  0.2614920E-002  0.2799122E+03  0.7818608E-02  0.1095737E+00
         -2   -1    0    0    0  501 -0.00000000000E+00  0.00000000000E+00  0.75011444923E+02  0.75011444923E+02  0.00000000000E+00 0. -1.
          2   -1    0    0  502    0  0.00000000000E+00 -0.00000000000E+00 -0.15702111321E+04  0.15702111321E+04  0.00000000000E+00 0.  1.
          6    2    1    2  502    0  0.12002388713E+03  0.18430552807E+03 -0.12240390816E+04  0.12556949986E+04  0.17356265479E+03 0.  0.
         24    2    3    3    0    0  0.80500423409E+01  0.80642534639E+02 -0.73011246093E+03  0.73871361141E+03  0.77881785445E+02 0.  0.
         -6    2    1    2    0  501 -0.12002388713E+03 -0.18430552807E+03 -0.27116060551E+03  0.38952757833E+03  0.17271189635E+03 0.  0.
        -24    2    5    5    0    0 -0.89376347095E+02 -0.31795589257E+02 -0.80910867120E+02  0.14373171566E+03  0.71506270727E+02 0.  0.
          5    1    3    3  502    0  0.11197384479E+03  0.10366299343E+03 -0.49392662069E+03  0.51698138723E+03  0.47000000000E+01 0. -1.
        -13    1    4    4    0    0  0.68024672969E+01  0.77593237957E+02 -0.34897585223E+03  0.35756276313E+03  0.00000000000E+00 0.  1.
         14    1    4    4    0    0  0.12475750440E+01  0.30492966823E+01 -0.38113660869E+03  0.38115084827E+03  0.00000000000E+00 0. -1.
         -5    1    5    5    0  501 -0.30647540032E+02 -0.15250993881E+03 -0.19024973839E+03  0.24579586267E+03  0.47000000000E+01 0.  1.
         11    1    6    6    0    0 -0.57083482729E+02 -0.54315473100E+02 -0.46838225841E+02  0.91665227968E+02  0.00000000000E+00 0. -1.
        -12    1    6    6    0    0 -0.32292864367E+02  0.22519883843E+02 -0.34072641279E+02  0.52066487696E+02  0.00000000000E+00 0.  1.
</event>
<event>
12    1  0.2614920E-002  0.1845819E+03  0.7818608E-02  0.1163441E+00
         -2   -1    0    0    0  501 -0.00000000000E+00  0.00000000000E+00  0.96110984569E+02  0.96110984569E+02  0.00000000000E+00 0.  1.
          2   -1    0    0  502    0  0.00000000000E+00 -0.00000000000E+00 -0.35866624855E+03  0.35866624855E+03  0.00000000000E+00 0. -1.
          6    2    1    2  502    0  0.44287125345E+02 -0.48182328958E+02 -0.15560244104E+03  0.24119314191E+03  0.17227630641E+03 0.  0.
         24    2    3    3    0    0  0.49346478424E+01 -0.38115565068E+02 -0.12887407673E+02  0.92735646410E+02  0.83406641155E+02 0.  0.
         -6    2    1    2    0  501 -0.44287125345E+02  0.48182328958E+02 -0.10695282295E+03  0.21358409122E+03  0.17290567194E+03 0.  0.
        -24    2    5    5    0    0 -0.60074545933E+02  0.78265581734E+02 -0.35184649590E+02  0.13404161543E+03  0.83634578664E+02 0.  0.
          5    1    3    3  502    0  0.39352477502E+02 -0.10066763890E+02 -0.14271503336E+03  0.14845749549E+03  0.47000000000E+01 0. -1.
        -13    1    4    4    0    0 -0.34092122586E+00  0.21390040272E+02  0.15673810583E+02  0.26520150609E+02  0.00000000000E+00 0.  1.
         14    1    4    4    0    0  0.52755690683E+01 -0.59505605340E+02 -0.28561218256E+02  0.66215495801E+02  0.00000000000E+00 0. -1.
         -5    1    5    5    0  501  0.15787420589E+02 -0.30083252775E+02 -0.71768173360E+02  0.79542475784E+02  0.47000000000E+01 0.  1.
         11    1    6    6    0    0 -0.16257958690E+02  0.62472214430E+02 -0.53651770209E+02  0.83938139383E+02  0.00000000000E+00 0. -1.
        -12    1    6    6    0    0 -0.43816587244E+02  0.15793367304E+02  0.18467120619E+02  0.50103476051E+02  0.00000000000E+00 0.  1.
</event>
<event>
12    1  0.2614920E-002  0.1897108E+03  0.7818608E-02  0.1158722E+00
          2   -1    0    0  502    0  0.00000000000E+00  0.00000000000E+00  0.16335197681E+03  0.16335197681E+03  0.00000000000E+00 0. -1.
         -2   -1    0    0    0  501 -0.00000000000E+00 -0.00000000000E+00 -0.22735505179E+03  0.22735505179E+03  0.00000000000E+00 0.  1.
          6    2    1    2  502    0 -0.67327345541E+02 -0.35211222285E+02 -0.66295173065E+02  0.20060921121E+03  0.17342492329E+03 0.  0.
         24    2    3    3    0    0  0.27031877324E+02 -0.13798829423E+02 -0.94916842311E+01  0.88311037353E+02  0.82386996327E+02 0.  0.
         -6    2    1    2    0  501  0.67327345541E+02  0.35211222285E+02  0.22920980842E+01  0.19009781739E+03  0.17423870072E+03 0.  0.
        -24    2    5    5    0    0  0.32968595687E+02  0.48429029365E+02  0.66582530772E+02  0.11586451050E+03  0.74559051785E+02 0.  0.
          5    1    3    3  502    0 -0.94359222864E+02 -0.21412392861E+02 -0.56803488834E+02  0.11229817386E+03  0.47000000000E+01 0. -1.
        -13    1    4    4    0    0  0.27720024766E+02 -0.39608713697E+02 -0.28617109236E+02  0.56179968981E+02  0.00000000000E+00 0.  1.
         14    1    4    4    0    0 -0.68814744268E+00  0.25809884273E+02  0.19125425005E+02  0.32131068372E+02  0.00000000000E+00 0. -1.
         -5    1    5    5    0  501  0.34358749854E+02 -0.13217807081E+02 -0.64290432688E+02  0.74233306882E+02  0.47000000000E+01 0.  1.
         11    1    6    6    0    0  0.26276971819E+02 -0.15123711947E+02  0.27660667980E+02  0.41040449122E+02  0.00000000000E+00 0. -1.
        -12    1    6    6    0    0  0.66916238677E+01  0.63552741312E+02  0.38921862792E+02  0.74824061380E+02  0.00000000000E+00 0.  1.
</event>
<event>
12    1  0.2614920E-002  0.1831719E+03  0.7818608E-02  0.1164768E+00
          2   -1    0    0  502    0  0.00000000000E+00  0.00000000000E+00  0.77578751467E+03  0.77578751467E+03  0.00000000000E+00 0. -1.
         -2   -1    0    0    0  501 -0.00000000000E+00 -0.00000000000E+00 -0.43249942907E+02  0.43249942907E+02  0.00000000000E+00 0.  1.
          6    2    1    2  502    0  0.62176295100E+00 -0.63167865794E+02  0.36757003690E+03  0.41054371656E+03  0.17160374507E+03 0.  0.
         24    2    3    3    0    0  0.52474181550E+02 -0.68122896735E+02  0.31456619116E+03  0.33608081768E+03  0.81265974441E+02 0.  0.
         -6    2    1    2    0  501 -0.62176295100E+00  0.63167865794E+02  0.36496753487E+03  0.40849374102E+03  0.17226511280E+03 0.  0.
        -24    2    5    5    0    0 -0.82914873484E+01 -0.31949142465E+02  0.14778847527E+03  0.17122826974E+03  0.79926156360E+02 0.  0.
          5    1    3    3  502    0 -0.51852418599E+02  0.49550309409E+01  0.53003845733E+02  0.74462898874E+02  0.47000000000E+01 0. -1.
        -13    1    4    4    0    0 -0.21955754596E+02 -0.15450741520E+02  0.81756995918E+02  0.86052233875E+02  0.00000000000E+00 0.  1.
         14    1    4    4    0    0  0.74429936145E+02 -0.52672155216E+02  0.23280919525E+03  0.25002858381E+03  0.00000000000E+00 0. -1.
         -5    1    5    5    0  501  0.76697243974E+01  0.95117008259E+02  0.21717905960E+03  0.23726547128E+03  0.47000000000E+01 0.  1.
         13    1    6    6    0    0 -0.14710498799E+02 -0.93716199646E+01 -0.37850830287E+01  0.17848050012E+02  0.00000000000E+00 0. -1.
        -14    1    6    6    0    0  0.64190114509E+01 -0.22577522500E+02  0.15157355829E+03  0.15338021973E+03  0.00000000000E+00 0.  1.
</event>
<event>
12    1  0.2614920E-002  0.1950980E+03  0.7818608E-02  0.1153942E+00
          1   -1    0    0  502    0  0.00000000000E+00  0.00000000000E+00  0.74124606142E+02  0.74124606142E+02  0.00000000000E+00 0.  1.
         -1   -1    0    0    0  501 -0.00000000000E+00 -0.00000000000E+00 -0.51404341551E+03  0.51404341551E+03  0.00000000000E+00 0. -1.
          6    2    1    2  502    0  0.13852775901E+02 -0.90863034051E+02 -0.21039088125E+03  0.28690559702E+03  0.17205379487E+03 0.  0.
         24    2    3    3    0    0 -0.25950523714E+02 -0.10517717939E+03 -0.98345560976E+02  0.16704967846E+03  0.80610650454E+02 0.  0.
         -6    2    1    2    0  501 -0.13852775901E+02  0.90863034051E+02 -0.22952792811E+03  0.30126242463E+03  0.17212782562E+03 0.  0.
        -24    2    5    5    0    0 -0.41404568867E+02 -0.15168386023E+01 -0.75275888341E+02  0.11930384709E+03  0.82766596173E+02 0.  0.
          5    1    3    3  502    0  0.39803299615E+02  0.14314145335E+02 -0.11204532028E+03  0.11985591856E+03  0.47000000000E+01 0. -1.
        -11    1    4    4    0    0 -0.54167080067E+01 -0.21415107081E+02  0.13444472673E+02  0.25859261057E+02  0.00000000000E+00 0.  1.
         12    1    4    4    0    0 -0.20533815707E+02 -0.83762072304E+02 -0.11179003365E+03  0.14119041741E+03  0.00000000000E+00 0. -1.
         -5    1    5    5    0  501  0.27551792966E+02  0.92379872653E+02 -0.15425203977E+03  0.18195857754E+03  0.47000000000E+01 0.  1.
         11    1    6    6    0    0 -0.35106172061E+02  0.16027574384E+02 -0.88433399773E+02  0.96487266792E+02  0.00000000000E+00 0. -1.
        -12    1    6    6    0    0 -0.62983968059E+01 -0.17544412986E+02  0.13157511432E+02  0.22816580297E+02  0.00000000000E+00 0.  1.
</event>
<event>
12    1  0.2614920E-002  0.1775631E+03  0.7818608E-02  0.1170183E+00
          1   -1    0    0  502    0  0.00000000000E+00  0.00000000000E+00  0.93439253634E+03  0.93439253634E+03  0.00000000000E+00 0.  1.
         -1   -1    0    0    0  501 -0.00000000000E+00 -0.00000000000E+00 -0.33749102151E+02  0.33749102151E+02  0.00000000000E+00 0. -1.
          6    2    1    2  502    0  0.47925398479E+02  0.16742729411E+01  0.45758883146E+03  0.49173800742E+03  0.17354850116E+03 0.  0.
         24    2    3    3    0    0 -0.74693183478E+01 -0.57436101356E+02  0.19548903591E+03  0.21736416787E+03  0.75342696110E+02 0.  0.
         -6    2    1    2    0  501 -0.47925398479E+02 -0.16742729411E+01  0.44305460272E+03  0.47640363107E+03  0.16841434526E+03 0.  0.
        -24    2    5    5    0    0 -0.29557552036E+02 -0.41644892086E+02  0.41180150866E+03  0.42223838329E+03  0.78082161041E+02 0.  0.
          5    1    3    3  502    0  0.55394716827E+02  0.59110374297E+02  0.26209979556E+03  0.27437383956E+03  0.47000000000E+01 0. -1.
        -11    1    4    4    0    0  0.19519784457E+02 -0.18000327088E+02  0.14665304411E+03  0.14903740842E+03  0.00000000000E+00 0.  1.
         12    1    4    4    0    0 -0.26989102805E+02 -0.39435774268E+02  0.48835991798E+02  0.68326759452E+02  0.00000000000E+00 0. -1.
         -5    1    5    5    0  501 -0.18367846443E+02  0.39970619145E+02  0.31253094065E+02  0.54165247775E+02  0.47000000000E+01 0.  1.
         13    1    6    6    0    0 -0.39961702693E+02  0.93223773442E+01  0.19694964866E+03  0.20117904590E+03  0.00000000000E+00 0. -1.
        -14    1    6    6    0    0  0.10404150658E+02 -0.50967269431E+02  0.21485186000E+03  0.22105933739E+03  0.00000000000E+00 0.  1.
</event>
<event>
12    1  0.2614920E-002  0.1755941E+03  0.7818608E-02  0.1172137E+00
         -2   -1    0    0    0  501 -0.00000000000E+00  0.00000000000E+00  0.50197299534E+02  0.50197299534E+02  0.00000000000E+00 0.  1.
          2   -1    0    0  502    0  0.00000000000E+00 -0.00000000000E+00 -0.63238810351E+03  0.63238810351E+03  0.00000000000E+00 0. -1.
          6    2    1    2  502    0  0.40370194960E+02 -0.62335385433E+01 -0.34971372899E+03  0.39154936275E+03  0.17129682304E+03 0.  0.
         24    2    3    3    0    0  0.19225666142E+02  0.54153729017E+02 -0.28411033099E+03  0.29979093528E+03  0.76509294194E+02 0.  0.
         -6    2    1    2    0  501 -0.40370194960E+02  0.62335385433E+01 -0.23247707498E+03  0.29103604029E+03  0.17025797106E+03 0.  0.
        -24    2    5    5    0    0 -0.63900282279E+02  0.22992257831E+02 -0.69385012753E+02  0.12533863402E+03  0.79269181830E+02 0.  0.
          5    1    3    3  502    0  0.21144528818E+02 -0.60387267560E+02 -0.65603397998E+02  0.91758427467E+02  0.47000000000E+01 0. -1.
        -13    1    4    4    0    0  0.23090512171E+02  0.22043192117E+02 -0.30581464111E+02  0.44207465639E+02  0.00000000000E+00 0.  1.
         14    1    4    4    0    0 -0.38648460289E+01  0.32110536899E+02 -0.25352886688E+03  0.25558346965E+03  0.00000000000E+00 0. -1.
         -5    1    5    5    0  501  0.23530087319E+02 -0.16758719288E+02 -0.16309206223E+03  0.16569740627E+03  0.47000000000E+01 0.  1.
         13    1    6    6    0    0 -0.32939779108E+02 -0.82444655384E+01 -0.73700842649E+02  0.81146869729E+02  0.00000000000E+00 0. -1.
        -14    1    6    6    0    0 -0.30960503172E+02  0.31236723369E+02  0.43158298962E+01  0.44191764291E+02  0.00000000000E+00 0.  1.
</event>
<event>
12    1  0.2614920E-002  0.1860536E+03  0.7818608E-02  0.1162070E+00
         -2   -1    0    0    0  501 -0.00000000000E+00  0.00000000000E+00  0.69291432365E+02  0.69291432365E+02  0.00000000000E+00 0.  1.
          2   -1    0    0  502    0  0.00000000000E+00 -0.00000000000E+00 -0.50777024141E+03  0.50777024141E+03  0.00000000000E+00 0. -1.
          6    2    1    2  502    0  0.69576375924E+02  0.13249664494E+02 -0.25622950739E+03  0.31681916367E+03  0.17234963393E+03 0.  0.
         24    2    3    3    0    0  0.10277810306E+03  0.47157326189E+02 -0.19212536923E+03  0.23692226301E+03  0.80205045508E+02 0.  0.
         -6    2    1    2    0  501 -0.69576375924E+02 -0.13249664494E+02 -0.18224930166E+03  0.26024251011E+03  0.17174088161E+03 0.  0.
        -24    2    5    5    0    0  0.22654628860E+02 -0.29495165904E+02 -0.88797613788E+02  0.12785753163E+03  0.84138785113E+02 0.  0.
          5    1    3    3  502    0 -0.33201727135E+02 -0.33907661695E+02 -0.64104138152E+02  0.79896900657E+02  0.47000000000E+01 0. -1.
        -11    1    4    4    0    0  0.61103046121E+02 -0.15004980371E+02 -0.74591605481E+02  0.97584011444E+02  0.00000000000E+00 0.  1.
         12    1    4    4    0    0  0.41675056937E+02  0.62162306560E+02 -0.11753376375E+03  0.13933825157E+03  0.00000000000E+00 0. -1.
         -5    1    5    5    0  501 -0.92231004784E+02  0.16245501410E+02 -0.93451687869E+02  0.13238497847E+03  0.47000000000E+01 0.  1.
         11    1    6    6    0    0  0.16519528667E+02 -0.18568392277E+02 -0.10470097671E+03  0.10761029013E+03  0.00000000000E+00 0. -1.
        -12    1    6    6    0    0  0.61351001935E+01 -0.10926773627E+02  0.15903362918E+02  0.20247241501E+02  0.00000000000E+00 0.  1.
</event>
<event>
12    1  0.2614920E-002  0.2636243E+03  0.7818608E-02  0.1104985E+00
         -1   -1    0    0    0  501 -0.00000000000E+00  0.00000000000E+00  0.53984135615E+02  0.53984135615E+02  0.00000000000E+00 0. -1.
          1   -1    0    0  502    0  0.00000000000E+00 -0.00000000000E+00 -0.19643800944E+04  0.19643800944E+04  0.00000000000E+00 0.  1.
          6    2    1    2  502    0  0.95690678939E+01  0.19999236301E+03 -0.36180197067E+03  0.44742454930E+03  0.17087875530E+03 0.  0.
         24    2    3    3    0    0  0.54841794336E+02  0.69734467978E+02 -0.11737575774E+03  0.16674144944E+03  0.78454598505E+02 0.  0.
         -6    2    1    2    0  501 -0.95690678939E+01 -0.19999236301E+03 -0.15485939881E+04  0.15709396807E+04  0.17210353888E+03 0.  0.
        -24    2    5    5    0    0 -0.48502352394E+02 -0.17709776728E+03 -0.96345718592E+03  0.98404349701E+03  0.79848340999E+02 0.  0.
          5    1    3    3  502    0 -0.45272726442E+02  0.13025789503E+03 -0.24442621294E+03  0.28068309986E+03  0.47000000000E+01 0. -1.
        -11    1    4    4    0    0  0.30278449967E+02  0.83330093055E+02 -0.76206870012E+02  0.11691097458E+03  0.00000000000E+00 0.  1.
         12    1    4    4    0    0  0.24563344369E+02 -0.13595625077E+02 -0.41168887726E+02  0.49830474856E+02  0.00000000000E+00 0. -1.
         -5    1    5    5    0  501  0.38933284500E+02 -0.22894595737E+02 -0.58513680215E+03  0.58689618365E+03  0.47000000000E+01 0.  1.
         11    1    6    6    0    0  0.67887093542E+01 -0.79412108715E+02 -0.26850012385E+03  0.28007978523E+03  0.00000000000E+00 0. -1.
        -12    1    6    6    0    0 -0.55291061748E+02 -0.97685658561E+02 -0.69495706207E+03  0.70396371179E+03  0.00000000000E+00 0.  1.
</event>
<event>
12    1  0.2614920E-002  0.2271832E+03  0.7818608E-02  0.1128638E+00
         -2   -1    0    0    0  501 -0.00000000000E+00  0.00000000000E+00  0.74084261332E+02  0.74084261332E+02  0.00000000000E+00 0. -1.
          2   -1    0    0  502    0  0.00000000000E+00 -0.00000000000E+00 -0.69666949522E+03  0.69666949522E+03  0.00000000000E+00 0.  1.
          6    2    1    2  502    0  0.13851668768E+03 -0.54107803049E+02 -0.31161315721E+03  0.38565477301E+03  0.17179149303E+03 0.  0.
         24    2    3    3    0    0  0.30723752146E+02 -0.76770788319E+02 -0.17809499345E+03  0.21250132110E+03  0.81248273169E+02 0.  0.
         -6    2    1    2    0  501 -0.13851668768E+03  0.54107803049E+02 -0.31097207668E+03  0.38509898355E+03  0.17170634100E+03 0.  0.
        -24    2    5    5    0    0 -0.22905538656E+02 -0.26029191257E+02 -0.13917988829E+03  0.16301224008E+03  0.77458160397E+02 0.  0.
          5    1    3    3  502    0  0.10779293553E+03  0.22662985270E+02 -0.13351816376E+03  0.17315345190E+03  0.47000000000E+01 0. -1.
        -13    1    4    4    0    0  0.13317136474E+02 -0.20580591787E+02 -0.14064957706E+03  0.14276978115E+03  0.00000000000E+00 0.  1.
         14    1    4    4    0    0  0.17406615672E+02 -0.56190196532E+02 -0.37445416389E+02  0.69731539952E+02  0.00000000000E+00 0. -1.
         -5    1    5    5    0  501 -0.11561114902E+03  0.80136994307E+02 -0.17179218839E+03  0.22208674347E+03  0.47000000000E+01 0.  1.
         11    1    6    6    0    0  0.18482389259E+02 -0.47856118763E+01 -0.32817866367E+01  0.19371910522E+02  0.00000000000E+00 0. -1.
        -12    1    6    6    0    0 -0.41387927915E+02 -0.21243579381E+02 -0.13589810165E+03  0.14364032956E+03  0.00000000000E+00 0.  1.
</event>
<event>
12    1  0.2614920E-002  0.2003795E+03  0.7818608E-02  0.1149419E+00
          1   -1    0    0  502    0  0.00000000000E+00  0.00000000000E+00  0.35490304850E+03  0.35490304850E+03  0.00000000000E+00 0. -1.
         -1   -1    0    0    0  501 -0.00000000000E+00 -0.00000000000E+00 -0.20223145607E+03  0.20223145607E+03  0.00000000000E+00 0.  1.
          6    2    1    2  502    0  0.56802281189E+02 -0.83975657089E+02  0.26132830718E+03  0.32957706088E+03  0.17334977587E+03 0.  0.
         24    2    3    3    0    0  0.35747024724E+02  0.63321789023E+01  0.18307903444E+03  0.20815273156E+03  0.92150314920E+02 0.  0.
         -6    2    1    2    0  501 -0.56802281189E+02  0.83975657089E+02 -0.10865671476E+03  0.22755744368E+03  0.17233020160E+03 0.  0.
        -24    2    5    5    0    0 -0.94975275636E+02  0.36085301683E+02 -0.10164021729E+03  0.16573523988E+03  0.82552916296E+02 0.  0.
          5    1    3    3  502    0  0.21055256465E+02 -0.90307835991E+02  0.78249272742E+02  0.12142432932E+03  0.47000000000E+01 0. -1.
        -13    1    4    4    0    0 -0.10258374225E+02  0.36037513515E+02  0.39307276587E+02  0.54304683175E+02  0.00000000000E+00 0.  1.
         14    1    4    4    0    0  0.46005398949E+02 -0.29705334612E+02  0.14377175785E+03  0.15384804839E+03  0.00000000000E+00 0. -1.
         -5    1    5    5    0  501  0.38172994447E+02  0.47890355406E+02 -0.70164974690E+01  0.61822203800E+02  0.47000000000E+01 0.  1.
         13    1    6    6    0    0 -0.41966340866E+02 -0.14796259280E+02 -0.75706915978E+02  0.87815944914E+02  0.00000000000E+00 0. -1.
        -14    1    6    6    0    0 -0.53008934771E+02  0.50881560963E+02 -0.25933301309E+02  0.77919294968E+02  0.00000000000E+00 0.  1.
</event>
<event>
12    1  0.2614920E-002  0.1784619E+03  0.7818608E-02  0.1169300E+00
         -1   -1    0    0    0  501 -0.00000000000E+00  0.00000000000E+00  0.60320801258E+02  0.60320801258E+02  0.00000000000E+00 0. -1.
          1   -1    0    0  502    0  0.00000000000E+00 -0.00000000000E+00 -0.57864761104E+03  0.57864761104E+03  0.00000000000E+00 0.  1.
          6    2    1    2  502    0  0.22574797770E+02  0.38667411732E+02 -0.35155853671E+03  0.39355184193E+03  0.17112818975E+03 0.  0.
         24    2    3    3    0    0  0.29431816068E+02  0.76008190008E+02 -0.15415563967E+03  0.19247636809E+03  0.81484441970E+02 0.  0.
         -6    2    1    2    0  501 -0.22574797770E+02 -0.38667411732E+02 -0.16676827307E+03  0.24541657037E+03  0.17439279195E+03 0.  0.
        -24    2    5    5    0    0 -0.37728505101E+02 -0.89825569660E+02 -0.11898691504E+03  0.17363955355E+03  0.80627138999E+02 0.  0.
          5    1    3    3  502    0 -0.68570182981E+01 -0.37340778276E+02 -0.19740289704E+03  0.20107547384E+03  0.47000000000E+01 0. -1.
        -13    1    4    4    0    0  0.78972698151E+01  0.46936900521E+02 -0.14839612579E+03  0.15584238721E+03  0.00000000000E+00 0.  1.
         14    1    4    4    0    0  0.21534546253E+02  0.29071289487E+02 -0.57595138819E+01  0.36633980877E+02  0.00000000000E+00 0. -1.
         -5    1    5    5    0  501  0.15153707332E+02  0.51158157928E+02 -0.47781358026E+02  0.71777016818E+02  0.47000000000E+01 0.  1.
         11    1    6    6    0    0  0.96370947366E+01 -0.10278352100E+02  0.82176997787E+01  0.16310999556E+02  0.00000000000E+00 0. -1.
        -12    1    6    6    0    0 -0.47365599838E+02 -0.79547217560E+02 -0.12720461482E+03  0.15732855399E+03  0.00000000000E+00 0.  1.
</event>
<event>
12    1  0.2614920E-002  0.1747576E+03  0.7818608E-02  0.1172975E+00
         -2   -1    0    0    0  501 -0.00000000000E+00  0.00000000000E+00  0.16456675720E+02  0.16456675720E+02  0.00000000000E+00 0. -1.
          2   -1    0    0  502    0  0.00000000000E+00 -0.00000000000E+00 -0.20039093753E+04  0.20039093753E+04  0.00000000000E+00 0.  1.
          6    2    1    2  502    0 -0.51102099006E+01  0.18115741056E+01 -0.70928646752E+03  0.73004765994E+03  0.17277990833E+03 0.  0.
         24    2    3    3    0    0  0.51815680141E+02  0.77617967094E+00 -0.26085681752E+03  0.27799360343E+03  0.80924020787E+02 0.  0.
         -6    2    1    2    0  501  0.51102099006E+01 -0.18115741056E+01 -0.12781662321E+04  0.12903183911E+04  0.17658776161E+03 0.  0.
        -24    2    5    5    0    0  0.47351059709E+01  0.66513713154E+02 -0.90272752214E+03  0.90868401044E+03  0.79643934745E+02 0.  0.
          5    1    3    3  502    0 -0.56925890042E+02  0.10353944347E+01 -0.44842965001E+03  0.45205405651E+03  0.47000000000E+01 0. -1.
        -13    1    4    4    0    0  0.48142289861E+02 -0.23956897235E+02 -0.23838623272E+03  0.24437595821E+03  0.00000000000E+00 0.  1.
         14    1    4    4    0    0  0.36733902799E+01  0.24733076906E+02 -0.22470584793E+02  0.33617645223E+02  0.00000000000E+00 0. -1.
         -5    1    5    5    0  501  0.37510392975E+00 -0.68325287260E+02 -0.37543870997E+03  0.38163438069E+03  0.47000000000E+01 0.  1.
         11    1    6    6    0    0 -0.35687811208E+02  0.35197602394E+02 -0.34580169281E+03  0.34941565768E+03  0.00000000000E+00 0. -1.
        -12    1    6    6    0    0  0.40422917179E+02  0.31316110760E+02 -0.55692582932E+03  0.55926835276E+03  0.00000000000E+00 0.  1.
</event>
<event>
12    1  0.2614920E-002  0.1652299E+03  0.7818608E-02  0.1182916E+00
          4   -1    0    0  502    0  0.00000000000E+00  0.00000000000E+00  0.45971373119E+03  0.45971373119E+03  0.00000000000E+00 0.  1.
         -4   -1    0    0    0  501 -0.00000000000E+00 -0.00000000000E+00 -0.69158660179E+02  0.69158660179E+02  0.00000000000E+00 0. -1.
          6    2    1    2  502    0  0.87650505847E+01  0.30330774245E+02  0.88001994432E+02  0.17977910800E+03  0.15355583568E+03 0.  0.
         24    2    3    3    0    0  0.55834328613E+02 -0.57464073321E+01  0.53501399875E+02  0.11100803131E+03  0.79434814642E+02 0.  0.
         -6    2    1    2    0  501 -0.87650505847E+01 -0.30330774245E+02  0.30255307658E+03  0.34909328337E+03  0.17126288088E+03 0.  0.
        -24    2    5    5    0    0  0.39755961010E+02 -0.48330449727E+01  0.88058026769E+02  0.12765561910E+03  0.83293734757E+02 0.  0.
          5    1    3    3  502    0 -0.47069278028E+02  0.36077181578E+02  0.34500594557E+02  0.68771076692E+02  0.47000000000E+01 0. -1.
        -13    1    4    4    0    0  0.98576941152E+01  0.50836410627E+01 -0.20446825160E+02  0.23261345594E+02  0.00000000000E+00 0.  1.
         14    1    4    4    0    0  0.45976634497E+02 -0.10830048395E+02  0.73948225035E+02  0.87746685714E+02  0.00000000000E+00 0. -1.
         -5    1    5    5    0  501 -0.48521011594E+02 -0.25497729273E+02  0.21449504981E+03  0.22143766427E+03  0.47000000000E+01 0.  1.
         11    1    6    6    0    0  0.40197819052E+02 -0.37301405204E+02  0.33784518605E+02  0.64410039467E+02  0.00000000000E+00 0. -1.
        -12    1    6    6    0    0 -0.44185804226E+00  0.32468360231E+02  0.54273508164E+02  0.63245579633E+02  0.00000000000E+00 0.  1.
</event>
<event>
12    1  0.2614920E-002  0.2415067E+03  0.7818608E-02  0.1118793E+00
          2   -1    0    0  502    0  0.00000000000E+00  0.00000000000E+00  0.19082755179E+04  0.19082755179E+04  0.00000000000E+00 0. -1.
         -2   -1    0    0    0  501 -0.00000000000E+00 -0.00000000000E+00 -0.39500736360E+02  0.39500736360E+02  0.00000000000E+00 0.  1.
          6    2    1    2  502    0 -0.11130780986E+03 -0.13147820889E+03  0.46452700864E+03  0.52252787431E+03  0.16605447820E+03 0.  0.
         24    2    3    3    0    0 -0.21867808317E+01 -0.35558593243E+02  0.13656067343E+03  0.16379123181E+03  0.83123730226E+02 0.  0.
         -6    2    1    2    0  501  0.11130780986E+03  0.13147820889E+03  0.14042477729E+04  0.14252483800E+04  0.17246793587E+03 0.  0.
        -24    2    5    5    0    0  0.45797873735E+02 -0.37085658608E+01  0.58483325374E+03  0.59216419452E+03  0.80729795580E+02 0.  0.
          5    1    3    3  502    0 -0.10912102903E+03 -0.95919615644E+02  0.32796633521E+03  0.35873664250E+03  0.47000000000E+01 0. -1.
        -13    1    4    4    0    0 -0.31825993621E+02  0.67110963835E+01  0.84182063378E+02  0.90247174356E+02  0.00000000000E+00 0.  1.
         14    1    4    4    0    0  0.29639212790E+02 -0.42269689626E+02  0.52378610049E+02  0.73544057453E+02  0.00000000000E+00 0. -1.
         -5    1    5    5    0  501  0.65509936128E+02  0.13518677475E+03  0.81941451919E+03  0.83308418546E+03  0.47000000000E+01 0.  1.
         11    1    6    6    0    0 -0.51822126502E-01  0.12495151064E+02  0.42295588129E+03  0.42314041287E+03  0.00000000000E+00 0. -1.
        -12    1    6    6    0    0  0.45849695862E+02 -0.16203716925E+02  0.16187737245E+03  0.16902378166E+03  0.00000000000E+00 0.  1.
</event>
<event>
12    1  0.2614920E-002  0.2569095E+03  0.7818608E-02  0.1109014E+00
         -1   -1    0    0    0  501 -0.00000000000E+00  0.00000000000E+00  0.20225718160E+02  0.20225718160E+02  0.00000000000E+00 0. -1.
          1   -1    0    0  502    0  0.00000000000E+00 -0.00000000000E+00 -0.33536850129E+04  0.33536850129E+04  0.00000000000E+00 0.  1.
          6    2    1    2  502    0  0.18914129149E+03  0.27705648538E+02 -0.13901659367E+04  0.14137168602E+04  0.17173234421E+03 0.  0.
         24    2    3    3    0    0  0.45942300453E+02 -0.86743390484E+01 -0.79250603771E+03  0.79804738765E+03  0.81411755874E+02 0.  0.
         -6    2    1    2    0  501 -0.18914129149E+03 -0.27705648538E+02 -0.19432933580E+04  0.19601938708E+04  0.17154854993E+03 0.  0.
        -24    2    5    5    0    0 -0.11106238304E+03 -0.20920309580E+02 -0.64955647056E+03  0.66407675396E+03  0.79383968362E+02 0.  0.
          5    1    3    3  502    0  0.14319899104E+03  0.36379987587E+02 -0.59765989901E+03  0.61566947253E+03  0.47000000000E+01 0. -1.
        -11    1    4    4    0    0  0.62284814997E+02  0.15978065456E+02 -0.54575825763E+03  0.54953323150E+03  0.00000000000E+00 0.  1.
         12    1    4    4    0    0 -0.16342514544E+02 -0.24652404505E+02 -0.24674778009E+03  0.24851415615E+03  0.00000000000E+00 0. -1.
         -5    1    5    5    0  501 -0.78078908452E+02 -0.67853389588E+01 -0.12937368874E+04  0.12961171169E+04  0.47000000000E+01 0.  1.
         11    1    6    6    0    0  0.55218713180E+01 -0.17974365633E+02 -0.14521681234E+03  0.14642913463E+03  0.00000000000E+00 0. -1.
        -12    1    6    6    0    0 -0.11658425435E+03 -0.29459439467E+01 -0.50433965822E+03  0.51764761934E+03  0.00000000000E+00 0.  1.
</event>
<event>
12    1  0.2614920E-002  0.1818498E+03  0.7818608E-02  0.1166025E+00
         -1   -1    0    0    0  501 -0.00000000000E+00  0.00000000000E+00  0.24789363289E+03  0.24789363289E+03  0.00000000000E+00 0.  1.
          1   -1    0    0  502    0  0.00000000000E+00 -0.00000000000E+00 -0.13487834795E+03  0.13487834795E+03  0.00000000000E+00 0. -1.
          6    2    1    2  502    0  0.29178487733E+02  0.49105494090E+02  0.36272448205E+02  0.18472326955E+03  0.17188444408E+03 0.  0.
         24    2    3    3    0    0  0.70385675238E+02  0.36288000790E+02  0.67634112351E+02  0.13116989043E+03  0.79750891674E+02 0.  0.
         -6    2    1    2    0  501 -0.29178487733E+02 -0.49105494090E+02  0.76742836734E+02  0.19804871130E+03  0.17341019393E+03 0.  0.
        -24    2    5    5    0    0 -0.38813399435E+02 -0.96266484338E+02  0.64766808553E+02  0.14822396067E+03  0.83677279130E+02 0.  0.
          5    1    3    3  502    0 -0.41207187505E+02  0.12817493300E+02 -0.31361664147E+02  0.53553379115E+02  0.47000000000E+01 0. -1.
        -11    1    4    4    0    0  0.25089437805E+01  0.32354631896E+02  0.52175153658E+02  0.61443988015E+02  0.00000000000E+00 0.  1.
         12    1    4    4    0    0  0.67876731457E+02  0.39333688947E+01  0.15458958693E+02  0.69725902419E+02  0.00000000000E+00 0. -1.
         -5    1    5    5    0  501  0.96349117017E+01  0.47160990247E+02  0.11976028180E+02  0.49824750633E+02  0.47000000000E+01 0.  1.
         11    1    6    6    0    0 -0.51349942307E+02 -0.36560544526E+02  0.56762073112E+01  0.63290673250E+02  0.00000000000E+00 0. -1.
        -12    1    6    6    0    0  0.12536542872E+02 -0.59705939812E+02  0.59090601242E+02  0.84933287415E+02  0.00000000000E+00 0.  1.
</event>
<event>
12    1  0.2614920E-002  0.1825796E+03  0.7818608E-02  0.1165330E+00
          1   -1    0    0  502    0  0.00000000000E+00  0.00000000000E+00  0.21807375103E+03  0.21807375103E+03  0.00000000000E+00 0. -1.
         -1   -1    0    0    0  501 -0.00000000000E+00 -0.00000000000E+00 -0.15291722570E+03  0.15291722570E+03  0.00000000000E+00 0.  1.
          6    2    1    2  502    0  0.46206926938E+02  0.34162455927E+02  0.36119454491E+02  0.18706079140E+03  0.17431285436E+03 0.  0.
         24    2    3    3    0    0 -0.48972772174E+01  0.63925440257E+02  0.64904606406E+02  0.12112028875E+03  0.79668508074E+02 0.  0.
         -6    2    1    2    0  501 -0.46206926938E+02 -0.34162455927E+02  0.29037070845E+02  0.18393018533E+03  0.17229337799E+03 0.  0.
        -24    2    5    5    0    0 -0.83239730978E+02 -0.55012564098E+02  0.51423847280E+02  0.13566618896E+03  0.76194932489E+02 0.  0.
          5    1    3    3  502    0  0.51104204156E+02 -0.29762984330E+02 -0.28785151915E+02  0.65940502648E+02  0.47000000000E+01 0. -1.
        -11    1    4    4    0    0  0.21276637251E+02 -0.87095310774E+01  0.53278748931E+01  0.23599522774E+02  0.00000000000E+00 0.  1.
         12    1    4    4    0    0 -0.26173914469E+02  0.72634971334E+02  0.59576731513E+02  0.97520765979E+02  0.00000000000E+00 0. -1.
         -5    1    5    5    0  501  0.37032804040E+02  0.20850108171E+02 -0.22386776435E+02  0.48263996364E+02  0.47000000000E+01 0.  1.
         11    1    6    6    0    0 -0.57681800526E+02 -0.37652188172E+02 -0.73420597091E+01  0.69273250442E+02  0.00000000000E+00 0. -1.
        -12    1    6    6    0    0 -0.25557930452E+02 -0.17360375925E+02  0.58765906989E+02  0.66392938522E+02  0.00000000000E+00 0.  1.
</event>
<event>
12    1  0.2614920E-002  0.2017966E+03  0.7818608E-02  0.1148232E+00
          1   -1    0    0  502    0  0.00000000000E+00  0.00000000000E+00  0.45276855525E+03  0.45276855525E+03  0.00000000000E+00 0.  1.
         -1   -1    0    0    0  501 -0.00000000000E+00 -0.00000000000E+00 -0.89997833014E+02  0.89997833014E+02  0.00000000000E+00 0. -1.
          6    2    1    2  502    0  0.91265498179E+02 -0.52189759520E+02  0.18854391557E+03  0.27639254044E+03  0.17260030751E+03 0.  0.
         24    2    3    3    0    0  0.11423523446E+03 -0.76928422224E+02  0.12750856232E+03  0.20648535508E+03  0.86081922970E+02 0.  0.
         -6    2    1    2    0  501 -0.91265498179E+02  0.52189759520E+02  0.17422680666E+03  0.26637384783E+03  0.17189207221E+03 0.  0.
        -24    2    5    5    0    0 -0.39518280794E+02  0.85244044133E+02  0.15964517059E+03  0.20308819109E+03  0.83246569243E+02 0.  0.
          5    1    3    3  502    0 -0.22969736276E+02  0.24738662704E+02  0.61035353257E+02  0.69907185354E+02  0.47000000000E+01 0. -1.
        -11    1    4    4    0    0 -0.86754398078E+00 -0.11937092162E+01  0.46760167976E+02  0.46783446682E+02  0.00000000000E+00 0.  1.
         12    1    4    4    0    0  0.11510277844E+03 -0.75734713008E+02  0.80748394340E+02  0.15970190840E+03  0.00000000000E+00 0. -1.
         -5    1    5    5    0  501 -0.51747217385E+02 -0.33054284613E+02  0.14581636076E+02  0.63285656740E+02  0.47000000000E+01 0.  1.
         11    1    6    6    0    0 -0.20934633778E+02 -0.58609111475E+01  0.44793678742E+01  0.22196258862E+02  0.00000000000E+00 0. -1.
        -12    1    6    6    0    0 -0.18583647015E+02  0.91104955281E+02  0.15516580271E+03  0.18089193223E+03  0.00000000000E+00 0.  1.
</event>
<event>
12    1  0.2614920E-002  0.2270011E+03  0.7818608E-02  0.1128768E+00
         -2   -1    0    0    0  501 -0.00000000000E+00  0.00000000000E+00  0.93344627979E+02  0.93344627979E+02  0.00000000000E+00 0. -1.
          2   -1    0    0  502    0  0.00000000000E+00 -0.00000000000E+00 -0.61614365081E+03  0.61614365081E+03  0.00000000000E+00 0.  1.
          6    2    1    2  502    0 -0.10093794369E+03  0.10823022481E+03 -0.37674673893E+03  0.44031516639E+03  0.17331211850E+03 0.  0.
         24    2    3    3    0    0 -0.71407373274E+02  0.62970942282E+02 -0.10209382013E+03  0.16035664616E+03  0.78909779676E+02 0.  0.
         -6    2    1    2    0  501  0.10093794369E+03 -0.10823022481E+03 -0.14605228391E+03  0.26917311240E+03  0.17094047141E+03 0.  0.
        -24    2    5    5    0    0 -0.39387579115E+01 -0.73630315308E+02 -0.38435635463E+02  0.11490156837E+03  0.79297762856E+02 0.  0.
          5    1    3    3  502    0 -0.29530570418E+02  0.45259282530E+02 -0.27465291880E+03  0.27995852023E+03  0.47000000000E+01 0. -1.
        -13    1    4    4    0    0 -0.11424026412E+02  0.12864062406E+02 -0.76052651286E+02  0.77974343528E+02  0.00000000000E+00 0.  1.
         14    1    4    4    0    0 -0.59983346862E+02  0.50106879876E+02 -0.26041168842E+02  0.82382302628E+02  0.00000000000E+00 0. -1.
         -5    1    5    5    0  501  0.10487670160E+03 -0.34599909505E+02 -0.10761664844E+03  0.15427154404E+03  0.47000000000E+01 0.  1.
         11    1    6    6    0    0  0.17503231070E+02 -0.43208994102E+02  0.15712256535E+02  0.49196090034E+02  0.00000000000E+00 0. -1.
        -12    1    6    6    0    0 -0.21441988982E+02 -0.30421321205E+02 -0.54147891998E+02  0.65705478335E+02  0.00000000000E+00 0.  1.
</event>
<event>
12    1  0.2614920E-002  0.2130885E+03  0.7818608E-02  0.1139143E+00
         -4   -1    0    0    0  501 -0.00000000000E+00  0.00000000000E+00  0.88141223332E+02  0.88141223332E+02  0.00000000000E+00 0.  1.
          4   -1    0    0  502    0  0.00000000000E+00 -0.00000000000E+00 -0.56182770088E+03  0.56182770088E+03  0.00000000000E+00 0. -1.
          6    2    1    2  502    0  0.11694829867E+03 -0.44608090097E+02 -0.33153150794E+03  0.39465860657E+03  0.17371093438E+03 0.  0.
         24    2    3    3    0    0  0.12835177170E+03 -0.14406712899E+02 -0.16860676632E+03  0.22849987579E+03  0.84274675410E+02 0.  0.
         -6    2    1    2    0  501 -0.11694829867E+03  0.44608090097E+02 -0.14215496961E+03  0.25531031764E+03  0.17119736167E+03 0.  0.
        -24    2    5    5    0    0 -0.11311817479E+03  0.24376480909E+02 -0.16940234413E+03  0.22083572877E+03  0.81739406754E+02 0.  0.
          5    1    3    3  502    0 -0.11403473033E+02 -0.30201377199E+02 -0.16292474162E+03  0.16615873078E+03  0.47000000000E+01 0. -1.
        -11    1    4    4    0    0 -0.12576161195E+02 -0.16292440008E+01 -0.12594041695E+02  0.17872441149E+02  0.00000000000E+00 0.  1.
         12    1    4    4    0    0  0.14092793290E+03 -0.12777468898E+02 -0.15601272462E+03  0.21062743465E+03  0.00000000000E+00 0. -1.
         -5    1    5    5    0  501 -0.38301238779E+01  0.20231609188E+02  0.27247374519E+02  0.34474588865E+02  0.47000000000E+01 0.  1.
         13    1    6    6    0    0 -0.55975827538E+02 -0.29374072888E+02 -0.76785439233E+02  0.99459203218E+02  0.00000000000E+00 0. -1.
        -14    1    6    6    0    0 -0.57142347251E+02  0.53750553797E+02 -0.92616904895E+02  0.12137652555E+03  0.00000000000E+00 0.  1.
</event>
<event>
12    1  0.2614920E-002  0.2153475E+03  0.7818608E-02  0.1137400E+00
          2   -1    0    0  502    0  0.00000000000E+00  0.00000000000E+00  0.72818329788E+02  0.72818329788E+02  0.00000000000E+00 0. -1.
         -2   -1    0    0    0  501 -0.00000000000E+00 -0.00000000000E+00 -0.67459214438E+03  0.67459214438E+03  0.00000000000E+00 0.  1.
          6    2    1    2  502    0  0.10443169643E+03 -0.84599565255E+02 -0.20919475060E+03  0.29838784727E+03  0.16495392707E+03 0.  0.
         24    2    3    3    0    0 -0.62167607585E+01 -0.30057996047E+02 -0.12454144197E+03  0.14870105255E+03  0.75228325922E+02 0.  0.
         -6    2    1    2    0  501 -0.10443169643E+03  0.84599565255E+02 -0.39257906398E+03  0.44902262690E+03  0.17158068751E+03 0.  0.
        -24    2    5    5    0    0 -0.59291775558E+02  0.59226228809E+02 -0.10375473650E+03  0.15555542122E+03  0.80057372540E+02 0.  0.
          5    1    3    3  502    0  0.11064845719E+03 -0.54541569208E+02 -0.84653308636E+02  0.14968679472E+03  0.47000000000E+01 0. -1.
        -11    1    4    4    0    0  0.30471457522E+02 -0.32375898703E+02 -0.70099758249E+02  0.83010147855E+02  0.00000000000E+00 0.  1.
         12    1    4    4    0    0 -0.36688218281E+02  0.23179026557E+01 -0.54441683719E+02  0.65690904694E+02  0.00000000000E+00 0. -1.
         -5    1    5    5    0  501 -0.45139920874E+02  0.25373336446E+02 -0.28882432748E+03  0.29346720567E+03  0.47000000000E+01 0.  1.
         11    1    6    6    0    0 -0.69289759815E+02  0.21628851362E+02 -0.86708703039E+02  0.11308084369E+03  0.00000000000E+00 0. -1.
        -12    1    6    6    0    0  0.99979842567E+01  0.37597377447E+02 -0.17046033463E+02  0.42474577536E+02  0.00000000000E+00 0.  1.
</event>
<event>
12    1  0.2614920E-002  0.2186962E+03  0.7818608E-02  0.1134859E+00
          2   -1    0    0  502    0  0.00000000000E+00  0.00000000000E+00  0.82769063068E+03  0.82769063068E+03  0.00000000000E+00 0.  1.
         -2   -1    0    0    0  501 -0.00000000000E+00 -0.00000000000E+00 -0.61862784535E+02  0.61862784535E+02  0.00000000000E+00 0. -1.
          6    2    1    2  502    0  0.51829749325E+02  0.12657122793E+03  0.49655985114E+03  0.54245170400E+03  0.17022211004E+03 0.  0.
         24    2    3    3    0    0  0.37891710843E+02  0.39695961355E+01  0.26692429530E+03  0.28172194439E+03  0.81652526514E+02 0.  0.
         -6    2    1    2    0  501 -0.51829749325E+02 -0.12657122793E+03  0.26926799500E+03  0.34710171121E+03  0.17107818722E+03 0.  0.
        -24    2    5    5    0    0 -0.96214467288E+02 -0.68339501620E+02  0.15084667158E+03  0.20779400512E+03  0.80598505191E+02 0.  0.
          5    1    3    3  502    0  0.13938038482E+02  0.12260163180E+03  0.22963555584E+03  0.26072975961E+03  0.47000000000E+01 0. -1.
        -13    1    4    4    0    0 -0.21703839775E+02 -0.16311506789E+02  0.79636525496E+02  0.84137376402E+02  0.00000000000E+00 0.  1.
         14    1    4    4    0    0  0.59595550619E+02  0.20281102924E+02  0.18728776980E+03  0.19758456799E+03  0.00000000000E+00 0. -1.
         -5    1    5    5    0  501  0.44384717963E+02 -0.58231726312E+02  0.11842132342E+03  0.13930770610E+03  0.47000000000E+01 0.  1.
         13    1    6    6    0    0 -0.11536829934E+02 -0.11152715136E+02 -0.87600168632E+01  0.18281668284E+02  0.00000000000E+00 0. -1.
        -14    1    6    6    0    0 -0.84677637355E+02 -0.57186786484E+02  0.15960668844E+03  0.18951233683E+03  0.00000000000E+00 0.  1.
</event>
<event>
12    1  0.2614920E-002  0.2205231E+03  0.7818608E-02  0.1133494E+00
         -2   -1    0    0    0  501 -0.00000000000E+00  0.00000000000E+00  0.47094917830E+02  0.47094917830E+02  0.00000000000E+00 0. -1.
          2   -1    0    0  502    0  0.00000000000E+00 -0.00000000000E+00 -0.10668687811E+04  0.10668687811E+04  0.00000000000E+00 0.  1.
          6    2    1    2  502    0 -0.47137854984E+02 -0.13474177094E+03 -0.41619713615E+03  0.47225855283E+03  0.17155396346E+03 0.  0.
         24    2    3    3    0    0 -0.43605735458E+02 -0.16334273859E+03 -0.30887960391E+03  0.36103969677E+03  0.79754263288E+02 0.  0.
         -6    2    1    2    0  501  0.47137854984E+02  0.13474177094E+03 -0.60357672709E+03  0.64170514607E+03  0.16463081970E+03 0.  0.
        -24    2    5    5    0    0  0.39291858063E+02  0.17023781451E+02 -0.35647950651E+03  0.36784713334E+03  0.80001348111E+02 0.  0.
          5    1    3    3  502    0 -0.35321195253E+01  0.28600967658E+02 -0.10731753223E+03  0.11121885606E+03  0.47000000000E+01 0. -1.
        -13    1    4    4    0    0 -0.49725962855E+01 -0.13077359058E+03 -0.25821247085E+03  0.28948253628E+03  0.00000000000E+00 0.  1.
         14    1    4    4    0    0 -0.38633139173E+02 -0.32569148014E+02 -0.50667133065E+02  0.71557160492E+02  0.00000000000E+00 0. -1.
         -5    1    5    5    0  501  0.78459969208E+01  0.11771798949E+03 -0.24709722058E+03  0.27385801272E+03  0.47000000000E+01 0.  1.
         11    1    6    6    0    0  0.32684235924E+02  0.31624240603E+02 -0.89548573463E+02  0.10043554590E+03  0.00000000000E+00 0. -1.
        -12    1    6    6    0    0  0.66076221389E+01 -0.14600459152E+02 -0.26693093305E+03  0.26741158744E+03  0.00000000000E+00 0.  1.
</event>
<event>
12    1  0.2614920E-002  0.1935790E+03  0.7818608E-02  0.1155272E+00
         -2   -1    0    0    0  501 -0.00000000000E+00  0.00000000000E+00  0.55009982343E+02  0.55009982343E+02  0.00000000000E+00 0. -1.
          2   -1    0    0  502    0  0.00000000000E+00 -0.00000000000E+00 -0.69911412862E+03  0.69911412862E+03  0.00000000000E+00 0.  1.
          6    2    1    2  502    0 -0.53291160484E+02  0.66662985145E+02 -0.25867655519E+03  0.32193940250E+03  0.17160278934E+03 0.  0.
         24    2    3    3    0    0 -0.70910999345E+02  0.10199817291E+03 -0.23121374721E+03  0.27361414991E+03  0.77284597620E+02 0.  0.
         -6    2    1    2    0  501  0.53291160484E+02 -0.66662985145E+02 -0.38542759109E+03  0.43218470846E+03  0.17591274222E+03 0.  0.
        -24    2    5    5    0    0  0.10179563262E+03 -0.35541663754E+02 -0.20398896185E+03  0.24175549157E+03  0.72171050049E+02 0.  0.
          5    1    3    3  502    0  0.17619838861E+02 -0.35335187766E+02 -0.27462807978E+02  0.48325252591E+02  0.47000000000E+01 0. -1.
        -13    1    4    4    0    0 -0.43609358376E+02  0.35708310667E+01 -0.78926947545E+02  0.90244058094E+02  0.00000000000E+00 0.  1.
         14    1    4    4    0    0 -0.27301640969E+02  0.98427341845E+02 -0.15228679966E+03  0.18337009182E+03  0.00000000000E+00 0. -1.
         -5    1    5    5    0  501 -0.48504472140E+02 -0.31121321391E+02 -0.18143862924E+03  0.19042921689E+03  0.47000000000E+01 0.  1.
         13    1    6    6    0    0  0.27463235966E+02  0.22433577030E+02 -0.53992708293E+02  0.64596495701E+02  0.00000000000E+00 0. -1.
        -14    1    6    6    0    0  0.74332396658E+02 -0.57975240785E+02 -0.14999625355E+03  0.17715899587E+03  0.00000000000E+00 0.  1.
</event>
<event>
12    1  0.2614920E-002  0.7873608E+03  0.7818608E-02  0.9578494E-01
          1   -1    0    0  502    0  0.00000000000E+00  0.00000000000E+00  0.40159553437E+04  0.40159553437E+04  0.00000000000E+00 0. -1.
         -1   -1    0    0    0  501 -0.00000000000E+00 -0.00000000000E+00 -0.16270676168E+03  0.16270676168E+03  0.00000000000E+00 0.  1.
          6    2    1    2  502    0  0.74226380154E+03  0.19695856763E+03  0.14546184660E+04  0.16542404240E+04  0.17563675669E+03 0.  0.
         24    2    3    3    0    0  0.45755901724E+03  0.50821915445E+02  0.89010305564E+03  0.10053086295E+04  0.80117848338E+02 0.  0.
         -6    2    1    2    0  501 -0.74226380154E+03 -0.19695856763E+03  0.23986301161E+04  0.25244216814E+04  0.17184342752E+03 0.  0.
        -24    2    5    5    0    0 -0.34601706799E+03 -0.82202034875E+02  0.92493744893E+03  0.99407116511E+03  0.78633396167E+02 0.  0.
          5    1    3    3  502    0  0.28470478430E+03  0.14613665219E+03  0.56451541036E+03  0.64893179445E+03  0.47000000000E+01 0. -1.
        -11    1    4    4    0    0  0.17955422960E+03  0.91345919271E+01  0.26897922285E+03  0.32353204549E+03  0.00000000000E+00 0.  1.
         12    1    4    4    0    0  0.27800478764E+03  0.41687323518E+02  0.62112383280E+03  0.68177658405E+03  0.00000000000E+00 0. -1.
         -5    1    5    5    0  501 -0.39624673355E+03 -0.11475653276E+03  0.14736926671E+04  0.15303505163E+04  0.47000000000E+01 0.  1.
         13    1    6    6    0    0 -0.24717940088E+03 -0.52703933212E+02  0.74455445790E+03  0.78628029454E+03  0.00000000000E+00 0. -1.
        -14    1    6    6    0    0 -0.98837667107E+02 -0.29498101663E+02  0.18038299102E+03  0.20779087057E+03  0.00000000000E+00 0.  1.
</event>
<event>
12    1  0.2614920E-002  0.2231657E+03  0.7818608E-02  0.1131545E+00
          2   -1    0    0  502    0  0.00000000000E+00  0.00000000000E+00  0.24330802740E+03  0.24330802740E+03  0.00000000000E+00 0.  1.
         -2   -1    0    0    0  501 -0.00000000000E+00 -0.00000000000E+00 -0.25366006908E+03  0.25366006908E+03  0.00000000000E+00 0. -1.
          6    2    1    2  502    0  0.90967000601E+02  0.11001718990E+03 -0.11436229859E+03  0.25124263455E+03  0.17223631675E+03 0.  0.
         24    2    3    3    0    0  0.14284613405E+02  0.43862440528E+01 -0.55274893094E+01  0.81227367778E+02  0.79649499817E+02 0.  0.
         -6    2    1    2    0  501 -0.90967000601E+02 -0.11001718990E+03  0.10401025691E+03  0.24572546193E+03  0.17083352080E+03 0.  0.
        -24    2    5    5    0    0 -0.87802689630E+02 -0.80224962722E+01  0.59744309044E+02  0.13439489770E+03  0.81969099738E+02 0.  0.
          5    1    3    3  502    0  0.76682387196E+02  0.10563094584E+03 -0.10883480928E+03  0.17001526677E+03  0.47000000000E+01 0. -1.
        -11    1    4    4    0    0  0.15115136970E+02  0.42258748327E+01  0.36218484068E+02  0.39472825740E+02  0.00000000000E+00 0.  1.
         12    1    4    4    0    0 -0.83052356476E+00  0.16036922015E+00 -0.41745973377E+02  0.41754542039E+02  0.00000000000E+00 0. -1.
         -5    1    5    5    0  501 -0.31643109707E+01 -0.10199469362E+03  0.44265947866E+02  0.11133056423E+03  0.47000000000E+01 0.  1.
         11    1    6    6    0    0 -0.55937282640E+02 -0.53065333867E+01 -0.10547459507E+02  0.57169815356E+02  0.00000000000E+00 0. -1.
        -12    1    6    6    0    0 -0.31865406990E+02 -0.27159628855E+01  0.70291768552E+02  0.77225082345E+02  0.00000000000E+00 0.  1.
</event>
<event>
12    1  0.2614920E-002  0.2571450E+03  0.7818608E-02  0.1108871E+00
         -2   -1    0    0    0  501 -0.00000000000E+00  0.00000000000E+00  0.17218735255E+03  0.17218735255E+03  0.00000000000E+00 0.  1.
          2   -1    0    0  502    0  0.00000000000E+00 -0.00000000000E+00 -0.39599730923E+03  0.39599730923E+03  0.00000000000E+00 0. -1.
          6    2    1    2  502    0 -0.40952270644E+02  0.18621108918E+03 -0.62285179987E+02  0.26408051159E+03  0.17177722419E+03 0.  0.
         24    2    3    3    0    0  0.16550240516E+02  0.18142340445E+03 -0.39047967343E+02  0.20169847278E+03  0.77260391055E+02 0.  0.
         -6    2    1    2    0  501  0.40952270644E+02 -0.18621108918E+03 -0.16152477669E+03  0.30410415018E+03  0.17331307645E+03 0.  0.
        -24    2    5    5    0    0  0.69344969325E+02 -0.19556665781E+03 -0.15879840151E+03  0.27372002399E+03  0.81551681741E+02 0.  0.
          5    1    3    3  502    0 -0.57502511160E+02  0.47876847381E+01 -0.23237212644E+02  0.62382038812E+02  0.47000000000E+01 0. -1.
        -13    1    4    4    0    0  0.11463871614E+02  0.39915363573E+02 -0.43351854499E+02  0.60033656311E+02  0.00000000000E+00 0.  1.
         14    1    4    4    0    0  0.50863689015E+01  0.14150804087E+03  0.43038871562E+01  0.14166481647E+03  0.00000000000E+00 0. -1.
         -5    1    5    5    0  501 -0.28392698681E+02  0.93555686278E+01 -0.27263751777E+01  0.30384126190E+02  0.47000000000E+01 0.  1.
         13    1    6    6    0    0  0.36085825179E+02 -0.16519004228E+02 -0.39620980667E+02  0.56079286627E+02  0.00000000000E+00 0. -1.
        -14    1    6    6    0    0  0.33259144146E+02 -0.17904765358E+03 -0.11917742084E+03  0.21764073737E+03  0.00000000000E+00 0.  1.
</event>
<event>
12    1  0.2614920E-002  0.2133256E+03  0.7818608E-02  0.1138959E+00
         -2   -1    0    0    0  501 -0.00000000000E+00  0.00000000000E+00  0.40211498321E+02  0.40211498321E+02  0.00000000000E+00 0. -1.
          2   -1    0    0  502    0  0.00000000000E+00 -0.00000000000E+00 -0.15524033503E+04  0.15524033503E+04  0.00000000000E+00 0.  1.
          6    2    1    2  502    0 -0.79927145000E+02  0.94502494083E+02 -0.33801261583E+03  0.39896519484E+03  0.17205123755E+03 0.  0.
         24    2    3    3    0    0 -0.56161631921E+02  0.88678434839E+02 -0.34781087456E+03  0.37219179102E+03  0.80847579668E+02 0.  0.
         -6    2    1    2    0  501  0.79927145000E+02 -0.94502494083E+02 -0.11741792361E+04  0.11936496538E+04  0.17545240796E+03 0.  0.
        -24    2    5    5    0    0  0.90740853349E+02 -0.39174098381E+02 -0.45785934806E+03  0.47509941912E+03  0.79471774783E+02 0.  0.
          5    1    3    3  502    0 -0.23765513079E+02  0.58240592442E+01  0.97982587301E+01  0.26773403821E+02  0.47000000000E+01 0. -1.
        -11    1    4    4    0    0 -0.68714089233E+02  0.34977378439E+02 -0.21371330601E+03  0.22719687548E+03  0.00000000000E+00 0.  1.
         12    1    4    4    0    0  0.12552457313E+02  0.53701056400E+02 -0.13409756855E+03  0.14499491555E+03  0.00000000000E+00 0. -1.
         -5    1    5    5    0  501 -0.10813708349E+02 -0.55328395703E+02 -0.71631988807E+03  0.71855023464E+03  0.47000000000E+01 0.  1.
         13    1    6    6    0    0  0.41582092239E+02  0.21655867920E+02 -0.21104403914E+03  0.21618888378E+03  0.00000000000E+00 0. -1.
        -14    1    6    6    0    0  0.49158761110E+02 -0.60829966301E+02 -0.24681530892E+03  0.25891053534E+03  0.00000000000E+00 0.  1.
</event>
<event>
12    1  0.2614920E-002  0.2055649E+03  0.7818608E-02  0.1145127E+00
         -2   -1    0    0    0  501 -0.00000000000E+00  0.00000000000E+00  0.49753209434E+02  0.49753209434E+02  0.00000000000E+00 0.  1.
          2   -1    0    0  502    0  0.00000000000E+00 -0.00000000000E+00 -0.11648564752E+04  0.11648564752E+04  0.00000000000E+00 0. -1.
          6    2    1    2  502    0  0.11382425532E+03 -0.15558592415E+02 -0.23838240945E+03  0.31374804831E+03  0.16856344144E+03 0.  0.
         24    2    3    3    0    0  0.14077403286E+03  0.19224997209E+02 -0.19997944034E+03  0.25515567122E+03  0.70183410815E+02 0.  0.
         -6    2    1    2    0  501 -0.11382425532E+03  0.15558592415E+02 -0.87672085629E+03  0.90086163629E+03  0.17237806414E+03 0.  0.
        -24    2    5    5    0    0 -0.10324079580E+03 -0.11545250956E+02 -0.35887110180E+03  0.38217378588E+03  0.80475960205E+02 0.  0.
          5    1    3    3  502    0 -0.26949777542E+02 -0.34783589624E+02 -0.38402969108E+02  0.58592377089E+02  0.47000000000E+01 0. -1.
        -11    1    4    4    0    0  0.94605678612E+02 -0.99296871713E+00 -0.17492235915E+03  0.19886943491E+03  0.00000000000E+00 0.  1.
         12    1    4    4    0    0  0.46168354248E+02  0.20217965926E+02 -0.25057081191E+02  0.56286236311E+02  0.00000000000E+00 0. -1.
         -5    1    5    5    0  501 -0.10583459522E+02  0.27103843370E+02 -0.51784975449E+03  0.51868785041E+03  0.47000000000E+01 0.  1.
         11    1    6    6    0    0 -0.59012150745E+02  0.23247011384E+02 -0.26706701259E+03  0.27449525804E+03  0.00000000000E+00 0. -1.
        -12    1    6    6    0    0 -0.44228645051E+02 -0.34792262340E+02 -0.91804089210E+02  0.10767852784E+03  0.00000000000E+00 0.  1.
</event>
<event>
12    1  0.2614920E-002  0.1952106E+03  0.7818608E-02  0.1153844E+00
          2   -1    0    0  502    0  0.00000000000E+00  0.00000000000E+00  0.59996165153E+03  0.59996165153E+03  0.00000000000E+00 0. -1.
         -2   -1    0    0    0  501 -0.00000000000E+00 -0.00000000000E+00 -0.67276870832E+02  0.67276870832E+02  0.00000000000E+00 0.  1.
          6    2    1    2  502    0 -0.86898921826E+02  0.30127130621E+02  0.18669547696E+03  0.26968196870E+03  0.17150538332E+03 0.  0.
         24    2    3    3    0    0 -0.74067234357E+02 -0.36615639506E+02  0.15777154090E+03  0.19566890469E+03  0.81041969871E+02 0.  0.
         -6    2    1    2    0  501  0.86898921826E+02 -0.30127130621E+02  0.34598930373E+03  0.39755655366E+03  0.17286858722E+03 0.  0.
        -24    2    5    5    0    0  0.44314047930E+02  0.28012719156E+01  0.32814224619E+03  0.34064997547E+03  0.79959302678E+02 0.  0.
          5    1    3    3  502    0 -0.12831687469E+02  0.66742770126E+02  0.28923936061E+02  0.74013064014E+02  0.47000000000E+01 0. -1.
        -13    1    4    4    0    0 -0.58762543160E+02  0.13603005519E+02  0.62295729269E+02  0.86711222590E+02  0.00000000000E+00 0.  1.
         14    1    4    4    0    0 -0.15304691197E+02 -0.50218645025E+02  0.95475811633E+02  0.10895768210E+03  0.00000000000E+00 0. -1.
         -5    1    5    5    0  501  0.42584873897E+02 -0.32928402536E+02  0.17847057541E+02  0.56906578190E+02  0.47000000000E+01 0.  1.
         11    1    6    6    0    0  0.38833164630E+02  0.37211036556E+02  0.15583836407E+03  0.16485833807E+03  0.00000000000E+00 0. -1.
        -12    1    6    6    0    0  0.54808832996E+01 -0.34409764641E+02  0.17230388212E+03  0.17579163740E+03  0.00000000000E+00 0.  1.
</event>
<event>
12    1  0.2614920E-002  0.2000081E+03  0.7818608E-02  0.1149732E+00
         -2   -1    0    0    0  501 -0.00000000000E+00  0.00000000000E+00  0.16829986449E+02  0.16829986449E+02  0.00000000000E+00 0. -1.
          2   -1    0    0  502    0  0.00000000000E+00 -0.00000000000E+00 -0.23912580820E+04  0.23912580820E+04  0.00000000000E+00 0.  1.
          6    2    1    2  502    0  0.81784584194E+01  0.11012968323E+03 -0.10733130551E+04  0.10910639983E+04  0.16193918608E+03 0.  0.
         24    2    3    3    0    0  0.35806088376E+02  0.65979965982E+02 -0.95980137418E+03  0.96608609963E+03  0.80425382374E+02 0.  0.
         -6    2    1    2    0  501 -0.81784584194E+01 -0.11012968323E+03 -0.13011150405E+04  0.13170240701E+04  0.17162930508E+03 0.  0.
        -24    2    5    5    0    0 -0.66130671714E+02 -0.56494072942E+02 -0.61757493413E+03  0.62892203937E+03  0.81112799960E+02 0.  0.
          5    1    3    3  502    0 -0.27627629957E+02  0.44149717247E+02 -0.11351168088E+03  0.12497789871E+03  0.47000000000E+01 0. -1.
        -13    1    4    4    0    0  0.55011633565E+01 -0.19000062437E+02 -0.17866504739E+03  0.17975668091E+03  0.00000000000E+00 0.  1.
         14    1    4    4    0    0  0.30304925019E+02  0.84980028419E+02 -0.78113632679E+03  0.78632941872E+03  0.00000000000E+00 0. -1.
         -5    1    5    5    0  501  0.57952213295E+02 -0.53635610288E+02 -0.68354010636E+03  0.68810203075E+03  0.47000000000E+01 0.  1.
         11    1    6    6    0    0  0.11620928247E+01  0.15560983099E+02 -0.38979710045E+02  0.41987050979E+02  0.00000000000E+00 0. -1.
        -12    1    6    6    0    0 -0.67292764539E+02 -0.72055056040E+02 -0.57859522409E+03  0.58693498839E+03  0.00000000000E+00 0.  1.
</event>
<event>
12    1  0.2614920E-002  0.1768457E+03  0.7818608E-02  0.1170891E+00
         -2   -1    0    0    0  501 -0.00000000000E+00  0.00000000000E+00  0.13393423219E+02  0.13393423219E+02  0.00000000000E+00 0.  1.
          2   -1    0    0  502    0  0.00000000000E+00 -0.00000000000E+00 -0.25188025812E+04  0.25188025812E+04  0.00000000000E+00 0. -1.
          6    2    1    2  502    0  0.21937122691E+02 -0.31529966562E+02 -0.15950183770E+04  0.16047980959E+04  0.17267868917E+03 0.  0.
         24    2    3    3    0    0  0.19147666487E+02 -0.74901884829E+02 -0.69754910395E+03  0.70626479640E+03  0.79109321349E+02 0.  0.
         -6    2    1    2    0  501 -0.21937122691E+02  0.31529966562E+02 -0.91039078102E+03  0.92739790849E+03  0.17256920459E+03 0.  0.
        -24    2    5    5    0    0 -0.78433281328E+02  0.23557042204E+02 -0.48412576693E+03  0.49730566757E+03  0.78920560937E+02 0.  0.
          5    1    3    3  502    0  0.27894562042E+01  0.43371918267E+02 -0.89746927300E+03  0.89853329952E+03  0.47000000000E+01 0. -1.
        -13    1    4    4    0    0  0.92688859454E+01 -0.45836043361E+02 -0.13483929247E+03  0.14271821857E+03  0.00000000000E+00 0.  1.
         14    1    4    4    0    0  0.98787805417E+01 -0.29065841467E+02 -0.56270981148E+03  0.56354657783E+03  0.00000000000E+00 0. -1.
         -5    1    5    5    0  501  0.56496158637E+02  0.79729243573E+01 -0.42626501409E+03  0.43009224092E+03  0.47000000000E+01 0.  1.
         13    1    6    6    0    0 -0.47629848577E+02 -0.10644835502E+02 -0.10976747608E+03  0.12012832223E+03  0.00000000000E+00 0. -1.
        -14    1    6    6    0    0 -0.30803432751E+02  0.34201877706E+02 -0.37435829085E+03  0.37717734534E+03  0.00000000000E+00 0.  1.
</event>
<event>
12    1  0.2614920E-002  0.1952482E+03  0.7818608E-02  0.1153811E+00
         -2   -1    0    0    0  501 -0.00000000000E+00  0.00000000000E+00  0.10298908937E+03  0.10298908937E+03  0.00000000000E+00 0.  1.
          2   -1    0    0  502    0  0.00000000000E+00 -0.00000000000E+00 -0.38491482725E+03  0.38491482725E+03  0.00000000000E+00 0. -1.
          6    2    1    2  502    0  0.40746579556E+02 -0.81714271326E+02 -0.93237967531E+02  0.21642908348E+03  0.17265782260E+03 0.  0.
         24    2    3    3    0    0  0.13830265543E+00  0.14572547993E+02 -0.67171559528E+01  0.80678854887E+02  0.79066928352E+02 0.  0.
         -6    2    1    2    0  501 -0.40746579556E+02  0.81714271326E+02 -0.18868777035E+03  0.27147483313E+03  0.17250508532E+03 0.  0.
        -24    2    5    5    0    0 -0.10260511113E+02 -0.67639900984E+01 -0.14809137902E+03  0.16935744919E+03  0.81239518750E+02 0.  0.
          5    1    3    3  502    0  0.40608276900E+02 -0.96286819318E+02 -0.86520811578E+02  0.13575022859E+03  0.47000000000E+01 0. -1.
        -13    1    4    4    0    0 -0.31010344995E+02  0.23687299289E+02  0.14805048668E+02  0.41736304465E+02  0.00000000000E+00 0.  1.
         14    1    4    4    0    0  0.31148647650E+02 -0.91147512958E+01 -0.21522204621E+02  0.38942550422E+02  0.00000000000E+00 0. -1.
         -5    1    5    5    0  501 -0.30486068443E+02  0.88478261424E+02 -0.40596391333E+02  0.10211738394E+03  0.47000000000E+01 0.  1.
         11    1    6    6    0    0  0.30330452689E+02 -0.20676039170E+02 -0.89493045988E+02  0.96728693966E+02  0.00000000000E+00 0. -1.
        -12    1    6    6    0    0 -0.40590963801E+02  0.13912049072E+02 -0.58598333029E+02  0.72628755224E+02  0.00000000000E+00 0.  1.
</event>
<event>
12    1  0.2614920E-002  0.1839057E+03  0.7818608E-02  0.1164076E+00
          2   -1    0    0  502    0  0.00000000000E+00  0.00000000000E+00  0.14951036166E+04  0.14951036166E+04  0.00000000000E+00 0.  1.
         -2   -1    0    0    0  501 -0.00000000000E+00 -0.00000000000E+00 -0.37574456488E+02  0.37574456488E+02  0.00000000000E+00 0. -1.
          6    2    1    2  502    0  0.15347700919E+02 -0.64733813870E+02  0.24439090599E+03  0.30562027200E+03  0.17102870269E+03 0.  0.
         24    2    3    3    0    0  0.23075868957E+02  0.20489747339E+02  0.84580441793E+02  0.12428010978E+03  0.85670117770E+02 0.  0.
         -6    2    1    2    0  501 -0.15347700919E+02  0.64733813870E+02  0.12131382542E+04  0.12270578011E+04  0.17187322369E+03 0.  0.
        -24    2    5    5    0    0  0.35333979213E+02  0.85129666457E+02  0.65786668710E+03  0.66908537646E+03  0.79944435706E+02 0.  0.
          5    1    3    3  502    0 -0.77281680376E+01 -0.85223561209E+02  0.15981046420E+03  0.18134016222E+03  0.47000000000E+01 0. -1.
        -13    1    4    4    0    0  0.30941261948E+02 -0.67849091277E+01  0.89973060308E+02  0.95386310674E+02  0.00000000000E+00 0.  1.
         14    1    4    4    0    0 -0.78653929909E+01  0.27274656467E+02 -0.53926185150E+01  0.28893799105E+02  0.00000000000E+00 0. -1.
         -5    1    5    5    0  501 -0.50681680132E+02 -0.20395852587E+02  0.55527156707E+03  0.55797242468E+03  0.47000000000E+01 0.  1.
         13    1    6    6    0    0  0.29212559524E+02  0.50732056816E+02  0.16675338736E+03  0.17673088982E+03  0.00000000000E+00 0. -1.
        -14    1    6    6    0    0  0.61214196890E+01  0.34397609641E+02  0.49111329974E+03  0.49235448664E+03  0.00000000000E+00 0.  1.
</event>
<event>
12    1  0.2614920E-002  0.1770836E+03  0.7818608E-02  0.1170656E+00
          2   -1    0    0  502    0  0.00000000000E+00  0.00000000000E+00  0.12107552283E+04  0.12107552283E+04  0.00000000000E+00 0. -1.
         -2   -1    0    0    0  501 -0.00000000000E+00 -0.00000000000E+00 -0.29956191297E+02  0.29956191297E+02  0.00000000000E+00 0.  1.
          6    2    1    2  502    0  0.38847840570E+02 -0.34205834945E+02  0.82404701362E+03  0.84326229777E+03  0.17134359726E+03 0.  0.
         24    2    3    3    0    0  0.78625338551E+02  0.17165144354E+02  0.52909451624E+03  0.54120221671E+03  0.80512397884E+02 0.  0.
         -6    2    1    2    0  501 -0.38847840570E+02  0.34205834945E+02  0.35675202333E+03  0.39744912178E+03  0.16737563857E+03 0.  0.
        -24    2    5    5    0    0 -0.39313778516E+01  0.35199161233E+02  0.35198262382E+03  0.36188251894E+03  0.76241414969E+02 0.  0.
          5    1    3    3  502    0 -0.39777497981E+02 -0.51370979299E+02  0.29495249738E+03  0.30206008106E+03  0.47000000000E+01 0. -1.
        -13    1    4    4    0    0  0.35151235583E+01  0.18020286830E+02  0.22365850118E+02  0.28936449032E+02  0.00000000000E+00 0.  1.
         14    1    4    4    0    0  0.75110214993E+02 -0.85514247562E+00  0.50672866612E+03  0.51226576768E+03  0.00000000000E+00 0. -1.
         -5    1    5    5    0  501 -0.34916462719E+02 -0.99332628816E+00  0.47693995129E+01  0.35566602841E+02  0.47000000000E+01 0.  1.
         11    1    6    6    0    0  0.39789913281E+01 -0.20319465642E+02  0.17517532062E+03  0.17639474485E+03  0.00000000000E+00 0. -1.
        -12    1    6    6    0    0 -0.79103691797E+01  0.55518626875E+02  0.17680730320E+03  0.18548777408E+03  0.00000000000E+00 0.  1.
</event>
<event>
12    1  0.2614920E-002  0.2163906E+03  0.7818608E-02  0.1136603E+00
         -1   -1    0    0    0  501 -0.00000000000E+00  0.00000000000E+00  0.10481248480E+03  0.10481248480E+03  0.00000000000E+00 0. -1.
          1   -1    0    0  502    0  0.00000000000E+00 -0.00000000000E+00 -0.45204846941E+03  0.45204846941E+03  0.00000000000E+00 0.  1.
          6    2    1    2  502    0 -0.11422872666E+03  0.65359719811E+02 -0.20391299686E+03  0.29746789590E+03  0.17200739472E+03 0.  0.
         24    2    3    3    0    0 -0.12246449695E+03  0.45458393199E+02 -0.86769058371E+02  0.17826771537E+03  0.84773169858E+02 0.  0.
         -6    2    1    2    0  501  0.11422872666E+03 -0.65359719811E+02 -0.14332298774E+03  0.25939305831E+03  0.17153187726E+03 0.  0.
        -24    2    5    5    0    0  0.33123740363E+02  0.26559162478E+02 -0.79796753894E+02  0.12124541226E+03  0.80810622903E+02 0.  0.
          5    1    3    3  502    0  0.82357702970E+01  0.19901326611E+02 -0.11714393849E+03  0.11920018053E+03  0.47000000000E+01 0. -1.
        -11    1    4    4    0    0  0.67855533858E+01 -0.92009705769E+01 -0.19595140472E+02  0.22686364284E+02  0.00000000000E+00 0.  1.
         12    1    4    4    0    0 -0.12925005034E+03  0.54659363776E+02 -0.67173917900E+02  0.15558135109E+03  0.00000000000E+00 0. -1.
         -5    1    5    5    0  501  0.81104986294E+02 -0.91918882289E+02 -0.63526233849E+02  0.13814764605E+03  0.47000000000E+01 0.  1.
         13    1    6    6    0    0 -0.80846322410E+01  0.28926421825E+00  0.13606638830E+02  0.15829894899E+02  0.00000000000E+00 0. -1.
        -14    1    6    6    0    0  0.41208372604E+02  0.26269898260E+02 -0.93403392724E+02  0.10541551736E+03  0.00000000000E+00 0.  1.
</event>
<event>
12    1  0.2614920E-002  0.1906483E+03  0.7818608E-02  0.1157878E+00
         -1   -1    0    0    0  501 -0.00000000000E+00  0.00000000000E+00  0.14344014288E+02  0.14344014288E+02  0.00000000000E+00 0.  1.
          1   -1    0    0  502    0  0.00000000000E+00 -0.00000000000E+00 -0.25723685796E+04  0.25723685796E+04  0.00000000000E+00 0. -1.
          6    2    1    2  502    0 -0.67537565867E+02 -0.32410829129E+02 -0.11418053518E+04  0.11581082973E+04  0.17855974424E+03 0.  0.
         24    2    3    3    0    0 -0.90935064908E+01  0.41723196454E+02 -0.34338753937E+03  0.35411535267E+03  0.75227414042E+02 0.  0.
         -6    2    1    2    0  501  0.67537565867E+02  0.32410829129E+02 -0.14162192135E+04  0.14286042966E+04  0.17210924093E+03 0.  0.
        -24    2    5    5    0    0  0.45051672712E+02 -0.47660324525E+02 -0.62388607957E+03  0.63190429646E+03  0.75947612556E+02 0.  0.
          5    1    3    3  502    0 -0.58444059376E+02 -0.74134025583E+02 -0.79841781242E+03  0.80399294463E+03  0.47000000000E+01 0. -1.
        -11    1    4    4    0    0 -0.27520912740E+02  0.26520385399E+02 -0.70579097821E+02  0.80262946176E+02  0.00000000000E+00 0.  1.
         12    1    4    4    0    0  0.18427406249E+02  0.15202811055E+02 -0.27280844154E+03  0.27385240650E+03  0.00000000000E+00 0. -1.
         -5    1    5    5    0  501  0.22485893155E+02  0.80071153654E+02 -0.79233313395E+03  0.79670000012E+03  0.47000000000E+01 0.  1.
         11    1    6    6    0    0  0.65720877448E+02 -0.40687829395E+02 -0.52348220892E+03  0.52915815807E+03  0.00000000000E+00 0. -1.
        -12    1    6    6    0    0 -0.20669204735E+02 -0.69724951295E+01 -0.10040387066E+03  0.10274613840E+03  0.00000000000E+00 0.  1.
</event>
<event>
12    1  0.2614920E-002  0.1966086E+03  0.7818608E-02  0.1152632E+00
          1   -1    0    0  502    0  0.00000000000E+00  0.00000000000E+00  0.10924753640E+03  0.10924753640E+03  0.00000000000E+00 0.  1.
         -1   -1    0    0    0  501 -0.00000000000E+00 -0.00000000000E+00 -0.41575397121E+03  0.41575397121E+03  0.00000000000E+00 0. -1.
          6    2    1    2  502    0 -0.23149110843E+02  0.92905943319E+02 -0.52169781590E+02  0.20373907529E+03  0.17210615635E+03 0.  0.
         24    2    3    3    0    0 -0.91290139732E+01  0.82824691375E+02 -0.10008815781E+03  0.15258777485E+03  0.79511768326E+02 0.  0.
         -6    2    1    2    0  501  0.23149110843E+02 -0.92905943319E+02 -0.25433665322E+03  0.32126243232E+03  0.17133307215E+03 0.  0.
        -24    2    5    5    0    0 -0.13585570708E+02 -0.23577594087E+02 -0.39787133295E+02  0.92768573900E+02  0.79262359625E+02 0.  0.
          5    1    3    3  502    0 -0.14020096869E+02  0.10081251943E+02  0.47918376222E+02  0.51151300440E+02  0.47000000000E+01 0. -1.
        -11    1    4    4    0    0 -0.41992270508E+02  0.29068243000E+02 -0.55360512118E+02  0.75319982976E+02  0.00000000000E+00 0.  1.
         12    1    4    4    0    0  0.32863256535E+02  0.53756448375E+02 -0.44727645694E+02  0.77267791875E+02  0.00000000000E+00 0. -1.
         -5    1    5    5    0  501  0.36734681550E+02 -0.69328349231E+02 -0.21454951992E+03  0.22849385842E+03  0.47000000000E+01 0.  1.
         13    1    6    6    0    0 -0.23541114993E+02 -0.45563122810E+02 -0.44825262566E+02  0.68113775548E+02  0.00000000000E+00 0. -1.
        -14    1    6    6    0    0  0.99555442855E+01  0.21985528723E+02  0.50381292712E+01  0.24654798352E+02  0.00000000000E+00 0.  1.
</event>
<event>
12    1  0.2614920E-002  0.2060640E+03  0.7818608E-02  0.1144721E+00
          2   -1    0    0  502    0  0.00000000000E+00  0.00000000000E+00  0.24756120183E+04  0.24756120183E+04  0.00000000000E+00 0.  1.
         -2   -1    0    0    0  501 -0.00000000000E+00 -0.00000000000E+00 -0.25756859341E+02  0.25756859341E+02  0.00000000000E+00 0. -1.
          6    2    1    2  502    0 -0.95630440347E+02  0.58687188536E+02  0.19462625587E+04  0.19570999313E+04  0.17237408837E+03 0.  0.
         24    2    3    3    0    0 -0.40858169231E+02  0.79769638682E+02  0.16642123217E+04  0.16689699301E+04  0.88461237771E+02 0.  0.
         -6    2    1    2    0  501  0.95630440347E+02 -0.58687188536E+02  0.50359260021E+03  0.54426894633E+03  0.17330265933E+03 0.  0.
        -24    2    5    5    0    0  0.81207062905E+02 -0.57259095286E+02  0.17963115905E+03  0.21994938381E+03  0.78975863915E+02 0.  0.
          5    1    3    3  502    0 -0.54772271117E+02 -0.21082450146E+02  0.28205023702E+03  0.28813000120E+03  0.47000000000E+01 0. -1.
        -11    1    4    4    0    0 -0.15778748250E+02 -0.11730689334E+02  0.65824234328E+03  0.65853592192E+03  0.00000000000E+00 0.  1.
         12    1    4    4    0    0 -0.25079420981E+02  0.91500328016E+02  0.10059699784E+04  0.10104340082E+04  0.00000000000E+00 0. -1.
         -5    1    5    5    0  501  0.14423377442E+02 -0.14280932498E+01  0.32396144117E+03  0.32431956251E+03  0.47000000000E+01 0.  1.
         11    1    6    6    0    0  0.16167322694E+02  0.20110299293E+02  0.39013745497E+02  0.46774766685E+02  0.00000000000E+00 0. -1.
        -12    1    6    6    0    0  0.65039740211E+02 -0.77369394579E+02  0.14061741355E+03  0.17317461713E+03  0.00000000000E+00 0.  1.
</event>
<event>
12    1  0.2614920E-002  0.1730837E+03  0.7818608E-02  0.1174670E+00
          2   -1    0    0  502    0  0.00000000000E+00  0.00000000000E+00  0.14519174369E+04  0.14519174369E+04  0.00000000000E+00 0.  1.
         -2   -1    0    0    0  501 -0.00000000000E+00 -0.00000000000E+00 -0.51677616516E+02  0.51677616516E+02  0.00000000000E+00 0. -1.
          6    2    1    2  502    0  0.40420706026E+02  0.18990833416E+02  0.11015820543E+03  0.20132124214E+03  0.16248362098E+03 0.  0.
         24    2    3    3    0    0  0.38694372833E+02  0.45811996489E+02  0.65691572322E+01  0.94199181292E+02  0.72348727826E+02 0.  0.
         -6    2    1    2    0  501 -0.40420706026E+02 -0.18990833416E+02  0.12900816149E+04  0.13022738112E+04  0.17208143726E+03 0.  0.
        -24    2    5    5    0    0 -0.44191378917E+02  0.51931472445E+02  0.68311416976E+03  0.69114717875E+03  0.79935586413E+02 0.  0.
          5    1    3    3  502    0  0.17263331926E+01 -0.26821163073E+02  0.10358904820E+03  0.10712206085E+03  0.47000000000E+01 0. -1.
        -13    1    4    4    0    0  0.50837443220E+02  0.25796272779E+02  0.27044347547E+02  0.63097464740E+02  0.00000000000E+00 0.  1.
         14    1    4    4    0    0 -0.12143070387E+02  0.20015723710E+02 -0.20475190314E+02  0.31101716552E+02  0.00000000000E+00 0. -1.
         -5    1    5    5    0  501  0.37706728910E+01 -0.70922305861E+02  0.60696744516E+03  0.61112663248E+03  0.47000000000E+01 0.  1.
         11    1    6    6    0    0 -0.54276724653E+01  0.32914770031E+02  0.82588662917E+02  0.89071482288E+02  0.00000000000E+00 0. -1.
        -12    1    6    6    0    0 -0.38763706451E+02  0.19016702413E+02  0.60052550684E+03  0.60207569646E+03  0.00000000000E+00 0.  1.
</event>
<event>
12    1  0.2614920E-002  0.2679896E+03  0.7818608E-02  0.1102436E+00
          3   -1    0    0  502    0  0.00000000000E+00  0.00000000000E+00  0.44007881345E+03  0.44007881345E+03  0.00000000000E+00 0.  1.
         -3   -1    0    0    0  501 -0.00000000000E+00 -0.00000000000E+00 -0.16344397760E+03  0.16344397760E+03  0.00000000000E+00 0. -1.
          6    2    1    2  502    0  0.12007140764E+03 -0.16607547999E+03  0.15021686207E+03  0.30740955569E+03  0.17302404831E+03 0.  0.
         24    2    3    3    0    0  0.72450883297E+02 -0.18637519747E+03  0.10321641352E+03  0.23733156320E+03  0.75417492327E+02 0.  0.
         -6    2    1    2    0  501 -0.12007140764E+03  0.16607547999E+03  0.12641797379E+03  0.29611323536E+03  0.17234655805E+03 0.  0.
        -24    2    5    5    0    0 -0.95028591318E+02  0.18532762035E+03  0.13650926708E+03  0.26262126979E+03  0.83416972587E+02 0.  0.
          5    1    3    3  502    0  0.47620524341E+02  0.20299717475E+02  0.47000448545E+02  0.70077992491E+02  0.47000000000E+01 0. -1.
        -13    1    4    4    0    0  0.70256041692E+02 -0.89379310150E+02  0.75344088231E+02  0.13638659798E+03  0.00000000000E+00 0.  1.
         14    1    4    4    0    0  0.21948416053E+01 -0.96995887318E+02  0.27872325292E+02  0.10094496522E+03  0.00000000000E+00 0. -1.
         -5    1    5    5    0  501 -0.25042816321E+02 -0.19252140356E+02 -0.10091293293E+02  0.33491965572E+02  0.47000000000E+01 0.  1.
         13    1    6    6    0    0 -0.11221768946E+02 -0.25690975861E+01 -0.53713608251E+01  0.12703538003E+02  0.00000000000E+00 0. -1.
        -14    1    6    6    0    0 -0.83806822372E+02  0.18789671793E+03  0.14188062791E+03  0.24991773179E+03  0.00000000000E+00 0.  1.
</event>
<event>
12    1  0.2614920E-002  0.2731385E+03  0.7818608E-02  0.1099497E+00
          2   -1    0    0  502    0  0.00000000000E+00  0.00000000000E+00  0.97392334645E+03  0.97392334645E+03  0.00000000000E+00 0.  1.
         -2   -1    0    0    0  501 -0.00000000000E+00 -0.00000000000E+00 -0.76713844885E+02  0.76713844885E+02  0.00000000000E+00 0. -1.
          6    2    1    2  502    0  0.55053899632E+00  0.21199186070E+03  0.42795187892E+03  0.50748447618E+03  0.17162992396E+03 0.  0.
         24    2    3    3    0    0  0.24238141288E+02  0.10195366496E+03  0.11130978068E+03  0.17139845237E+03  0.77495321846E+02 0.  0.
         -6    2    1    2    0  501 -0.55053899632E+00 -0.21199186070E+03  0.46925762265E+03  0.54315271516E+03  0.17283316659E+03 0.  0.
        -24    2    5    5    0    0 -0.23498425020E+01 -0.10924842953E+03  0.39193280468E+03  0.41446445766E+03  0.78922253964E+02 0.  0.
          5    1    3    3  502    0 -0.23687602291E+02  0.11003819574E+03  0.31664209824E+03  0.33608602381E+03  0.47000000000E+01 0. -1.
        -11    1    4    4    0    0 -0.20727520527E+02  0.11306358188E+02  0.43798401411E+02  0.49757047831E+02  0.00000000000E+00 0.  1.
         12    1    4    4    0    0  0.44965661815E+02  0.90647306771E+02  0.67511379265E+02  0.12164140454E+03  0.00000000000E+00 0. -1.
         -5    1    5    5    0  501  0.17993035056E+01 -0.10274343117E+03  0.77324817975E+02  0.12868825750E+03  0.47000000000E+01 0.  1.
         13    1    6    6    0    0  0.62564611797E+01 -0.31576507322E+02  0.29370420873E+02  0.43575689821E+02  0.00000000000E+00 0. -1.
        -14    1    6    6    0    0 -0.86063036817E+01 -0.77671922203E+02  0.36256238380E+03  0.37088876784E+03  0.00000000000E+00 0.  1.
</event>
<event>
12    1  0.2614920E-002  0.1830359E+03  0.7818608E-02  0.1164897E+00
          1   -1    0    0  502    0  0.00000000000E+00  0.00000000000E+00  0.24717228901E+02  0.24717228901E+02  0.00000000000E+00 0. -1.
         -1   -1    0    0    0  501 -0.00000000000E+00 -0.00000000000E+00 -0.16732604863E+04  0.16732604863E+04  0.00000000000E+00 0.  1.
          6    2    1    2  502    0  0.20073199402E+02  0.12717278225E+02 -0.11695940409E+04  0.11828668081E+04  0.17509712373E+03 0.  0.
         24    2    3    3    0    0 -0.30826949128E+02 -0.40063450809E+02 -0.83690126588E+03  0.84215695644E+03  0.79178466580E+02 0.  0.
         -6    2    1    2    0  501 -0.20073199402E+02 -0.12717278225E+02 -0.47894921656E+03  0.51511090714E+03  0.18810165368E+03 0.  0.
        -24    2    5    5    0    0  0.26824174029E+02  0.71442105076E+00 -0.85827310182E+02  0.11894591948E+03  0.77857291741E+02 0.  0.
          5    1    3    3  502    0  0.50900148531E+02  0.52780729034E+02 -0.33269277501E+03  0.34070985166E+03  0.47000000000E+01 0. -1.
        -13    1    4    4    0    0  0.24588767999E+02 -0.25906791271E+02 -0.26340205162E+03  0.26581273510E+03  0.00000000000E+00 0.  1.
         14    1    4    4    0    0 -0.55415717128E+02 -0.14156659538E+02 -0.57349921426E+03  0.57634422134E+03  0.00000000000E+00 0. -1.
         -5    1    5    5    0  501 -0.46897373431E+02 -0.13431699276E+02 -0.39312190637E+03  0.39616498766E+03  0.47000000000E+01 0.  1.
         11    1    6    6    0    0 -0.85368765746E+01 -0.96887880669E+01 -0.80705629723E+02  0.81732181819E+02  0.00000000000E+00 0. -1.
        -12    1    6    6    0    0  0.35361050603E+02  0.10403209118E+02 -0.51216804591E+01  0.37213737658E+02  0.00000000000E+00 0.  1.
</event>
<event>
12    1  0.2614920E-002  0.1762146E+03  0.7818608E-02  0.1171518E+00
         -1   -1    0    0    0  501 -0.00000000000E+00  0.00000000000E+00  0.27882552060E+02  0.27882552060E+02  0.00000000000E+00 0.  1.
          1   -1    0    0  502    0  0.00000000000E+00 -0.00000000000E+00 -0.11140840840E+04  0.11140840840E+04  0.00000000000E+00 0. -1.
          6    2    1    2  502    0  0.73077765125E+01  0.30207789325E+01 -0.55252182941E+03  0.58100376261E+03  0.17950618788E+03 0.  0.
         24    2    3    3    0    0  0.19272022505E+02  0.25014193238E+02 -0.11910163438E+03  0.14683558216E+03  0.79864686573E+02 0.  0.
         -6    2    1    2    0  501 -0.73077765125E+01 -0.30207789325E+01 -0.53367970255E+03  0.56096287347E+03  0.17263485104E+03 0.  0.
        -24    2    5    5    0    0  0.15911166580E+02 -0.46573818152E+02 -0.47599425063E+03  0.48489916394E+03  0.78322326338E+02 0.  0.
          5    1    3    3  502    0 -0.11964245993E+02 -0.21993414305E+02 -0.43342019503E+03  0.43416818045E+03  0.47000000000E+01 0. -1.
        -11    1    4    4    0    0  0.30817394657E+02 -0.69743112559E+01 -0.10563306539E+03  0.11025741396E+03  0.00000000000E+00 0.  1.
         12    1    4    4    0    0 -0.11545372152E+02  0.31988504494E+02 -0.13468568994E+02  0.36578168197E+02  0.00000000000E+00 0. -1.
         -5    1    5    5    0  501 -0.23218943093E+02  0.43553039220E+02 -0.57685451927E+02  0.76063709531E+02  0.47000000000E+01 0.  1.
         13    1    6    6    0    0  0.44882927360E+02 -0.30043377432E+02 -0.36584157457E+03  0.36980689472E+03  0.00000000000E+00 0. -1.
        -14    1    6    6    0    0 -0.28971760780E+02 -0.16530440721E+02 -0.11015267605E+03  0.11509226922E+03  0.00000000000E+00 0.  1.
</event>
<event>
12    1  0.2614920E-002  0.2499812E+03  0.7818608E-02  0.1113317E+00
         -2   -1    0    0    0  501 -0.00000000000E+00  0.00000000000E+00  0.11630451870E+03  0.11630451870E+03  0.00000000000E+00 0. -1.
          2   -1    0    0  502    0  0.00000000000E+00 -0.00000000000E+00 -0.64004099532E+03  0.64004099532E+03  0.00000000000E+00 0.  1.
          6    2    1    2  502    0 -0.32582810718E+02 -0.17918987214E+03 -0.41389365739E+03  0.48382948116E+03  0.17208241451E+03 0.  0.
         24    2    3    3    0    0 -0.76207676742E+02 -0.76048619003E+02 -0.18480039162E+03  0.22878622708E+03  0.81246233827E+02 0.  0.
         -6    2    1    2    0  501  0.32582810718E+02  0.17918987214E+03 -0.10984281924E+03  0.27251603286E+03  0.17037867646E+03 0.  0.
        -24    2    5    5    0    0  0.54401839213E+02  0.43493524379E+02 -0.18217375267E+02  0.10726809555E+03  0.79519335945E+02 0.  0.
          5    1    3    3  502    0  0.43624866024E+02 -0.10314125314E+03 -0.22909326577E+03  0.25504325409E+03  0.47000000000E+01 0. -1.
        -11    1    4    4    0    0 -0.73216330242E+02 -0.85305019015E+02 -0.18756456945E+03  0.21867337515E+03  0.00000000000E+00 0.  1.
         12    1    4    4    0    0 -0.29913465000E+01  0.92564000116E+01  0.27641778361E+01  0.10112851930E+02  0.00000000000E+00 0. -1.
         -5    1    5    5    0  501 -0.21819028495E+02  0.13569634776E+03 -0.91625443973E+02  0.16524793731E+03  0.47000000000E+01 0.  1.
         11    1    6    6    0    0  0.44142110005E+02  0.62104884762E+02 -0.31233119268E+02  0.82347133078E+02  0.00000000000E+00 0. -1.
        -12    1    6    6    0    0  0.10259729208E+02 -0.18611360383E+02  0.13015744002E+02  0.24920962474E+02  0.00000000000E+00 0.  1.
</event>
<event>
12    1  0.2614920E-002  0.2648747E+03  0.7818608E-02  0.1104249E+00
         -4   -1    0    0    0  501 -0.00000000000E+00  0.00000000000E+00  0.45902732016E+03  0.45902732016E+03  0.00000000000E+00 0.  1.
          4   -1    0    0  502    0  0.00000000000E+00 -0.00000000000E+00 -0.15340597903E+03  0.15340597903E+03  0.00000000000E+00 0. -1.
          6    2    1    2  502    0 -0.11105830532E+03  0.17825947819E+03  0.13212713980E+03  0.29063151063E+03  0.15132318114E+03 0.  0.
         24    2    3    3    0    0 -0.46904744517E+02  0.14254104826E+03  0.43054172816E+02  0.17509983078E+03  0.79298697622E+02 0.  0.
         -6    2    1    2    0  501  0.11105830532E+03 -0.17825947819E+03  0.17349420133E+03  0.32180178855E+03  0.17130605498E+03 0.  0.
        -24    2    5    5    0    0  0.86455044516E+02 -0.20258913196E+03  0.13768971662E+03  0.27178875405E+03  0.79961476057E+02 0.  0.
          5    1    3    3  502    0 -0.64153560807E+02  0.35718429933E+02  0.89072966984E+02  0.11553167985E+03  0.47000000000E+01 0. -1.
        -11    1    4    4    0    0  0.89775783038E+01  0.38331169543E+02  0.40990678498E+02  0.56834067200E+02  0.00000000000E+00 0.  1.
         12    1    4    4    0    0 -0.55882322820E+02  0.10420987872E+03  0.20634943179E+01  0.11826576358E+03  0.00000000000E+00 0. -1.
         -5    1    5    5    0  501  0.24603260807E+02  0.24329653770E+02  0.35804484712E+02  0.50013034505E+02  0.47000000000E+01 0.  1.
         11    1    6    6    0    0  0.67967106821E+02 -0.10496279945E+03  0.37182381535E+02  0.13045783370E+03  0.00000000000E+00 0. -1.
        -12    1    6    6    0    0  0.18487937695E+02 -0.97626332513E+02  0.10050733508E+03  0.14133092035E+03  0.00000000000E+00 0.  1.
</event>
<event>
12    1  0.2614920E-002  0.2036288E+03  0.7818608E-02  0.1146713E+00
         -1   -1    0    0    0  501 -0.00000000000E+00  0.00000000000E+00  0.38286463010E+02  0.38286463010E+02  0.00000000000E+00 0.  1.
          1   -1    0    0  502    0  0.00000000000E+00 -0.00000000000E+00 -0.16664465513E+04  0.16664465513E+04  0.00000000000E+00 0. -1.
          6    2    1    2  502    0  0.97039665885E+02 -0.15993938556E+02 -0.13318013679E+04  0.13481024803E+04  0.18442589587E+03 0.  0.
         24    2    3    3    0    0  0.87027657098E+02  0.60468968182E+02 -0.78659704675E+03  0.79745135826E+03  0.77223348883E+02 0.  0.
         -6    2    1    2    0  501 -0.97039665885E+02  0.15993938556E+02 -0.29635872044E+03  0.35663053405E+03  0.17229145019E+03 0.  0.
        -24    2    5    5    0    0 -0.12282341047E+03 -0.27699135047E+02 -0.20950995185E+03  0.25593949785E+03  0.75879999950E+02 0.  0.
          5    1    3    3  502    0  0.10012008787E+02 -0.76462906738E+02 -0.54520432113E+03  0.55065112204E+03  0.47000000000E+01 0. -1.
        -11    1    4    4    0    0  0.11603610336E+02  0.30677892232E+02 -0.83783437257E+02  0.89974669787E+02  0.00000000000E+00 0.  1.
         12    1    4    4    0    0  0.75424046762E+02  0.29791075949E+02 -0.70281360950E+03  0.70747668847E+03  0.00000000000E+00 0. -1.
         -5    1    5    5    0  501  0.25783744580E+02  0.43693073603E+02 -0.86848768594E+02  0.10069103620E+03  0.47000000000E+01 0.  1.
         13    1    6    6    0    0  0.63976261760E+01 -0.25357893062E+01  0.16737452026E+01  0.70824622199E+01  0.00000000000E+00 0. -1.
        -14    1    6    6    0    0 -0.12922103664E+03 -0.25163345741E+02 -0.21118369705E+03  0.24885703563E+03  0.00000000000E+00 0.  1.
</event>
<event>
12    1  0.2614920E-002  0.2178045E+03  0.7818608E-02  0.1135531E+00
          2   -1    0    0  502    0  0.00000000000E+00  0.00000000000E+00  0.34376566208E+03  0.34376566208E+03  0.00000000000E+00 0.  1.
         -2   -1    0    0    0  501 -0.00000000000E+00 -0.00000000000E+00 -0.14337131911E+03  0.14337131911E+03  0.00000000000E+00 0. -1.
          6    2    1    2  502    0  0.59852781494E+02 -0.11888159114E+03  0.52217757485E+02  0.22206302375E+03  0.16991204829E+03 0.  0.
         24    2    3    3    0    0  0.78324275187E+02 -0.22332376964E+02  0.48347676992E+02  0.12357437282E+03  0.79370653289E+02 0.  0.
         -6    2    1    2    0  501 -0.59852781494E+02  0.11888159114E+03  0.14817658549E+03  0.26507395744E+03  0.17490773070E+03 0.  0.
        -24    2    5    5    0    0  0.35372646112E+02  0.73108122576E+02  0.75336993825E+02  0.13665749198E+03  0.80022408084E+02 0.  0.
          5    1    3    3  502    0 -0.18471493692E+02 -0.96549214179E+02  0.38700804930E+01  0.98488650924E+02  0.47000000000E+01 0. -1.
        -11    1    4    4    0    0 -0.70869221101E+01  0.99568161634E+01  0.27239505239E+02  0.29855540503E+02  0.00000000000E+00 0.  1.
         12    1    4    4    0    0  0.85411197297E+02 -0.32289193128E+02  0.21108171754E+02  0.93718832319E+02  0.00000000000E+00 0. -1.
         -5    1    5    5    0  501 -0.95225427607E+02  0.45773468567E+02  0.72839591663E+02  0.12841646546E+03  0.47000000000E+01 0.  1.
         11    1    6    6    0    0  0.34970385007E+02  0.34657990917E+01  0.52862555649E+02  0.63477471442E+02  0.00000000000E+00 0. -1.
        -12    1    6    6    0    0  0.40226110523E+00  0.69642323485E+02  0.22474438176E+02  0.73180020536E+02  0.00000000000E+00 0.  1.
</event>
<event>
12    1  0.2614920E-002  0.1734339E+03  0.7818608E-02  0.1174313E+00
          1   -1    0    0  502    0  0.00000000000E+00  0.00000000000E+00  0.78659640572E+03  0.78659640572E+03  0.00000000000E+00 0. -1.
         -1   -1    0    0    0  501 -0.00000000000E+00 -0.00000000000E+00 -0.70415437653E+02  0.70415437653E+02  0.00000000000E+00 0.  1.
          6    2    1    2  502    0 -0.22639518449E+02 -0.24057559250E+01  0.68134212712E+02  0.18608983545E+03  0.17166484922E+03 0.  0.
         24    2    3    3    0    0  0.22061151238E+01 -0.10322141231E+02  0.11047406891E+03  0.13614258241E+03  0.78859807891E+02 0.  0.
         -6    2    1    2    0  501  0.22639518449E+02  0.24057559250E+01  0.64804675535E+03  0.67092200792E+03  0.17220164963E+03 0.  0.
        -24    2    5    5    0    0  0.47955975997E+02  0.94989385278E+01  0.63394749864E+03  0.64072076122E+03  0.79016816987E+02 0.  0.
          5    1    3    3  502    0 -0.24845633572E+02  0.79163853064E+01 -0.42339856193E+02  0.49947253042E+02  0.47000000000E+01 0. -1.
        -11    1    4    4    0    0 -0.34347633624E+02 -0.11371593970E+02  0.27430257717E+02  0.45403657599E+02  0.00000000000E+00 0.  1.
         12    1    4    4    0    0  0.36553748748E+02  0.10494527390E+01  0.83043811189E+02  0.90738924808E+02  0.00000000000E+00 0. -1.
         -5    1    5    5    0  501 -0.25316457549E+02 -0.70931826028E+01  0.14099256716E+02  0.30201246699E+02  0.47000000000E+01 0.  1.
         11    1    6    6    0    0  0.69974138953E+02  0.38999394996E+01  0.46458642482E+03  0.46984267130E+03  0.00000000000E+00 0. -1.
        -12    1    6    6    0    0 -0.22018162956E+02  0.55989990282E+01  0.16936107382E+03  0.17087808992E+03  0.00000000000E+00 0.  1.
</event>
<event>
12    1  0.2614920E-002  0.2181062E+03  0.7818608E-02  0.1135303E+00
          1   -1    0    0  502    0  0.00000000000E+00  0.00000000000E+00  0.12929405833E+03  0.12929405833E+03  0.00000000000E+00 0. -1.
         -1   -1    0    0    0  501 -0.00000000000E+00 -0.00000000000E+00 -0.52728147546E+03  0.52728147546E+03  0.00000000000E+00 0.  1.
          6    2    1    2  502    0  0.10476163460E+03 -0.80201109411E+02 -0.19173576665E+02  0.21996731165E+03  0.17495934989E+03 0.  0.
         24    2    3    3    0    0  0.88869208588E+02  0.33421668520E+01  0.34170381121E+02  0.11946996817E+03  0.72087114204E+02 0.  0.
         -6    2    1    2    0  501 -0.10476163460E+03  0.80201109411E+02 -0.37881384046E+03  0.43660822215E+03  0.17239372346E+03 0.  0.
        -24    2    5    5    0    0 -0.34589330279E+02 -0.10217441317E+02 -0.92128673296E+02  0.12788481571E+03  0.81030955627E+02 0.  0.
          5    1    3    3  502    0  0.15892426014E+02 -0.83543276263E+02 -0.53343957786E+02  0.10049734348E+03  0.47000000000E+01 0. -1.
        -13    1    4    4    0    0  0.64062113327E+02 -0.18806084438E+01 -0.13483347101E+02  0.65492684332E+02  0.00000000000E+00 0.  1.
         14    1    4    4    0    0  0.24807095262E+02  0.52227752958E+01  0.47653728221E+02  0.53977283838E+02  0.00000000000E+00 0. -1.
         -5    1    5    5    0  501 -0.70172304323E+02  0.90418550728E+02 -0.28668516717E+03  0.30872340644E+03  0.47000000000E+01 0.  1.
         13    1    6    6    0    0 -0.57865738591E+02  0.53276241848E+01 -0.75690681844E+02  0.95424874116E+02  0.00000000000E+00 0. -1.
        -14    1    6    6    0    0  0.23276408311E+02 -0.15545065502E+02 -0.16437991452E+02  0.32459941594E+02  0.00000000000E+00 0.  1.
</event>
<event>
12    1  0.2614920E-002  0.1815098E+03  0.7818608E-02  0.1166350E+00
          1   -1    0    0  502    0  0.00000000000E+00  0.00000000000E+00  0.13561547416E+03  0.13561547416E+03  0.00000000000E+00 0. -1.
         -1   -1    0    0    0  501 -0.00000000000E+00 -0.00000000000E+00 -0.26492714956E+03  0.26492714956E+03  0.00000000000E+00 0.  1.
          6    2    1    2  502    0 -0.19266612322E+01 -0.53006862290E+02 -0.67294912659E+01  0.18093136972E+03  0.17285090403E+03 0.  0.
         24    2    3    3    0    0  0.62778675855E+02 -0.32567507413E+02 -0.26967433000E+02  0.10996509491E+03  0.79770138363E+02 0.  0.
         -6    2    1    2    0  501  0.19266612322E+01  0.53006862290E+02 -0.12258218413E+03  0.21961125399E+03  0.17432518906E+03 0.  0.
        -24    2    5    5    0    0  0.26668046633E+02 -0.76038864524E+00 -0.13451545317E+03  0.15905098373E+03  0.80567024146E+02 0.  0.
          5    1    3    3  502    0 -0.64705337087E+02 -0.20439354877E+02  0.20237941734E+02  0.70966274814E+02  0.47000000000E+01 0. -1.
        -11    1    4    4    0    0 -0.14329011228E+02  0.45591883521E+01  0.85609242069E+01  0.17303068644E+02  0.00000000000E+00 0.  1.
         12    1    4    4    0    0  0.77107687083E+02 -0.37126695765E+02 -0.35528357207E+02  0.92662026265E+02  0.00000000000E+00 0. -1.
         -5    1    5    5    0  501 -0.24741385401E+02  0.53767250935E+02  0.11933269045E+02  0.60560270267E+02  0.47000000000E+01 0.  1.
         11    1    6    6    0    0 -0.14002787066E+02  0.21072613993E+02 -0.11754182790E+02  0.27897919621E+02  0.00000000000E+00 0. -1.
        -12    1    6    6    0    0  0.40670833699E+02 -0.21833002638E+02 -0.12276127038E+03  0.13115306411E+03  0.00000000000E+00 0.  1.
</event>
<event>
12    1  0.2614920E-002  0.3258400E+03  0.7818608E-02  0.1072993E+00
         -1   -1    0    0    0  501 -0.00000000000E+00  0.00000000000E+00  0.31559215588E+03  0.31559215588E+03  0.00000000000E+00 0.  1.
          1   -1    0    0  502    0  0.00000000000E+00 -0.00000000000E+00 -0.41970575658E+03  0.41970575658E+03  0.00000000000E+00 0. -1.
          6    2    1    2  502    0 -0.25399523021E+03 -0.10847055504E+03 -0.21581419390E+03  0.39072170218E+03  0.17265064143E+03 0.  0.
         24    2    3    3    0    0 -0.60694341292E+02 -0.87162280874E+01 -0.10831730668E+03  0.14804119171E+03  0.80148486069E+02 0.  0.
         -6    2    1    2    0  501  0.25399523021E+03  0.10847055504E+03  0.11170059320E+03  0.34457621027E+03  0.17313666246E+03 0.  0.
        -24    2    5    5    0    0  0.47949148823E+02  0.66414514153E+02  0.39820634846E+02  0.12228694683E+03  0.81599055402E+02 0.  0.
          5    1    3    3  502    0 -0.19330088892E+03 -0.99754326949E+02 -0.10749688722E+03  0.24268051047E+03  0.47000000000E+01 0. -1.
        -13    1    4    4    0    0 -0.66045101819E+02 -0.67509046538E+01 -0.36042583829E+02  0.75542028283E+02  0.00000000000E+00 0.  1.
         14    1    4    4    0    0  0.53507605276E+01 -0.19653234336E+01 -0.72274722848E+02  0.72499163424E+02  0.00000000000E+00 0. -1.
         -5    1    5    5    0  501  0.20604608139E+03  0.42056040884E+02  0.71879958355E+02  0.22228926344E+03  0.47000000000E+01 0.  1.
         11    1    6    6    0    0 -0.18446238371E+02 -0.13065846515E+01 -0.20701366197E+01  0.18607964400E+02  0.00000000000E+00 0. -1.
        -12    1    6    6    0    0  0.66395387193E+02  0.67721098805E+02  0.41890771466E+02  0.10367898243E+03  0.00000000000E+00 0.  1.
</event>
<event>
12    1  0.2614920E-002  0.1982238E+03  0.7818608E-02  0.1151246E+00
          2   -1    0    0  502    0  0.00000000000E+00  0.00000000000E+00  0.35248893559E+04  0.35248893559E+04  0.00000000000E+00 0.  1.
         -2   -1    0    0    0  501 -0.00000000000E+00 -0.00000000000E+00 -0.14759287645E+02  0.14759287645E+02  0.00000000000E+00 0. -1.
          6    2    1    2  502    0 -0.88251156382E+02 -0.43778851046E+02  0.26303232386E+04  0.26377786576E+04  0.17196235913E+03 0.  0.
         24    2    3    3    0    0 -0.91504478135E+02  0.29006706814E+02  0.17348775186E+04  0.17393614667E+04  0.79773735069E+02 0.  0.
         -6    2    1    2    0  501  0.88251156382E+02  0.43778851046E+02  0.87980682963E+03  0.90186998585E+03  0.17205975562E+03 0.  0.
        -24    2    5    5    0    0  0.64679081727E+00  0.15078941273E+02  0.19462310939E+03  0.21049669292E+03  0.78758556450E+02 0.  0.
          5    1    3    3  502    0  0.32533217530E+01 -0.72785557860E+02  0.89544572002E+03  0.89841719098E+03  0.47000000000E+01 0. -1.
        -13    1    4    4    0    0 -0.58842536051E+02 -0.22222442892E+02  0.10004047714E+04  0.10023801612E+04  0.00000000000E+00 0.  1.
         14    1    4    4    0    0 -0.32661942084E+02  0.51229149706E+02  0.73447274719E+03  0.73698130547E+03  0.00000000000E+00 0. -1.
         -5    1    5    5    0  501  0.87604365564E+02  0.28699909773E+02  0.68518372025E+03  0.69137329293E+03  0.47000000000E+01 0.  1.
         11    1    6    6    0    0  0.17856838110E+02  0.26676140479E+02  0.28031581449E+02  0.42617516313E+02  0.00000000000E+00 0. -1.
        -12    1    6    6    0    0 -0.17210047293E+02 -0.11597199206E+02  0.16659152794E+03  0.16787917661E+03  0.00000000000E+00 0.  1.
</event>
<event>
12    1  0.2614920E-002  0.3029190E+03  0.7818608E-02  0.1083790E+00
         -1   -1    0    0    0  501 -0.00000000000E+00  0.00000000000E+00  0.74929529220E+02  0.74929529220E+02  0.00000000000E+00 0. -1.
          1   -1    0    0  502    0  0.00000000000E+00 -0.00000000000E+00 -0.18853063099E+04  0.18853063099E+04  0.00000000000E+00 0.  1.
          6    2    1    2  502    0 -0.19272328307E+03 -0.15923625978E+03 -0.32479419215E+03  0.44406545063E+03  0.17089296920E+03 0.  0.
         24    2    3    3    0    0 -0.53739832725E+02 -0.83150700855E+02 -0.21148672441E+03  0.24921657587E+03  0.87064679503E+02 0.  0.
         -6    2    1    2    0  501  0.19272328307E+03  0.15923625978E+03 -0.14855825886E+04  0.15161703885E+04  0.17122666070E+03 0.  0.
        -24    2    5    5    0    0  0.13254602461E+03  0.69246554398E+02 -0.58516032695E+03  0.60925154502E+03  0.80070612142E+02 0.  0.
          5    1    3    3  502    0 -0.13898345034E+03 -0.76085558927E+02 -0.11330746775E+03  0.19484887476E+03  0.47000000000E+01 0. -1.
        -13    1    4    4    0    0 -0.17866688403E+02  0.16702294180E+02 -0.27283948884E+02  0.36641493584E+02  0.00000000000E+00 0.  1.
         14    1    4    4    0    0 -0.35873144322E+02 -0.99852995035E+02 -0.18420277552E+03  0.21257508229E+03  0.00000000000E+00 0. -1.
         -5    1    5    5    0  501  0.60177258461E+02  0.89989705384E+02 -0.90042226161E+03  0.90691884351E+03  0.47000000000E+01 0.  1.
         11    1    6    6    0    0  0.46711385599E+01 -0.13040328969E+02 -0.22647471952E+02  0.26547649630E+02  0.00000000000E+00 0. -1.
        -12    1    6    6    0    0  0.12787488605E+03  0.82286883367E+02 -0.56251285500E+03  0.58270389539E+03  0.00000000000E+00 0.  1.
</event>
<event>
12    1  0.2614920E-002  0.1996665E+03  0.7818608E-02  0.1150021E+00
         -1   -1    0    0    0  501 -0.00000000000E+00  0.00000000000E+00  0.45551221399E+02  0.45551221399E+02  0.00000000000E+00 0.  1.
          1   -1    0    0  502    0  0.00000000000E+00 -0.00000000000E+00 -0.98866818648E+03  0.98866818648E+03  0.00000000000E+00 0. -1.
          6    2    1    2  502    0 -0.93166751766E+02 -0.43823062834E+02 -0.64433995884E+03  0.67423282979E+03  0.16975105811E+03 0.  0.
         24    2    3    3    0    0 -0.56931500513E+02  0.28758036915E+02 -0.48049597320E+03  0.49134501963E+03  0.80469420347E+02 0.  0.
         -6    2    1    2    0  501  0.93166751766E+02  0.43823062834E+02 -0.29877700624E+03  0.35998657809E+03  0.17240108027E+03 0.  0.
        -24    2    5    5    0    0  0.12721663559E+03  0.12147508617E+02 -0.25208377480E+03  0.29391780192E+03  0.80683396249E+02 0.  0.
          5    1    3    3  502    0 -0.36235251253E+02 -0.72581099749E+02 -0.16384398564E+03  0.18288781016E+03  0.47000000000E+01 0. -1.
        -13    1    4    4    0    0 -0.22088545448E+02 -0.72094051117E+01 -0.29376964782E+02  0.37455112093E+02  0.00000000000E+00 0.  1.
         14    1    4    4    0    0 -0.34842955065E+02  0.35967442027E+02 -0.45111900842E+03  0.45388990754E+03  0.00000000000E+00 0. -1.
         -5    1    5    5    0  501 -0.34049883822E+02  0.31675554216E+02 -0.46693231435E+02  0.66068776174E+02  0.47000000000E+01 0.  1.
         11    1    6    6    0    0  0.57023766736E+02  0.13377348675E+02 -0.19447235578E+03  0.20310135547E+03  0.00000000000E+00 0. -1.
        -12    1    6    6    0    0  0.70192868852E+02 -0.12298400576E+01 -0.57611419024E+02  0.90816446452E+02  0.00000000000E+00 0.  1.
</event>
<event>
12    1  0.2614920E-002  0.2247588E+03  0.7818608E-02  0.1130384E+00
         -2   -1    0    0    0  501 -0.00000000000E+00  0.00000000000E+00  0.12175828425E+03  0.12175828425E+03  0.00000000000E+00 0.  1.
          2   -1    0    0  502    0  0.00000000000E+00 -0.00000000000E+00 -0.42071746788E+03  0.42071746788E+03  0.00000000000E+00 0. -1.
          6    2    1    2  502    0  0.11387497933E+03  0.91368563034E+02 -0.18206654004E+03  0.29007557770E+03  0.17227852607E+03 0.  0.
         24    2    3    3    0    0  0.13071182110E+02 -0.93016650450E+01 -0.93129571247E+02  0.12206434363E+03  0.77260663795E+02 0.  0.
         -6    2    1    2    0  501 -0.11387497933E+03 -0.91368563034E+02 -0.11689264359E+03  0.25240017443E+03  0.16948814914E+03 0.  0.
        -24    2    5    5    0    0 -0.74986911615E+02  0.12714565654E+02 -0.39549631611E+02  0.11693943846E+03  0.79535915236E+02 0.  0.
          5    1    3    3  502    0  0.10080379722E+03  0.10067022808E+03 -0.88936968791E+02  0.16801123407E+03  0.47000000000E+01 0. -1.
        -13    1    4    4    0    0 -0.23056874044E+02  0.12498276230E+01 -0.16556626174E+01  0.23150004934E+02  0.00000000000E+00 0.  1.
         14    1    4    4    0    0  0.36128056154E+02 -0.10551492668E+02 -0.91473908630E+02  0.98914338692E+02  0.00000000000E+00 0. -1.
         -5    1    5    5    0  501 -0.38888067718E+02 -0.10408312869E+03 -0.77343011983E+02  0.13546073598E+03  0.47000000000E+01 0.  1.
         13    1    6    6    0    0  0.73207428583E+01  0.22489984348E+02 -0.21817967336E+02  0.32177886361E+02  0.00000000000E+00 0. -1.
        -14    1    6    6    0    0 -0.82307654473E+02 -0.97754186942E+01 -0.17731664275E+02  0.84761552094E+02  0.00000000000E+00 0.  1.
</event>
<event>
12    1  0.2614920E-002  0.2169039E+03  0.7818608E-02  0.1136213E+00
          1   -1    0    0  502    0  0.00000000000E+00  0.00000000000E+00  0.69668703964E+03  0.69668703964E+03  0.00000000000E+00 0. -1.
         -1   -1    0    0    0  501 -0.00000000000E+00 -0.00000000000E+00 -0.54886797937E+03  0.54886797937E+03  0.00000000000E+00 0.  1.
          6    2    1    2  502    0  0.13012013060E+03  0.28828040646E+02  0.65716397418E+03  0.69239400270E+03  0.17257653866E+03 0.  0.
         24    2    3    3    0    0  0.11294170120E+03 -0.53836202035E+01  0.27306517627E+03  0.30636354699E+03  0.80679744653E+02 0.  0.
         -6    2    1    2    0  501 -0.13012013060E+03 -0.28828040646E+02 -0.50934491392E+03  0.55316101631E+03  0.16968371849E+03 0.  0.
        -24    2    5    5    0    0 -0.16569183377E+02  0.37286841367E+01 -0.11296623681E+03  0.13952844554E+03  0.80114764751E+02 0.  0.
          5    1    3    3  502    0  0.17178429394E+02  0.34211660849E+02  0.38409879792E+03  0.38603045571E+03  0.47000000000E+01 0. -1.
        -13    1    4    4    0    0  0.78914295018E+02  0.11290704744E+02  0.24905940726E+03  0.26150627969E+03  0.00000000000E+00 0.  1.
         14    1    4    4    0    0  0.34027406185E+02 -0.16674324948E+02  0.24005769008E+02  0.44857267302E+02  0.00000000000E+00 0. -1.
         -5    1    5    5    0  501 -0.11355094722E+03 -0.32556724782E+02 -0.39637867710E+03  0.41363257077E+03  0.47000000000E+01 0.  1.
         13    1    6    6    0    0 -0.17289645456E+02  0.39947667538E+02 -0.77170231430E+02  0.88600183976E+02  0.00000000000E+00 0. -1.
        -14    1    6    6    0    0  0.72046207887E+00 -0.36218983401E+02 -0.35796005384E+02  0.50928261562E+02  0.00000000000E+00 0.  1.
</event>
<event>
12    1  0.2614920E-002  0.2756032E+03  0.7818608E-02  0.1098115E+00
         -2   -1    0    0    0  501 -0.00000000000E+00  0.00000000000E+00  0.72491117944E+02  0.72491117944E+02  0.00000000000E+00 0. -1.
          2   -1    0    0  502    0  0.00000000000E+00 -0.00000000000E+00 -0.12156432268E+04  0.12156432268E+04  0.00000000000E+00 0.  1.
          6    2    1    2  502    0 -0.88640830944E+02 -0.19764317867E+03 -0.81316231057E+03  0.85901129128E+03  0.17247443938E+03 0.  0.
         24    2    3    3    0    0 -0.76608086763E+02 -0.14074739155E+03 -0.75750497620E+03  0.77837788386E+03  0.79873111376E+02 0.  0.
         -6    2    1    2    0  501  0.88640830944E+02  0.19764317867E+03 -0.32998979829E+03  0.42912305347E+03  0.16832499831E+03 0.  0.
        -24    2    5    5    0    0  0.10344160495E+03  0.11678014897E+03 -0.14739970611E+03  0.22882546425E+03  0.79351439182E+02 0.  0.
          5    1    3    3  502    0 -0.12032744181E+02 -0.56895787118E+02 -0.55657334365E+02  0.80633407425E+02  0.47000000000E+01 0. -1.
        -11    1    4    4    0    0 -0.92828020329E+02 -0.12736828655E+03 -0.64984569138E+03  0.66868463746E+03  0.00000000000E+00 0.  1.
         12    1    4    4    0    0  0.16219933566E+02 -0.13379105000E+02 -0.10765928483E+03  0.10969324640E+03  0.00000000000E+00 0. -1.
         -5    1    5    5    0  501 -0.14800774002E+02  0.80863029691E+02 -0.18259009219E+03  0.20029758922E+03  0.47000000000E+01 0.  1.
         13    1    6    6    0    0  0.35339549169E+02  0.44226619144E+01 -0.63890455735E+02  0.73146660949E+02  0.00000000000E+00 0. -1.
        -14    1    6    6    0    0  0.68102055777E+02  0.11235748706E+03 -0.83509250372E+02  0.15567880330E+03  0.00000000000E+00 0.  1.
</event>
<event>
12    1  0.2614920E-002  0.2884177E+03  0.7818608E-02  0.1091178E+00
         -1   -1    0    0    0  501 -0.00000000000E+00  0.00000000000E+00  0.49003066830E+03  0.49003066830E+03  0.00000000000E+00 0. -1.
          1   -1    0    0  502    0  0.00000000000E+00 -0.00000000000E+00 -0.17777770802E+03  0.17777770802E+03  0.00000000000E+00 0.  1.
          6    2    1    2  502    0 -0.23082577864E+03  0.25317530698E+02  0.85010782798E+02  0.30034897509E+03  0.17047332989E+03 0.  0.
         24    2    3    3    0    0 -0.53447864989E+02 -0.30559448641E+02  0.16430487940E+02  0.10208019814E+03  0.79748678645E+02 0.  0.
         -6    2    1    2    0  501  0.23082577864E+03 -0.25317530698E+02  0.22724217748E+03  0.36745940124E+03  0.17165630453E+03 0.  0.
        -24    2    5    5    0    0  0.44956401449E+02 -0.46404114461E+02  0.56255932067E+02  0.11398266559E+03  0.75185758577E+02 0.  0.
          5    1    3    3  502    0 -0.17737791365E+03  0.55876979339E+02  0.68580294858E+02  0.19826877695E+03  0.47000000000E+01 0. -1.
        -13    1    4    4    0    0 -0.56419947880E+02 -0.37343397212E+02 -0.15408286997E+02  0.69391318926E+02  0.00000000000E+00 0.  1.
         14    1    4    4    0    0  0.29720828902E+01  0.67839485716E+01  0.31838774937E+02  0.32688879216E+02  0.00000000000E+00 0. -1.
         -5    1    5    5    0  501  0.18586937719E+03  0.21086583763E+02  0.17098624542E+03  0.25347673564E+03  0.47000000000E+01 0.  1.
         11    1    6    6    0    0  0.33473395112E+02 -0.59717723793E+02  0.64951491769E+02  0.94368273261E+02  0.00000000000E+00 0. -1.
        -12    1    6    6    0    0  0.11483006338E+02  0.13313609332E+02 -0.86955597021E+01  0.19614392332E+02  0.00000000000E+00 0.  1.
</event>
<event>
12    1  0.2614920E-002  0.1921760E+03  0.7818608E-02  0.1156513E+00
          1   -1    0    0  502    0  0.00000000000E+00  0.00000000000E+00  0.53908042139E+03  0.53908042139E+03  0.00000000000E+00 0. -1.
         -1   -1    0    0    0  501 -0.00000000000E+00 -0.00000000000E+00 -0.70589692787E+02  0.70589692787E+02  0.00000000000E+00 0.  1.
          6    2    1    2  502    0 -0.84507582380E+02 -0.19224136727E+02  0.28640031525E+03  0.34481335744E+03  0.17134763490E+03 0.  0.
         24    2    3    3    0    0 -0.10095117424E+03  0.29217173949E+02  0.15424733812E+03  0.20302671613E+03  0.79892573562E+02 0.  0.
         -6    2    1    2    0  501  0.84507582380E+02  0.19224136727E+02  0.18209041336E+03  0.26485675673E+03  0.17170056505E+03 0.  0.
        -24    2    5    5    0    0  0.84869644556E+02 -0.15896371494E+02  0.19495764355E+03  0.22715746232E+03  0.78335679696E+02 0.  0.
          5    1    3    3  502    0  0.16443591856E+02 -0.48441310676E+02  0.13215297712E+03  0.14178664132E+03  0.47000000000E+01 0. -1.
        -13    1    4    4    0    0 -0.29463182370E+02 -0.23477686765E+02  0.21696954371E+02  0.43474575560E+02  0.00000000000E+00 0.  1.
         14    1    4    4    0    0 -0.71487991866E+02  0.52694860714E+02  0.13255038375E+03  0.15955214057E+03  0.00000000000E+00 0. -1.
         -5    1    5    5    0  501 -0.36206217586E+00  0.35120508221E+02 -0.12867230193E+02  0.37699294417E+02  0.47000000000E+01 0.  1.
         13    1    6    6    0    0  0.10403447194E+02 -0.35650979544E+02  0.86367227960E+02  0.94013414583E+02  0.00000000000E+00 0. -1.
        -14    1    6    6    0    0  0.74466197362E+02  0.19754608050E+02  0.10859041559E+03  0.13314404773E+03  0.00000000000E+00 0.  1.
</event>
<event>
12    1  0.2614920E-002  0.1883597E+03  0.7818608E-02  0.1159949E+00
          2   -1    0    0  502    0  0.00000000000E+00  0.00000000000E+00  0.22376781789E+04  0.22376781789E+04  0.00000000000E+00 0.  1.
         -2   -1    0    0    0  501 -0.00000000000E+00 -0.00000000000E+00 -0.16414687278E+02  0.16414687278E+02  0.00000000000E+00 0. -1.
          6    2    1    2  502    0  0.25550353253E+02  0.66148146869E+02  0.89102573302E+03  0.91028801341E+03  0.17224695226E+03 0.  0.
         24    2    3    3    0    0 -0.51373761197E+01  0.41685626342E+02  0.84440627061E+03  0.84916832820E+03  0.79377677541E+02 0.  0.
         -6    2    1    2    0  501 -0.25550353253E+02 -0.66148146869E+02  0.13302377586E+04  0.13438048527E+04  0.17677836416E+03 0.  0.
        -24    2    5    5    0    0  0.38597113482E+02 -0.70317990604E+02  0.10670167552E+04  0.10728073035E+04  0.77177701215E+02 0.  0.
          5    1    3    3  502    0  0.30687729372E+02  0.24462520527E+02  0.46619462409E+02  0.61119685208E+02  0.47000000000E+01 0. -1.
        -13    1    4    4    0    0 -0.24488577971E+02 -0.13947755044E+02  0.18470241658E+03  0.18684007336E+03  0.00000000000E+00 0.  1.
         14    1    4    4    0    0  0.19351201851E+02  0.55633381386E+02  0.65970385403E+03  0.66232825484E+03  0.00000000000E+00 0. -1.
         -5    1    5    5    0  501 -0.64147466735E+02  0.41698437347E+01  0.26322100332E+03  0.27099754920E+03  0.47000000000E+01 0.  1.
         13    1    6    6    0    0 -0.78318665263E+01  0.98045182281E+01  0.48773341340E+02  0.50361746757E+02  0.00000000000E+00 0. -1.
        -14    1    6    6    0    0  0.46428980009E+02 -0.80122508832E+02  0.10182434139E+04  0.10224455568E+04  0.00000000000E+00 0.  1.
</event>
<event>
12    1  0.2614920E-002  0.2185992E+03  0.7818608E-02  0.1134932E+00
          1   -1    0    0  502    0  0.00000000000E+00  0.00000000000E+00  0.71900516734E+03  0.71900516734E+03  0.00000000000E+00 0. -1.
         -1   -1    0    0    0  501 -0.00000000000E+00 -0.00000000000E+00 -0.67643935604E+02  0.67643935604E+02  0.00000000000E+00 0.  1.
          6    2    1    2  502    0  0.13421961109E+03  0.12334112892E+02  0.27433454453E+03  0.35106233063E+03  0.17267971311E+03 0.  0.
         24    2    3    3    0    0  0.40602036675E+02  0.54309311627E+02  0.19353833691E+03  0.22038607144E+03  0.80714967142E+02 0.  0.
         -6    2    1    2    0  501 -0.13421961109E+03 -0.12334112892E+02  0.37702668720E+03  0.43558677231E+03  0.17152165756E+03 0.  0.
        -24    2    5    5    0    0 -0.12801883299E+03  0.25404122282E+02  0.36421557811E+03  0.39498087916E+03  0.79515511243E+02 0.  0.
          5    1    3    3  502    0  0.93617574416E+02 -0.41975198735E+02  0.80796207626E+02  0.13067625919E+03  0.47000000000E+01 0. -1.
        -13    1    4    4    0    0 -0.60083471690E+01  0.30893627542E+02  0.15925758511E+02  0.35272457280E+02  0.00000000000E+00 0.  1.
         14    1    4    4    0    0  0.46610383844E+02  0.23415684085E+02  0.17761257840E+03  0.18511361416E+03  0.00000000000E+00 0. -1.
         -5    1    5    5    0  501 -0.62007781010E+01 -0.37738235175E+02  0.12811109086E+02  0.40605893158E+02  0.47000000000E+01 0.  1.
         13    1    6    6    0    0 -0.62286405313E+02 -0.24176193360E+02  0.20692232545E+03  0.21744179309E+03  0.00000000000E+00 0. -1.
        -14    1    6    6    0    0 -0.65732427677E+02  0.49580315643E+02  0.15729325266E+03  0.17753908607E+03  0.00000000000E+00 0.  1.
</event>
<event>
12    1  0.2614920E-002  0.1746913E+03  0.7818608E-02  0.1173042E+00
         -1   -1    0    0    0  501 -0.00000000000E+00  0.00000000000E+00  0.56850396774E+02  0.56850396774E+02  0.00000000000E+00 0. -1.
          1   -1    0    0  502    0  0.00000000000E+00 -0.00000000000E+00 -0.94040482807E+03  0.94040482807E+03  0.00000000000E+00 0.  1.
          6    2    1    2  502    0 -0.62819310639E+00  0.27805233818E+02 -0.11428784483E+03  0.20827507300E+03  0.17188155487E+03 0.  0.
         24    2    3    3    0    0 -0.44024903940E+01 -0.48892947896E+02 -0.25033784434E+02  0.90439451498E+02  0.71712633117E+02 0.  0.
         -6    2    1    2    0  501  0.62819310639E+00 -0.27805233818E+02 -0.76926658648E+03  0.78898015185E+03  0.17304644836E+03 0.  0.
        -24    2    5    5    0    0 -0.21426272114E+02 -0.55308919231E+02 -0.24961133411E+03  0.26810922402E+03  0.77836856340E+02 0.  0.
          5    1    3    3  502    0  0.37742972876E+01  0.76698181714E+02 -0.89254060391E+02  0.11783562150E+03  0.47000000000E+01 0. -1.
        -13    1    4    4    0    0  0.55667408597E+01 -0.43192096217E+02 -0.47969639212E+02  0.64789135397E+02  0.00000000000E+00 0.  1.
         14    1    4    4    0    0 -0.99692312537E+01 -0.57008516786E+01  0.22935854778E+02  0.25650316100E+02  0.00000000000E+00 0. -1.
         -5    1    5    5    0  501  0.22054465220E+02  0.27503685412E+02 -0.51965525236E+03  0.52087092783E+03  0.47000000000E+01 0.  1.
         11    1    6    6    0    0 -0.61778055015E+01 -0.28792613348E+02 -0.18056857603E+02  0.34543160983E+02  0.00000000000E+00 0. -1.
        -12    1    6    6    0    0 -0.15248466612E+02 -0.26516305883E+02 -0.23155447651E+03  0.23356606304E+03  0.00000000000E+00 0.  1.
</event>
<event>
12    1  0.2614920E-002  0.2065534E+03  0.7818608E-02  0.1144325E+00
          2   -1    0    0  502    0  0.00000000000E+00  0.00000000000E+00  0.13058464919E+04  0.13058464919E+04  0.00000000000E+00 0.  1.
         -2   -1    0    0    0  501 -0.00000000000E+00 -0.00000000000E+00 -0.47306817548E+02  0.47306817548E+02  0.00000000000E+00 0. -1.
          6    2    1    2  502    0 -0.24835443945E+01 -0.11314319902E+03  0.10055436308E+04  0.10265349937E+04  0.17276732453E+03 0.  0.
         24    2    3    3    0    0  0.53500250710E+01 -0.13024318277E+03  0.99004175548E+03  0.10017121737E+04  0.79073965149E+02 0.  0.
         -6    2    1    2    0  501  0.24835443945E+01  0.11314319902E+03  0.25299604351E+03  0.32661831568E+03  0.17281485650E+03 0.  0.
        -24    2    5    5    0    0  0.43819971767E+02  0.12006592157E+03  0.23924530771E+03  0.28225845713E+03  0.78073708190E+02 0.  0.
          5    1    3    3  502    0 -0.78335694655E+01  0.17099983744E+02  0.15501875325E+02  0.24822820009E+02  0.47000000000E+01 0. -1.
        -13    1    4    4    0    0 -0.62597041626E+01 -0.62637731641E+02  0.22617844328E+03  0.23477512118E+03  0.00000000000E+00 0.  1.
         14    1    4    4    0    0  0.11609729234E+02 -0.67605451128E+02  0.76386331220E+03  0.76693705254E+03  0.00000000000E+00 0. -1.
         -5    1    5    5    0  501 -0.41336427372E+02 -0.69227225502E+01  0.13750735799E+02  0.44359858549E+02  0.47000000000E+01 0.  1.
         13    1    6    6    0    0  0.79710877218E+01  0.82599473422E+01 -0.40021286719E+01  0.12156562157E+02  0.00000000000E+00 0. -1.
        -14    1    6    6    0    0  0.35848884045E+02  0.11180597423E+03  0.24324743638E+03  0.27010189497E+03  0.00000000000E+00 0.  1.
</event>
<event>
12    1  0.2614920E-002  0.2391578E+03  0.7818608E-02  0.1120355E+00
         -2   -1    0    0    0  501 -0.00000000000E+00  0.00000000000E+00  0.14626681274E+03  0.14626681274E+03  0.00000000000E+00 0. -1.
          2   -1    0    0  502    0  0.00000000000E+00 -0.00000000000E+00 -0.59491476626E+03  0.59491476626E+03  0.00000000000E+00 0.  1.
          6    2    1    2  502    0  0.99697309620E+01 -0.16474187395E+03 -0.66764657267E+01  0.23810213879E+03  0.17148986190E+03 0.  0.
         24    2    3    3    0    0 -0.55445936849E+02 -0.12834330897E+03 -0.14051769023E+02  0.16273271378E+03  0.82086704471E+02 0.  0.
         -6    2    1    2    0  501 -0.99697309620E+01  0.16474187395E+03 -0.44197148779E+03  0.50307944021E+03  0.17467354286E+03 0.  0.
        -24    2    5    5    0    0 -0.25030145813E+02  0.26047973933E+02 -0.12099217236E+03  0.15306140506E+03  0.86508281690E+02 0.  0.
          5    1    3    3  502    0  0.65415667811E+02 -0.36398564976E+02  0.73753032963E+01  0.75369425009E+02  0.47000000000E+01 0. -1.
        -11    1    4    4    0    0 -0.57217352649E+02 -0.95686883560E+02  0.22445784032E+02  0.11372606715E+03  0.00000000000E+00 0.  1.
         12    1    4    4    0    0  0.17714157996E+01 -0.32656425414E+02 -0.36497553055E+02  0.49006646629E+02  0.00000000000E+00 0. -1.
         -5    1    5    5    0  501  0.15060414851E+02  0.13869390002E+03 -0.32097931543E+03  0.35001803515E+03  0.47000000000E+01 0.  1.
         11    1    6    6    0    0 -0.39256803935E+02  0.38419692353E+02 -0.12239518979E+03  0.13415570021E+03  0.00000000000E+00 0. -1.
        -12    1    6    6    0    0  0.14226658121E+02 -0.12371718420E+02  0.14030174279E+01  0.18905704850E+02  0.00000000000E+00 0.  1.
</event>
<event>
12    1  0.2614920E-002  0.4356590E+03  0.7818608E-02  0.1032087E+00
          3   -1    0    0  502    0  0.00000000000E+00  0.00000000000E+00  0.14250607406E+04  0.14250607406E+04  0.00000000000E+00 0. -1.
         -3   -1    0    0    0  501 -0.00000000000E+00 -0.00000000000E+00 -0.14407749777E+03  0.14407749777E+03  0.00000000000E+00 0.  1.
          6    2    1    2  502    0 -0.22627980976E+03  0.33001544734E+03  0.85559336071E+03  0.95992217842E+03  0.17116612384E+03 0.  0.
         24    2    3    3    0    0 -0.11857777342E+03  0.83082626341E+02  0.30622496644E+03  0.34803716525E+03  0.79954531944E+02 0.  0.
         -6    2    1    2    0  501  0.22627980976E+03 -0.33001544734E+03  0.42538988209E+03  0.60921605993E+03  0.17342118700E+03 0.  0.
        -24    2    5    5    0    0  0.19821688082E+03 -0.34460573770E+03  0.39483300214E+03  0.56498691268E+03  0.72622762457E+02 0.  0.
          5    1    3    3  502    0 -0.10770203634E+03  0.24693282100E+03  0.54936839427E+03  0.61188501317E+03  0.47000000000E+01 0. -1.
        -13    1    4    4    0    0  0.66015560564E+00 -0.11358241475E+02  0.10479706040E+02  0.15468344886E+02  0.00000000000E+00 0.  1.
         14    1    4    4    0    0 -0.11923792903E+03  0.94440867816E+02  0.29574526040E+03  0.33256882037E+03  0.00000000000E+00 0. -1.
         -5    1    5    5    0  501  0.28062928943E+02  0.14590290360E+02  0.30556879950E+02  0.44229147244E+02  0.47000000000E+01 0.  1.
         11    1    6    6    0    0  0.13949545572E+02 -0.80533888157E+02  0.90069009023E+02  0.12162534008E+03  0.00000000000E+00 0. -1.
        -12    1    6    6    0    0  0.18426733524E+03 -0.26407184954E+03  0.30476399312E+03  0.44336157260E+03  0.00000000000E+00 0.  1.
</event>
<event>
12    1  0.2614920E-002  0.2494386E+03  0.7818608E-02  0.1113660E+00
         -2   -1    0    0    0  501 -0.00000000000E+00  0.00000000000E+00  0.69363539520E+03  0.69363539520E+03  0.00000000000E+00 0. -1.
          2   -1    0    0  502    0  0.00000000000E+00 -0.00000000000E+00 -0.94439570801E+02  0.94439570801E+02  0.00000000000E+00 0.  1.
          6    2    1    2  502    0  0.13516707013E+03  0.12092899338E+03  0.21115719486E+03  0.32669662681E+03  0.17102446241E+03 0.  0.
         24    2    3    3    0    0  0.16536717419E+03  0.86369535628E+02  0.17341928735E+03  0.26709258275E+03  0.80362923981E+02 0.  0.
         -6    2    1    2    0  501 -0.13516707013E+03 -0.12092899338E+03  0.38803862954E+03  0.46137833919E+03  0.17147021773E+03 0.  0.
        -24    2    5    5    0    0 -0.38569665317E+02 -0.90967929949E+02  0.11965679526E+03  0.17453409067E+03  0.79885022323E+02 0.  0.
          5    1    3    3  502    0 -0.30200104060E+02  0.34559457755E+02  0.37737907508E+02  0.59604044063E+02  0.47000000000E+01 0. -1.
        -11    1    4    4    0    0  0.11086867941E+03  0.62924367603E+02  0.64045922274E+02  0.14266471278E+03  0.00000000000E+00 0.  1.
         12    1    4    4    0    0  0.54498494777E+02  0.23445168024E+02  0.10937336508E+03  0.12442786997E+03  0.00000000000E+00 0. -1.
         -5    1    5    5    0  501 -0.96597404812E+02 -0.29961063434E+02  0.26838183428E+03  0.28684424852E+03  0.47000000000E+01 0.  1.
         11    1    6    6    0    0 -0.59875107601E+02 -0.67000102023E+02  0.10781315425E+03  0.14034856041E+03  0.00000000000E+00 0. -1.
        -12    1    6    6    0    0  0.21305442285E+02 -0.23967827926E+02  0.11843641017E+02  0.34185530257E+02  0.00000000000E+00 0.  1.
</event>
<event>
12    1  0.2614920E-002  0.2440151E+03  0.7818608E-02  0.1117147E+00
         -2   -1    0    0    0  501 -0.00000000000E+00  0.00000000000E+00  0.99696210989E+03  0.99696210989E+03  0.00000000000E+00 0.  1.
          2   -1    0    0  502    0  0.00000000000E+00 -0.00000000000E+00 -0.60333301510E+02  0.60333301510E+02  0.00000000000E+00 0. -1.
          6    2    1    2  502    0  0.96541318091E+02 -0.14258075460E+03  0.52383417675E+03  0.57843990224E+03  0.17475977251E+03 0.  0.
         24    2    3    3    0    0  0.84827448343E+02 -0.15526688470E+03  0.52582890997E+03  0.56043374768E+03  0.79287082818E+02 0.  0.
         -6    2    1    2    0  501 -0.96541318091E+02  0.14258075460E+03  0.41279463163E+03  0.47885550916E+03  0.17103711022E+03 0.  0.
        -24    2    5    5    0    0  0.14431342820E+02  0.33666743593E+02  0.14967353261E+03  0.17318903078E+03  0.79060487831E+02 0.  0.
          5    1    3    3  502    0  0.11713869747E+02  0.12686130104E+02 -0.19947332159E+01  0.18006154561E+02  0.47000000000E+01 0. -1.
        -13    1    4    4    0    0  0.31657641166E+02 -0.31279057788E+02  0.24343991771E+03  0.24747440117E+03  0.00000000000E+00 0.  1.
         14    1    4    4    0    0  0.53169807177E+02 -0.12398782691E+03  0.28238899226E+03  0.31295934651E+03  0.00000000000E+00 0. -1.
         -5    1    5    5    0  501 -0.11097266091E+03  0.10891401100E+03  0.26312109902E+03  0.30566647839E+03  0.47000000000E+01 0.  1.
         13    1    6    6    0    0  0.13792243133E+02  0.76550594347E+01 -0.48399754231E+01  0.16500038415E+02  0.00000000000E+00 0. -1.
        -14    1    6    6    0    0  0.63909968752E+00  0.26011684159E+02  0.15451350804E+03  0.15668899236E+03  0.00000000000E+00 0.  1.
</event>
<event>
12    1  0.2614920E-002  0.2689464E+03  0.7818608E-02  0.1101884E+00
         -2   -1    0    0    0  501 -0.00000000000E+00  0.00000000000E+00  0.13276312128E+04  0.13276312128E+04  0.00000000000E+00 0. -1.
          2   -1    0    0  502    0  0.00000000000E+00 -0.00000000000E+00 -0.93504632416E+02  0.93504632416E+02  0.00000000000E+00 0.  1.
          6    2    1    2  502    0  0.83873360384E+02  0.18828902485E+03  0.15795738493E+03  0.31185659730E+03  0.17267456201E+03 0.  0.
         24    2    3    3    0    0  0.23182744205E+02  0.28497043488E+02  0.14076887995E+02  0.88382850304E+02  0.79144477608E+02 0.  0.
         -6    2    1    2    0  501 -0.83873360384E+02 -0.18828902485E+03  0.10761691954E+04  0.11092792479E+04  0.17283753975E+03 0.  0.
        -24    2    5    5    0    0 -0.10240681193E+03 -0.68165998977E+02  0.62157543025E+03  0.63869385552E+03  0.80250028315E+02 0.  0.
          5    1    3    3  502    0  0.60690616178E+02  0.15979198136E+03  0.14388049693E+03  0.22347374700E+03  0.47000000000E+01 0. -1.
        -11    1    4    4    0    0  0.21616331750E+02  0.43339132665E+02 -0.19055064323E+02  0.52044612544E+02  0.00000000000E+00 0.  1.
         12    1    4    4    0    0  0.15664124555E+01 -0.14842089177E+02  0.33131952318E+02  0.36338237760E+02  0.00000000000E+00 0. -1.
         -5    1    5    5    0  501  0.18533451545E+02 -0.12012302587E+03  0.45459376515E+03  0.47058539234E+03  0.47000000000E+01 0.  1.
         11    1    6    6    0    0  0.34789780894E+01 -0.13022507589E+02  0.20242123296E+03  0.20286952591E+03  0.00000000000E+00 0. -1.
        -12    1    6    6    0    0 -0.10588579002E+03 -0.55143491388E+02  0.41915419730E+03  0.43582432961E+03  0.00000000000E+00 0.  1.
</event>
<event>
12    1  0.2614920E-002  0.1793251E+03  0.7818608E-02  0.1168458E+00
          2   -1    0    0  502    0  0.00000000000E+00  0.00000000000E+00  0.16887731192E+04  0.16887731192E+04  0.00000000000E+00 0.  1.
         -2   -1    0    0    0  501 -0.00000000000E+00 -0.00000000000E+00 -0.23310429707E+02  0.23310429707E+02  0.00000000000E+00 0. -1.
          6    2    1    2  502    0 -0.46494713684E+02  0.19320645570E+02  0.12000716017E+04  0.12134357571E+04  0.17239327612E+03 0.  0.
         24    2    3    3    0    0  0.15233907669E+02 -0.17825169532E+02  0.92258997822E+03  0.92671572703E+03  0.84142511233E+02 0.  0.
         -6    2    1    2    0  501  0.46494713684E+02 -0.19320645570E+02  0.46539108786E+03  0.49864779188E+03  0.17183046860E+03 0.  0.
        -24    2    5    5    0    0  0.48774899480E+02 -0.50900407205E+02  0.45093342719E+03  0.46352522727E+03  0.80900174829E+02 0.  0.
          5    1    3    3  502    0 -0.61728621353E+02  0.37145815102E+02  0.27748162344E+03  0.28672003003E+03  0.47000000000E+01 0. -1.
        -13    1    4    4    0    0  0.23934031663E+02  0.29982000317E+02  0.45110417265E+03  0.45273251794E+03  0.00000000000E+00 0.  1.
         14    1    4    4    0    0 -0.87001239940E+01 -0.47807169849E+02  0.47148580557E+03  0.47398320909E+03  0.00000000000E+00 0. -1.
         -5    1    5    5    0  501 -0.22801857968E+01  0.31579761635E+02  0.14457660666E+02  0.35122564600E+02  0.47000000000E+01 0.  1.
         11    1    6    6    0    0  0.26815631867E+02 -0.19895254019E+02  0.46149120686E+02  0.56961746682E+02  0.00000000000E+00 0. -1.
        -12    1    6    6    0    0  0.21959267614E+02 -0.31005153186E+02  0.40478430651E+03  0.40656348059E+03  0.00000000000E+00 0.  1.
</event>
<event>
12    1  0.2614920E-002  0.1882102E+03  0.7818608E-02  0.1160086E+00
          2   -1    0    0  502    0  0.00000000000E+00  0.00000000000E+00  0.74291424942E+03  0.74291424942E+03  0.00000000000E+00 0.  1.
         -2   -1    0    0    0  501 -0.00000000000E+00 -0.00000000000E+00 -0.59933319698E+02  0.59933319698E+02  0.00000000000E+00 0. -1.
          6    2    1    2  502    0 -0.49369667219E+02  0.68008513682E+02  0.15769976224E+03  0.24431879507E+03  0.16661313465E+03 0.  0.
         24    2    3    3    0    0 -0.19789123348E+02  0.10528522541E+03  0.94013459890E+02  0.16467837242E+03  0.82485438772E+02 0.  0.
         -6    2    1    2    0  501  0.49369667219E+02 -0.68008513682E+02  0.52528116749E+03  0.55852877406E+03  0.17021035385E+03 0.  0.
        -24    2    5    5    0    0  0.36288094515E+01 -0.13187706736E+02  0.10862399436E+03  0.13577253594E+03  0.80298975707E+02 0.  0.
          5    1    3    3  502    0 -0.29580543871E+02 -0.37276711725E+02  0.63686302349E+02  0.79640422649E+02  0.47000000000E+01 0. -1.
        -13    1    4    4    0    0 -0.41958484862E+01  0.66377961348E+02  0.10223332472E+03  0.12196430453E+03  0.00000000000E+00 0.  1.
         14    1    4    4    0    0 -0.15593274861E+02  0.38907264059E+02 -0.82198648274E+01  0.42714067885E+02  0.00000000000E+00 0. -1.
         -5    1    5    5    0  501  0.45740857767E+02 -0.54820806946E+02  0.41665717313E+03  0.42275623811E+03  0.47000000000E+01 0.  1.
         13    1    6    6    0    0 -0.38105366298E+02 -0.18406774086E+01  0.48390395805E+02  0.61620105811E+02  0.00000000000E+00 0. -1.
        -14    1    6    6    0    0  0.41734175749E+02 -0.11347029327E+02  0.60233598553E+02  0.74152430134E+02  0.00000000000E+00 0.  1.
</event>
<event>
12    1  0.2614920E-002  0.2103147E+03  0.7818608E-02  0.1141317E+00
         -2   -1    0    0    0  501 -0.00000000000E+00  0.00000000000E+00  0.12222930216E+02  0.12222930216E+02  0.00000000000E+00 0.  1.
          2   -1    0    0  502    0  0.00000000000E+00 -0.00000000000E+00 -0.46891951260E+04  0.46891951260E+04  0.00000000000E+00 0. -1.
          6    2    1    2  502    0 -0.98963902941E+02  0.70843133690E+02 -0.34600603240E+04  0.34664354228E+04  0.17130233738E+03 0.  0.
         24    2    3    3    0    0  0.91056712209E+01  0.16174973824E+02 -0.84837597637E+03  0.85194027795E+03  0.75603550819E+02 0.  0.
         -6    2    1    2    0  501  0.98963902941E+02 -0.70843133690E+02 -0.12169118718E+04  0.12349826334E+04  0.17174107710E+03 0.  0.
        -24    2    5    5    0    0  0.13593417317E+03 -0.59507467479E+02 -0.10619135142E+04  0.10751643646E+04  0.79365364720E+02 0.  0.
          5    1    3    3  502    0 -0.10806957416E+03  0.54668159866E+02 -0.26116843477E+04  0.26144951448E+04  0.47000000000E+01 0. -1.
        -13    1    4    4    0    0 -0.21186474899E+02  0.28752108230E+02 -0.23605998360E+03  0.23874644773E+03  0.00000000000E+00 0.  1.
         14    1    4    4    0    0  0.30292146120E+02 -0.12577134406E+02 -0.61231599277E+03  0.61319383023E+03  0.00000000000E+00 0. -1.
         -5    1    5    5    0  501 -0.36970270227E+02 -0.11335666211E+02 -0.15499835757E+03  0.15981826885E+03  0.47000000000E+01 0.  1.
         13    1    6    6    0    0  0.26624635388E+02 -0.19859149694E+02 -0.51279965375E+03  0.51387424719E+03  0.00000000000E+00 0. -1.
        -14    1    6    6    0    0  0.10930953778E+03 -0.39648317785E+02 -0.54911386046E+03  0.56129011741E+03  0.00000000000E+00 0.  1.
</event>
<event>
12    1  0.2614920E-002  0.1837340E+03  0.7818608E-02  0.1164237E+00
          4   -1    0    0  502    0  0.00000000000E+00  0.00000000000E+00  0.15267273813E+03  0.15267273813E+03  0.00000000000E+00 0. -1.
         -4   -1    0    0    0  501 -0.00000000000E+00 -0.00000000000E+00 -0.26281229115E+03  0.26281229115E+03  0.00000000000E+00 0.  1.
          6    2    1    2  502    0 -0.29495329459E+02  0.51454443256E+02  0.28021007197E+02  0.18446093382E+03  0.17240395898E+03 0.  0.
         24    2    3    3    0    0 -0.33386669449E+02  0.10060993520E+03  0.13688269549E+02  0.13289619506E+03  0.78974686957E+02 0.  0.
         -6    2    1    2    0  501  0.29495329459E+02 -0.51454443256E+02 -0.13816056022E+03  0.23102409546E+03  0.17540313023E+03 0.  0.
        -24    2    5    5    0    0  0.31372611247E+02 -0.84499416935E+02 -0.39087964153E+02  0.12646328176E+03  0.79628515570E+02 0.  0.
          5    1    3    3  502    0  0.38913399901E+01 -0.49155491946E+02  0.14332737648E+02  0.51564738764E+02  0.47000000000E+01 0. -1.
        -13    1    4    4    0    0  0.19717974592E+02  0.41081820565E+02 -0.15225543676E+02  0.48045100511E+02  0.00000000000E+00 0.  1.
         14    1    4    4    0    0 -0.53104644040E+02  0.59528114637E+02  0.28913813225E+02  0.84851094549E+02  0.00000000000E+00 0. -1.
         -5    1    5    5    0  501 -0.18772817884E+01  0.33044973679E+02 -0.99072596064E+02  0.10456081371E+03  0.47000000000E+01 0.  1.
         13    1    6    6    0    0 -0.37046766973E+01  0.80001001426E+01  0.12183807947E+02  0.15038996237E+02  0.00000000000E+00 0. -1.
        -14    1    6    6    0    0  0.35077287944E+02 -0.92499517078E+02 -0.51271772100E+02  0.11142428552E+03  0.00000000000E+00 0.  1.
</event>
<event>
12    1  0.2614920E-002  0.2682474E+03  0.7818608E-02  0.1102287E+00
          2   -1    0    0  502    0  0.00000000000E+00  0.00000000000E+00  0.33530912845E+03  0.33530912845E+03  0.00000000000E+00 0. -1.
         -2   -1    0    0    0  501 -0.00000000000E+00 -0.00000000000E+00 -0.36740910504E+03  0.36740910504E+03  0.00000000000E+00 0.  1.
          6    2    1    2  502    0  0.10830371862E+03 -0.17567369583E+03 -0.24265278610E+03  0.36184395485E+03  0.17163837037E+03 0.  0.
         24    2    3    3    0    0  0.11900809214E+03 -0.79967193079E+02 -0.19170776391E+03  0.25279440846E+03  0.81212488199E+02 0.  0.
         -6    2    1    2    0  501 -0.10830371862E+03  0.17567369583E+03  0.21055280951E+03  0.34087427864E+03  0.17109016737E+03 0.  0.
        -24    2    5    5    0    0 -0.43890724031E+01  0.12349077972E+03  0.86640640597E+02  0.17088126103E+03  0.80153403752E+02 0.  0.
          5    1    3    3  502    0 -0.10704373521E+02 -0.95706502755E+02 -0.50945022189E+02  0.10904954639E+03  0.47000000000E+01 0. -1.
        -11    1    4    4    0    0  0.25007206412E+02 -0.39535979080E+01 -0.94018836083E+02  0.97368027850E+02  0.00000000000E+00 0.  1.
         12    1    4    4    0    0  0.94000885729E+02 -0.76013595171E+02 -0.97688927832E+02  0.15542638061E+03  0.00000000000E+00 0. -1.
         -5    1    5    5    0  501 -0.10391464622E+03  0.52182916109E+02  0.12391216892E+03  0.16999301761E+03  0.47000000000E+01 0.  1.
         13    1    6    6    0    0  0.13935501238E+02  0.57723166325E+02  0.83596835282E+02  0.10254068946E+03  0.00000000000E+00 0. -1.
        -14    1    6    6    0    0 -0.18324573641E+02  0.65767613400E+02  0.30438053152E+01  0.68340571568E+02  0.00000000000E+00 0.  1.
</event>
<event>
12    1  0.2614920E-002  0.2435209E+03  0.7818608E-02  0.1117469E+00
         -1   -1    0    0    0  501 -0.00000000000E+00  0.00000000000E+00  0.41032265501E+03  0.41032265501E+03  0.00000000000E+00 0.  1.
          1   -1    0    0  502    0  0.00000000000E+00 -0.00000000000E+00 -0.14453260539E+03  0.14453260539E+03  0.00000000000E+00 0. -1.
          6    2    1    2  502    0  0.10969061514E+03  0.13396299843E+03  0.13086123255E+03  0.27583386184E+03  0.17023965800E+03 0.  0.
         24    2    3    3    0    0 -0.24288851372E+00  0.83338234011E+02  0.95908843743E+02  0.14977037989E+03  0.79292749618E+02 0.  0.
         -6    2    1    2    0  501 -0.10969061514E+03 -0.13396299843E+03  0.13492881707E+03  0.27902139857E+03  0.17224702954E+03 0.  0.
        -24    2    5    5    0    0 -0.59615343935E+02 -0.15334220343E+03  0.13016202879E+03  0.22491133811E+03  0.81087210387E+02 0.  0.
          5    1    3    3  502    0  0.10993350365E+03  0.50624764422E+02  0.34952388809E+02  0.12606348195E+03  0.47000000000E+01 0. -1.
        -11    1    4    4    0    0  0.74172597123E+00  0.76167753769E+02  0.11007619452E+03  0.13386129191E+03  0.00000000000E+00 0.  1.
         12    1    4    4    0    0 -0.98461448495E+00  0.71704802412E+01 -0.14167350774E+02  0.15909087985E+02  0.00000000000E+00 0. -1.
         -5    1    5    5    0  501 -0.50075271200E+02  0.19379204996E+02  0.47667882800E+01  0.54110060456E+02  0.47000000000E+01 0.  1.
         13    1    6    6    0    0 -0.70705055376E+02 -0.12709863415E+03  0.76929057893E+02  0.16453372787E+03  0.00000000000E+00 0. -1.
        -14    1    6    6    0    0  0.11089711440E+02 -0.26243569278E+02  0.53232970894E+02  0.60377610241E+02  0.00000000000E+00 0.  1.
</event>
<event>
12    1  0.2614920E-002  0.2252726E+03  0.7818608E-02  0.1130012E+00
         -1   -1    0    0    0  501 -0.00000000000E+00  0.00000000000E+00  0.12395949369E+03  0.12395949369E+03  0.00000000000E+00 0. -1.
          1   -1    0    0  502    0  0.00000000000E+00 -0.00000000000E+00 -0.44885315232E+03  0.44885315232E+03  0.00000000000E+00 0.  1.
          6    2    1    2  502    0  0.34289991436E+02  0.14124933630E+03 -0.24783407871E+03  0.33539745665E+03  0.17303914251E+03 0.  0.
         24    2    3    3    0    0  0.59391482342E+02  0.13986561381E+03 -0.13136673232E+03  0.21615513066E+03  0.79850385398E+02 0.  0.
         -6    2    1    2    0  501 -0.34289991436E+02 -0.14124933630E+03 -0.77059579920E+02  0.23741518936E+03  0.17117422342E+03 0.  0.
        -24    2    5    5    0    0 -0.10029595339E+02 -0.19399072259E+02  0.11512979776E+02  0.84761194989E+02  0.81086340930E+02 0.  0.
          5    1    3    3  502    0 -0.25101490906E+02  0.13837224950E+01 -0.11646734639E+03  0.11924232599E+03  0.47000000000E+01 0. -1.
        -13    1    4    4    0    0  0.43741527862E+02  0.11225543299E+03 -0.13856077948E+03  0.18361288927E+03  0.00000000000E+00 0.  1.
         14    1    4    4    0    0  0.15649954480E+02  0.27610180821E+02  0.71940471594E+01  0.32542241391E+02  0.00000000000E+00 0. -1.
         -5    1    5    5    0  501 -0.24260396096E+02 -0.12185026404E+03 -0.88572559695E+02  0.15265399437E+03  0.47000000000E+01 0.  1.
         11    1    6    6    0    0  0.10764894414E+02 -0.44160820893E+02  0.22359059178E+02  0.50655587856E+02  0.00000000000E+00 0. -1.
        -12    1    6    6    0    0 -0.20794489753E+02  0.24761748634E+02 -0.10846079402E+02  0.34105607133E+02  0.00000000000E+00 0.  1.
</event>
<event>
12    1  0.2614920E-002  0.1867313E+03  0.7818608E-02  0.1161443E+00
          2   -1    0    0  502    0  0.00000000000E+00  0.00000000000E+00  0.19272515115E+04  0.19272515115E+04  0.00000000000E+00 0. -1.
         -2   -1    0    0    0  501 -0.00000000000E+00 -0.00000000000E+00 -0.25798385083E+02  0.25798385083E+02  0.00000000000E+00 0.  1.
          6    2    1    2  502    0  0.43037328058E+02 -0.58368760397E+02  0.41774637618E+03  0.45766412838E+03  0.17229421291E+03 0.  0.
         24    2    3    3    0    0  0.78900670225E+02 -0.86253638035E+02  0.33726070383E+03  0.36512343914E+03  0.76846194597E+02 0.  0.
         -6    2    1    2    0  501 -0.43037328058E+02  0.58368760397E+02  0.14837067503E+04  0.14953857682E+04  0.17185386594E+03 0.  0.
        -24    2    5    5    0    0 -0.75948541100E+02  0.87336161657E+02  0.11178785329E+04  0.11269096728E+04  0.82928947338E+02 0.  0.
          5    1    3    3  502    0 -0.35863342167E+02  0.27884877639E+02  0.80485672346E+02  0.92540689241E+02  0.47000000000E+01 0. -1.
        -13    1    4    4    0    0  0.21786541108E+02 -0.72253417004E+02  0.13703560797E+03  0.15644157854E+03  0.00000000000E+00 0.  1.
         14    1    4    4    0    0  0.57114129117E+02 -0.14000221032E+02  0.20022509586E+03  0.20868186060E+03  0.00000000000E+00 0. -1.
         -5    1    5    5    0  501  0.32911213041E+02 -0.28967401261E+02  0.36582821733E+03  0.36847609539E+03  0.47000000000E+01 0.  1.
         13    1    6    6    0    0  0.12200263818E+02  0.39503568887E+02  0.38127042004E+03  0.38350555614E+03  0.00000000000E+00 0. -1.
        -14    1    6    6    0    0 -0.88148804917E+02  0.47832592770E+02  0.73660811290E+03  0.74340411670E+03  0.00000000000E+00 0.  1.
</event>
<event>
12    1  0.2614920E-002  0.2174207E+03  0.7818608E-02  0.1135821E+00
         -4   -1    0    0    0  501 -0.00000000000E+00  0.00000000000E+00  0.20218936944E+04  0.20218936944E+04  0.00000000000E+00 0. -1.
          4   -1    0    0  502    0  0.00000000000E+00 -0.00000000000E+00 -0.24572604557E+02  0.24572604557E+02  0.00000000000E+00 0.  1.
          6    2    1    2  502    0 -0.11936277439E+03 -0.60320461153E+02  0.12207355066E+04  0.12398134002E+04  0.17045838285E+03 0.  0.
         24    2    3    3    0    0 -0.88897030337E+00 -0.43765100381E+02  0.66448227130E+03  0.67082317707E+03  0.80937455780E+02 0.  0.
         -6    2    1    2    0  501  0.11936277439E+03  0.60320461153E+02  0.77658558323E+03  0.80665289876E+03  0.17238822768E+03 0.  0.
        -24    2    5    5    0    0  0.25954907438E+01  0.50460515128E+02  0.25767540830E+03  0.27465508230E+03  0.80534452449E+02 0.  0.
          5    1    3    3  502    0 -0.11847380408E+03 -0.16555360771E+02  0.55625323535E+03  0.56899022317E+03  0.47000000000E+01 0. -1.
        -11    1    4    4    0    0 -0.17140800457E+02 -0.23295019579E+02  0.69638705733E+02  0.75405664997E+02  0.00000000000E+00 0.  1.
         12    1    4    4    0    0  0.16251830154E+02 -0.20470080802E+02  0.59484356556E+03  0.59541751207E+03  0.00000000000E+00 0. -1.
         -5    1    5    5    0  501  0.11676728364E+03  0.98599460247E+01  0.51891017493E+03  0.53199781645E+03  0.47000000000E+01 0.  1.
         11    1    6    6    0    0  0.41980751981E-02  0.27996189269E+02  0.24878764223E+03  0.25035789893E+03  0.00000000000E+00 0. -1.
        -12    1    6    6    0    0  0.25912926686E+01  0.22464325859E+02  0.88877660733E+01  0.24297183371E+02  0.00000000000E+00 0.  1.
</event>
<event>
12    1  0.2614920E-002  0.1876232E+03  0.7818608E-02  0.1160623E+00
          1   -1    0    0  502    0  0.00000000000E+00  0.00000000000E+00  0.37320034582E+04  0.37320034582E+04  0.00000000000E+00 0.  1.
         -1   -1    0    0    0  501 -0.00000000000E+00 -0.00000000000E+00 -0.11300616688E+02  0.11300616688E+02  0.00000000000E+00 0. -1.
          6    2    1    2  502    0  0.23596806275E+02  0.69651106197E+02  0.10938588215E+04  0.11097200541E+04  0.17188191077E+03 0.  0.
         24    2    3    3    0    0  0.57701749756E+02 -0.86470026650E+01  0.69399161862E+03  0.70080733609E+03  0.78117174892E+02 0.  0.
         -6    2    1    2    0  501 -0.23596806275E+02 -0.69651106197E+02  0.26268440200E+04  0.26335840208E+04  0.17334129109E+03 0.  0.
        -24    2    5    5    0    0  0.27056895506E+02 -0.10109557073E+03  0.16341191941E+04  0.16390593998E+04  0.72234239667E+02 0.  0.
          5    1    3    3  502    0 -0.34104943481E+02  0.78298108862E+02  0.39986720291E+03  0.40891271805E+03  0.47000000000E+01 0. -1.
        -13    1    4    4    0    0 -0.97590112927E+01 -0.47811802527E+01  0.35396032661E+03  0.35412711107E+03  0.00000000000E+00 0.  1.
         14    1    4    4    0    0  0.67460761049E+02 -0.38658224123E+01  0.34003129202E+03  0.34668022501E+03  0.00000000000E+00 0. -1.
         -5    1    5    5    0  501 -0.50653701782E+02  0.31444464529E+02  0.99272482591E+03  0.99452462103E+03  0.47000000000E+01 0.  1.
         11    1    6    6    0    0  0.48211088126E+02 -0.79097336585E+02  0.13817534419E+04  0.13848549642E+04  0.00000000000E+00 0. -1.
        -12    1    6    6    0    0 -0.21154192619E+02 -0.21998234141E+02  0.25236575225E+03  0.25420443560E+03  0.00000000000E+00 0.  1.
</event>
<event>
12    1  0.2614920E-002  0.1928075E+03  0.7818608E-02  0.1155953E+00
         -2   -1    0    0    0  501 -0.00000000000E+00  0.00000000000E+00  0.33402553988E+02  0.33402553988E+02  0.00000000000E+00 0.  1.
          2   -1    0    0  502    0  0.00000000000E+00 -0.00000000000E+00 -0.11165766638E+04  0.11165766638E+04  0.00000000000E+00 0. -1.
          6    2    1    2  502    0  0.72383015080E+02  0.44856307370E+02 -0.57344783088E+03  0.60488207518E+03  0.17259351362E+03 0.  0.
         24    2    3    3    0    0  0.73414353703E+02  0.93819549514E+02 -0.44141943129E+03  0.46398476846E+03  0.78987187852E+02 0.  0.
         -6    2    1    2    0  501 -0.72383015080E+02 -0.44856307370E+02 -0.50972627890E+03  0.54509714258E+03  0.17337423760E+03 0.  0.
        -24    2    5    5    0    0 -0.97827146556E+02 -0.69173181918E+01 -0.46178718743E+03  0.47871177357E+03  0.79369741049E+02 0.  0.
          5    1    3    3  502    0 -0.10313386227E+01 -0.48963242145E+02 -0.13202839960E+03  0.14089730672E+03  0.47000000000E+01 0. -1.
        -13    1    4    4    0    0  0.21081823024E+02  0.26305015815E+02 -0.34649874919E+02  0.48342641125E+02  0.00000000000E+00 0.  1.
         14    1    4    4    0    0  0.52332530679E+02  0.67514533699E+02 -0.40676955637E+03  0.41564212734E+03  0.00000000000E+00 0. -1.
         -5    1    5    5    0  501  0.25444131476E+02 -0.37938989178E+02 -0.47939091469E+02  0.66385369000E+02  0.47000000000E+01 0.  1.
         11    1    6    6    0    0 -0.39220175109E+02 -0.22705412019E+02 -0.33604246963E+03  0.33908450166E+03  0.00000000000E+00 0. -1.
        -12    1    6    6    0    0 -0.58606971447E+02  0.15788093827E+02 -0.12574471779E+03  0.13962727191E+03  0.00000000000E+00 0.  1.
</event>
<event>
12    1  0.2614920E-002  0.3108125E+03  0.7818608E-02  0.1079957E+00
         -1   -1    0    0    0  501 -0.00000000000E+00  0.00000000000E+00  0.80259995241E+02  0.80259995241E+02  0.00000000000E+00 0.  1.
          1   -1    0    0  502    0  0.00000000000E+00 -0.00000000000E+00 -0.12763117874E+04  0.12763117874E+04  0.00000000000E+00 0. -1.
          6    2    1    2  502    0 -0.18748376538E+03  0.18252910500E+03 -0.76606158803E+03  0.82804647775E+03  0.17419407629E+03 0.  0.
         24    2    3    3    0    0 -0.16553273581E+03  0.75782145112E+02 -0.56884620640E+03  0.60267399076E+03  0.80535162861E+02 0.  0.
         -6    2    1    2    0  501  0.18748376538E+03 -0.18252910500E+03 -0.42999020409E+03  0.52852530485E+03  0.16118432244E+03 0.  0.
        -24    2    5    5    0    0  0.15842157800E+03 -0.20391758154E+03 -0.39059941582E+03  0.47489880147E+03  0.79253968761E+02 0.  0.
          5    1    3    3  502    0 -0.21951029569E+02  0.10674695988E+03 -0.19721538162E+03  0.22537248699E+03  0.47000000000E+01 0. -1.
        -11    1    4    4    0    0 -0.10119718444E+02  0.11960997926E+02 -0.87983969675E+01  0.17969027853E+02  0.00000000000E+00 0.  1.
         12    1    4    4    0    0 -0.15541301736E+03  0.63821147186E+02 -0.56004780943E+03  0.58470496291E+03  0.00000000000E+00 0. -1.
         -5    1    5    5    0  501  0.29062187375E+02  0.21388476540E+02 -0.39390788270E+02  0.53626503375E+02  0.47000000000E+01 0.  1.
         11    1    6    6    0    0  0.99190285993E+02 -0.70034640557E+02 -0.14667399810E+03  0.19041225126E+03  0.00000000000E+00 0. -1.
        -12    1    6    6    0    0  0.59231292010E+02 -0.13388294098E+03 -0.24392541772E+03  0.28448655021E+03  0.00000000000E+00 0.  1.
</event>
<event>
12    1  0.2614920E-002  0.2418749E+03  0.7818608E-02  0.1118550E+00
         -2   -1    0    0    0  501 -0.00000000000E+00  0.00000000000E+00  0.78566667956E+03  0.78566667956E+03  0.00000000000E+00 0.  1.
          2   -1    0    0  502    0  0.00000000000E+00 -0.00000000000E+00 -0.10879980205E+03  0.10879980205E+03  0.00000000000E+00 0. -1.
          6    2    1    2  502    0 -0.15791452436E+03  0.62988629626E+02  0.87312475762E+02  0.25727314213E+03  0.17222495978E+03 0.  0.
         24    2    3    3    0    0 -0.11148665083E+03 -0.27006460517E+02  0.62099148230E+02  0.15281039482E+03  0.79599562374E+02 0.  0.
         -6    2    1    2    0  501  0.15791452436E+03 -0.62988629626E+02  0.58955440175E+03  0.63719333948E+03  0.17186155705E+03 0.  0.
        -24    2    5    5    0    0  0.11962381962E+03 -0.85145425223E+02  0.55854847595E+03  0.58296641725E+03  0.79459687851E+02 0.  0.
          5    1    3    3  502    0 -0.46427873524E+02  0.89995090143E+02  0.25213327532E+02  0.10446274731E+03  0.47000000000E+01 0. -1.
        -13    1    4    4    0    0 -0.30808502354E+02  0.11901630025E+02  0.53440488148E+02  0.62822753744E+02  0.00000000000E+00 0.  1.
         14    1    4    4    0    0 -0.80678148479E+02 -0.38908090542E+02  0.86586600823E+01  0.89987641074E+02  0.00000000000E+00 0. -1.
         -5    1    5    5    0  501  0.38290704736E+02  0.22156795597E+02  0.31005925797E+02  0.54226922233E+02  0.47000000000E+01 0.  1.
         13    1    6    6    0    0  0.32969983917E+02 -0.32520052192E+02  0.69468820631E+02  0.83489464449E+02  0.00000000000E+00 0. -1.
        -14    1    6    6    0    0  0.86653835704E+02 -0.52625373031E+02  0.48907965532E+03  0.49947695280E+03  0.00000000000E+00 0.  1.
</event>
<event>
12    1  0.2614920E-002  0.2398124E+03  0.7818608E-02  0.1119918E+00
         -1   -1    0    0    0  501 -0.00000000000E+00  0.00000000000E+00  0.61724688699E+02  0.61724688699E+02  0.00000000000E+00 0.  1.
          1   -1    0    0  502    0  0.00000000000E+00 -0.00000000000E+00 -0.93184146816E+03  0.93184146816E+03  0.00000000000E+00 0. -1.
          6    2    1    2  502    0  0.16705250479E+03  0.84837525425E+00 -0.44193862462E+03  0.50317334431E+03  0.17310808011E+03 0.  0.
         24    2    3    3    0    0  0.14947719354E+03  0.47171670313E+02 -0.26220572928E+03  0.31667738485E+03  0.83451325546E+02 0.  0.
         -6    2    1    2    0  501 -0.16705250479E+03 -0.84837525425E+00 -0.42817815484E+03  0.49039281255E+03  0.17100093339E+03 0.  0.
        -24    2    5    5    0    0 -0.17886986882E+03  0.25790822433E+02 -0.30833423737E+03  0.36696691777E+03  0.83277369749E+02 0.  0.
          5    1    3    3  502    0  0.17575311247E+02 -0.46323295059E+02 -0.17973289534E+03  0.18649595947E+03  0.47000000000E+01 0. -1.
        -11    1    4    4    0    0 -0.90790261235E+01  0.11271379316E+02 -0.15335214043E+02  0.21086524056E+02  0.00000000000E+00 0.  1.
         12    1    4    4    0    0  0.15855621966E+03  0.35900290998E+02 -0.24687051524E+03  0.29559086079E+03  0.00000000000E+00 0. -1.
         -5    1    5    5    0  501  0.11817364034E+02 -0.26639197687E+02 -0.11984391748E+03  0.12342589478E+03  0.47000000000E+01 0.  1.
         13    1    6    6    0    0 -0.36758158793E+02 -0.11502617177E+02 -0.13168941380E+03  0.13720631963E+03  0.00000000000E+00 0. -1.
        -14    1    6    6    0    0 -0.14211171003E+03  0.37293439610E+02 -0.17664482357E+03  0.22976059814E+03  0.00000000000E+00 0.  1.
</event>
<event>
12    1  0.2614920E-002  0.2017408E+03  0.7818608E-02  0.1148279E+00
         -1   -1    0    0    0  501 -0.00000000000E+00  0.00000000000E+00  0.43018352567E+02  0.43018352567E+02  0.00000000000E+00 0. -1.
          1   -1    0    0  502    0  0.00000000000E+00 -0.00000000000E+00 -0.94960830890E+03  0.94960830890E+03  0.00000000000E+00 0.  1.
          6    2    1    2  502    0 -0.16443830919E+02  0.95925277401E+02 -0.41706593820E+03  0.46194660169E+03  0.17314331517E+03 0.  0.
         24    2    3    3    0    0 -0.44060847971E+02  0.15359737803E+01 -0.27098889770E+03  0.28578578871E+03  0.79339881605E+02 0.  0.
         -6    2    1    2    0  501  0.16443830919E+02 -0.95925277401E+02 -0.48952401813E+03  0.53068005978E+03  0.18032055650E+03 0.  0.
        -24    2    5    5    0    0  0.66864335903E+02 -0.72665951720E+02 -0.20991280663E+03  0.24557000532E+03  0.80560915897E+02 0.  0.
          5    1    3    3  502    0  0.27617017053E+02  0.94389303621E+02 -0.14607704051E+03  0.17616081299E+03  0.47000000000E+01 0. -1.
        -11    1    4    4    0    0  0.98443600184E+01 -0.19603112804E+02 -0.25857454514E+02  0.33908721735E+02  0.00000000000E+00 0.  1.
         12    1    4    4    0    0 -0.53905207990E+02  0.21139086584E+02 -0.24513144318E+03  0.25187706697E+03  0.00000000000E+00 0. -1.
         -5    1    5    5    0  501 -0.50420504984E+02 -0.23259325681E+02 -0.27961121151E+03  0.28511005446E+03  0.47000000000E+01 0.  1.
         11    1    6    6    0    0  0.37289069222E+00 -0.55766363565E+02 -0.67994484937E+02  0.87939048975E+02  0.00000000000E+00 0. -1.
        -12    1    6    6    0    0  0.66491445211E+02 -0.16899588155E+02 -0.14191832169E+03  0.15763095634E+03  0.00000000000E+00 0.  1.
</event>
<event>
12    1  0.2614920E-002  0.2460472E+03  0.7818608E-02  0.1115829E+00
          2   -1    0    0  502    0  0.00000000000E+00  0.00000000000E+00  0.21710881239E+04  0.21710881239E+04  0.00000000000E+00 0. -1.
         -2   -1    0    0    0  501 -0.00000000000E+00 -0.00000000000E+00 -0.29337912387E+02  0.29337912387E+02  0.00000000000E+00 0.  1.
          6    2    1    2  502    0  0.11317242592E+03 -0.13486012194E+03  0.82534252393E+03  0.86119349624E+03  0.17166451491E+03 0.  0.
         24    2    3    3    0    0  0.87267190317E+02 -0.15222330824E+03  0.53255818639E+03  0.56671544989E+03  0.82223361534E+02 0.  0.
         -6    2    1    2    0  501 -0.11317242592E+03  0.13486012194E+03  0.13164076876E+04  0.13392325400E+04  0.17210271909E+03 0.  0.
        -24    2    5    5    0    0  0.78029333476E+01  0.74219271706E+02  0.57301515056E+03  0.58360901979E+03  0.81754138409E+02 0.  0.
          5    1    3    3  502    0  0.25905235602E+02  0.17363186293E+02  0.29278433754E+03  0.29447804635E+03  0.47000000000E+01 0. -1.
        -11    1    4    4    0    0  0.17893207401E+02 -0.16375561718E+02  0.18505027878E+02  0.30508391459E+02  0.00000000000E+00 0.  1.
         12    1    4    4    0    0  0.69373982916E+02 -0.13584774652E+03  0.51405315851E+03  0.53620705843E+03  0.00000000000E+00 0. -1.
         -5    1    5    5    0  501 -0.12097535927E+03  0.60640850238E+02  0.74339253702E+03  0.75562352025E+03  0.47000000000E+01 0.  1.
         11    1    6    6    0    0 -0.25205495086E+02 -0.42067246737E+01  0.13990479953E+03  0.14221943063E+03  0.00000000000E+00 0. -1.
        -12    1    6    6    0    0  0.33008428434E+02  0.78425996380E+02  0.43311035102E+03  0.44138958916E+03  0.00000000000E+00 0.  1.
</event>
<event>
12    1  0.2614920E-002  0.2608076E+03  0.7818608E-02  0.1106659E+00
         -2   -1    0    0    0  501 -0.00000000000E+00  0.00000000000E+00  0.41271245551E+02  0.41271245551E+02  0.00000000000E+00 0.  1.
          2   -1    0    0  502    0  0.00000000000E+00 -0.00000000000E+00 -0.21856837061E+04  0.21856837061E+04  0.00000000000E+00 0. -1.
          6    2    1    2  502    0 -0.18189507896E+03  0.72206446406E+02 -0.16234025053E+04  0.16441678252E+04  0.17190855878E+03 0.  0.
         24    2    3    3    0    0 -0.14345417122E+03 -0.45546695418E+00 -0.80189086518E+03  0.81854023247E+03  0.79999036362E+02 0.  0.
         -6    2    1    2    0  501  0.18189507896E+03 -0.72206446406E+02 -0.52100995529E+03  0.58278712648E+03  0.17288687235E+03 0.  0.
        -24    2    5    5    0    0  0.18427102653E+03 -0.59757142583E+02 -0.52760308555E+03  0.56774752346E+03  0.80283916189E+02 0.  0.
          5    1    3    3  502    0 -0.38440907742E+02  0.72661913361E+02 -0.82151164013E+03  0.82562759275E+03  0.47000000000E+01 0. -1.
        -13    1    4    4    0    0 -0.10777030743E+03  0.83409025344E+01 -0.38067268208E+03  0.39572174656E+03  0.00000000000E+00 0.  1.
         14    1    4    4    0    0 -0.35683863789E+02 -0.87963694885E+01 -0.42121818310E+03  0.42281848590E+03  0.00000000000E+00 0. -1.
         -5    1    5    5    0  501 -0.23759475693E+01 -0.12449303823E+02  0.65931302626E+01  0.15039603026E+02  0.47000000000E+01 0.  1.
         13    1    6    6    0    0  0.58551028727E+02  0.15434117504E+02 -0.19813005896E+03  0.20717614537E+03  0.00000000000E+00 0. -1.
        -14    1    6    6    0    0  0.12571999780E+03 -0.75191260088E+02 -0.32947302659E+03  0.36057137808E+03  0.00000000000E+00 0.  1.
</event>
<event>
12    1  0.2614920E-002  0.1869938E+03  0.7818608E-02  0.1161201E+00
          1   -1    0    0  502    0  0.00000000000E+00  0.00000000000E+00  0.21178883797E+03  0.21178883797E+03  0.00000000000E+00 0. -1.
         -1   -1    0    0    0  501 -0.00000000000E+00 -0.00000000000E+00 -0.20800248063E+03  0.20800248063E+03  0.00000000000E+00 0.  1.
          6    2    1    2  502    0  0.75541906496E+02 -0.22760985918E+02  0.97177272757E+02  0.20901506975E+03  0.16738947077E+03 0.  0.
         24    2    3    3    0    0  0.55028844707E+02 -0.25965066627E+02 -0.55979650168E+01  0.10405845330E+03  0.84228653413E+02 0.  0.
         -6    2    1    2    0  501 -0.75541906496E+02  0.22760985918E+02 -0.93390915423E+02  0.21077624885E+03  0.17169776318E+03 0.  0.
        -24    2    5    5    0    0 -0.73962750102E+02  0.55279436836E+01  0.24243148750E+01  0.11329743148E+03  0.85611822274E+02 0.  0.
          5    1    3    3  502    0  0.20513061789E+02  0.32040807088E+01  0.10277523777E+03  0.10495661645E+03  0.47000000000E+01 0. -1.
        -11    1    4    4    0    0  0.54867807222E+01 -0.42060674385E+02 -0.24092364885E+02  0.48781627055E+02  0.00000000000E+00 0.  1.
         12    1    4    4    0    0  0.49542063985E+02  0.16095607758E+02  0.18494399868E+02  0.55276826243E+02  0.00000000000E+00 0. -1.
         -5    1    5    5    0  501 -0.15791563937E+01  0.17233042235E+02 -0.95815230298E+02  0.97478817374E+02  0.47000000000E+01 0.  1.
         13    1    6    6    0    0  0.17458102090E+02 -0.61470546071E+01  0.96092336180E+01  0.20854471455E+02  0.00000000000E+00 0. -1.
        -14    1    6    6    0    0 -0.91420852193E+02  0.11674998291E+02 -0.71849187430E+01  0.92442960024E+02  0.00000000000E+00 0.  1.
</event>
<event>
12    1  0.2614920E-002  0.2077846E+03  0.7818608E-02  0.1143332E+00
          2   -1    0    0  502    0  0.00000000000E+00  0.00000000000E+00  0.22895292997E+03  0.22895292997E+03  0.00000000000E+00 0.  1.
         -2   -1    0    0    0  501 -0.00000000000E+00 -0.00000000000E+00 -0.20746089490E+03  0.20746089490E+03  0.00000000000E+00 0. -1.
          6    2    1    2  502    0  0.20377387313E+02  0.11123900946E+03 -0.54984363812E+02  0.21665492905E+03  0.17642767038E+03 0.  0.
         24    2    3    3    0    0  0.74900216405E+02  0.50543022938E+02 -0.45107043256E+01  0.12060066327E+03  0.79746686091E+02 0.  0.
         -6    2    1    2    0  501 -0.20377387313E+02 -0.11123900946E+03  0.76476398887E+02  0.21975889583E+03  0.17220911001E+03 0.  0.
        -24    2    5    5    0    0 -0.66244325979E+02 -0.72562614840E+02  0.93524995751E+02  0.15720984134E+03  0.79462982485E+02 0.  0.
          5    1    3    3  502    0 -0.54522829092E+02  0.60695986518E+02 -0.50473659487E+02  0.96054265775E+02  0.47000000000E+01 0. -1.
        -13    1    4    4    0    0 -0.17045698096E+02  0.11787100966E+02 -0.13434025191E+00  0.20724613870E+02  0.00000000000E+00 0.  1.
         14    1    4    4    0    0  0.91945914501E+02  0.38755921973E+02 -0.43763640737E+01  0.99876049401E+02  0.00000000000E+00 0. -1.
         -5    1    5    5    0  501  0.45866938666E+02 -0.38676394616E+02 -0.17048596865E+02  0.62549054494E+02  0.47000000000E+01 0.  1.
         11    1    6    6    0    0  0.11394907928E+01  0.15221109654E+02  0.72988425568E+01  0.16919034282E+02  0.00000000000E+00 0. -1.
        -12    1    6    6    0    0 -0.67383816772E+02 -0.87783724494E+02  0.86226153195E+02  0.14029080705E+03  0.00000000000E+00 0.  1.
</event>
<event>
12    1  0.2614920E-002  0.2357333E+03  0.7818608E-02  0.1122668E+00
         -1   -1    0    0    0  501 -0.00000000000E+00  0.00000000000E+00  0.60942810376E+02  0.60942810376E+02  0.00000000000E+00 0. -1.
          1   -1    0    0  502    0  0.00000000000E+00 -0.00000000000E+00 -0.11871542033E+04  0.11871542033E+04  0.00000000000E+00 0.  1.
          6    2    1    2  502    0 -0.31680487822E+02  0.15762803047E+03 -0.26192690597E+03  0.35214671587E+03  0.17190507883E+03 0.  0.
         24    2    3    3    0    0  0.38294764357E+02  0.13457562447E+03 -0.20252480905E+03  0.25739098539E+03  0.75211258472E+02 0.  0.
         -6    2    1    2    0  501  0.31680487822E+02 -0.15762803047E+03 -0.86428448697E+03  0.89595029783E+03  0.17288439043E+03 0.  0.
        -24    2    5    5    0    0  0.55040944557E+02 -0.23067361449E+02 -0.35813597569E+03  0.37167871739E+03  0.79511528287E+02 0.  0.
          5    1    3    3  502    0 -0.69975252179E+02  0.23052406006E+02 -0.59402096921E+02  0.94755730480E+02  0.47000000000E+01 0. -1.
        -13    1    4    4    0    0  0.21879183398E+02  0.65842598119E+02 -0.39806961834E+02  0.79990878253E+02  0.00000000000E+00 0.  1.
         14    1    4    4    0    0  0.16415580959E+02  0.68733026348E+02 -0.16271784722E+03  0.17740010714E+03  0.00000000000E+00 0. -1.
         -5    1    5    5    0  501 -0.23360456735E+02 -0.13456066902E+03 -0.50614851128E+03  0.52427158044E+03  0.47000000000E+01 0.  1.
         11    1    6    6    0    0  0.79286333529E+01  0.28204722235E+02 -0.89962639712E+02  0.94613139295E+02  0.00000000000E+00 0. -1.
        -12    1    6    6    0    0  0.47112311204E+02 -0.51272083684E+02 -0.26817333598E+03  0.27706557809E+03  0.00000000000E+00 0.  1.
</event>
<event>
12    1  0.2614920E-002  0.2708011E+03  0.7818608E-02  0.1100822E+00
          1   -1    0    0  502    0  0.00000000000E+00  0.00000000000E+00  0.72187716634E+03  0.72187716634E+03  0.00000000000E+00 0. -1.
         -1   -1    0    0    0  501 -0.00000000000E+00 -0.00000000000E+00 -0.10179777233E+03  0.10179777233E+03  0.00000000000E+00 0.  1.
          6    2    1    2  502    0  0.18298420929E+03 -0.11010924978E+03  0.33224003503E+03  0.43107399103E+03  0.17272543859E+03 0.  0.
         24    2    3    3    0    0  0.99192343626E+02  0.60364591604E+00  0.10653870174E+03  0.16604266483E+03  0.79876067455E+02 0.  0.
         -6    2    1    2    0  501 -0.18298420929E+03  0.11010924978E+03  0.28783935898E+03  0.39260094763E+03  0.16023963233E+03 0.  0.
        -24    2    5    5    0    0 -0.11671730172E+03  0.45825462567E+02  0.25335022567E+03  0.29393333059E+03  0.80545418515E+02 0.  0.
          5    1    3    3  502    0  0.83791865661E+02 -0.11071289569E+03  0.22570133329E+03  0.26503132621E+03  0.47000000000E+01 0. -1.
        -13    1    4    4    0    0  0.27293268603E+02  0.23812411262E+02  0.76679997759E+02  0.84804336549E+02  0.00000000000E+00 0.  1.
         14    1    4    4    0    0  0.71899075022E+02 -0.23208765346E+02  0.29858703978E+02  0.81238328276E+02  0.00000000000E+00 0. -1.
         -5    1    5    5    0  501 -0.66266907565E+02  0.64283787208E+02  0.34489133308E+02  0.98667617040E+02  0.47000000000E+01 0.  1.
         13    1    6    6    0    0 -0.26661704069E+02  0.14068647174E+02  0.15089855692E+03  0.15388030341E+03  0.00000000000E+00 0. -1.
        -14    1    6    6    0    0 -0.90055597653E+02  0.31756815393E+02  0.10245166875E+03  0.14005302718E+03  0.00000000000E+00 0.  1.
</event>
<event>
12    1  0.2614920E-002  0.1746335E+03  0.7818608E-02  0.1173100E+00
          1   -1    0    0  502    0  0.00000000000E+00  0.00000000000E+00  0.12013996229E+03  0.12013996229E+03  0.00000000000E+00 0. -1.
         -1   -1    0    0    0  501 -0.00000000000E+00 -0.00000000000E+00 -0.29770464833E+03  0.29770464833E+03  0.00000000000E+00 0.  1.
          6    2    1    2  502    0 -0.40478681996E+02 -0.37075437949E+01 -0.71862765573E+01  0.17133467062E+03  0.16628787451E+03 0.  0.
         24    2    3    3    0    0 -0.73847234616E+02  0.37851769396E+02 -0.18589629504E+02  0.11662851671E+03  0.79815199547E+02 0.  0.
         -6    2    1    2    0  501  0.40478681996E+02  0.37075437949E+01 -0.17037840949E+03  0.24650994000E+03  0.17345339005E+03 0.  0.
        -24    2    5    5    0    0  0.14424075569E+02 -0.32810558698E+02 -0.18072974916E+03  0.20023192622E+03  0.78390020606E+02 0.  0.
          5    1    3    3  502    0  0.33368552620E+02 -0.41559313191E+02  0.11403352946E+02  0.54706153906E+02  0.47000000000E+01 0. -1.
        -11    1    4    4    0    0  0.29319470308E+01  0.14865191221E+02 -0.31964676596E+02  0.35373871337E+02  0.00000000000E+00 0.  1.
         12    1    4    4    0    0 -0.76779181647E+02  0.22986578175E+02  0.13375047092E+02  0.81254645377E+02  0.00000000000E+00 0. -1.
         -5    1    5    5    0  501  0.26054606427E+02  0.36518102493E+02  0.10351339671E+02  0.46278013773E+02  0.47000000000E+01 0.  1.
         13    1    6    6    0    0 -0.42562530754E+01 -0.82539814533E+01  0.59436072161E+01  0.11025895284E+02  0.00000000000E+00 0. -1.
        -14    1    6    6    0    0  0.18680328644E+02 -0.24556577245E+02 -0.18667335637E+03  0.18920603094E+03  0.00000000000E+00 0.  1.
</event>
<event>
12    1  0.2614920E-002  0.1831145E+03  0.7818608E-02  0.1164822E+00
          2   -1    0    0  502    0  0.00000000000E+00  0.00000000000E+00  0.43054969230E+03  0.43054969230E+03  0.00000000000E+00 0.  1.
         -2   -1    0    0    0  501 -0.00000000000E+00 -0.00000000000E+00 -0.79335194950E+02  0.79335194950E+02  0.00000000000E+00 0. -1.
          6    2    1    2  502    0  0.44031618589E+02  0.46647539062E+02  0.14161642444E+03  0.23193829255E+03  0.17212025896E+03 0.  0.
         24    2    3    3    0    0  0.74911712537E+01  0.69151624773E+02  0.15399971363E+03  0.18702644538E+03  0.80155565114E+02 0.  0.
         -6    2    1    2    0  501 -0.44031618589E+02 -0.46647539062E+02  0.20959807292E+03  0.27794659470E+03  0.17090401107E+03 0.  0.
        -24    2    5    5    0    0 -0.43428214817E+02 -0.90909480856E+02  0.19017363561E+03  0.22937826807E+03  0.79358897601E+02 0.  0.
          5    1    3    3  502    0  0.36540447335E+02 -0.22504085711E+02 -0.12383289190E+02  0.44911847171E+02  0.47000000000E+01 0. -1.
        -13    1    4    4    0    0 -0.29672752849E+02  0.27762835704E+02  0.10611479097E+03  0.11362920474E+03  0.00000000000E+00 0.  1.
         14    1    4    4    0    0  0.37163924103E+02  0.41388789069E+02  0.47884922658E+02  0.73397240637E+02  0.00000000000E+00 0. -1.
         -5    1    5    5    0  501 -0.60340377224E+00  0.44261941794E+02  0.19424437304E+02  0.48568326634E+02  0.47000000000E+01 0.  1.
         13    1    6    6    0    0  0.11895387493E+02 -0.19026874770E+02  0.96146197592E+02  0.98730003132E+02  0.00000000000E+00 0. -1.
        -14    1    6    6    0    0 -0.55323602309E+02 -0.71882606086E+02  0.94027438020E+02  0.13064826494E+03  0.00000000000E+00 0.  1.
</event>
<event>
12    1  0.2614920E-002  0.3956608E+03  0.7818608E-02  0.1045293E+00
          2   -1    0    0  502    0  0.00000000000E+00  0.00000000000E+00  0.77753971164E+03  0.77753971164E+03  0.00000000000E+00 0.  1.
         -2   -1    0    0    0  501 -0.00000000000E+00 -0.00000000000E+00 -0.24433681233E+03  0.24433681233E+03  0.00000000000E+00 0. -1.
          6    2    1    2  502    0 -0.25571692707E+03 -0.24770794928E+03  0.48103761827E+03  0.62295991968E+03  0.17300721490E+03 0.  0.
         24    2    3    3    0    0 -0.84492018927E+02 -0.15765374413E+03  0.18851017296E+03  0.27221481951E+03  0.81063051690E+02 0.  0.
         -6    2    1    2    0  501  0.25571692707E+03  0.24770794928E+03  0.52165281038E+02  0.39891660429E+03  0.17222910817E+03 0.  0.
        -24    2    5    5    0    0  0.10291949032E+03  0.19375013385E+03  0.23799936525E+02  0.23434083057E+03  0.78852089630E+02 0.  0.
          5    1    3    3  502    0 -0.17122490815E+03 -0.90054205147E+02  0.29252744531E+03  0.35074510017E+03  0.47000000000E+01 0. -1.
        -11    1    4    4    0    0 -0.83776499129E+02 -0.98857427745E+02  0.16270607504E+03  0.20800134539E+03  0.00000000000E+00 0.  1.
         12    1    4    4    0    0 -0.71551979765E+00 -0.58796316387E+02  0.25804097912E+02  0.64213474118E+02  0.00000000000E+00 0. -1.
         -5    1    5    5    0  501  0.15279743676E+03  0.53957815427E+02  0.28365344514E+02  0.16457577372E+03  0.47000000000E+01 0.  1.
         13    1    6    6    0    0  0.88368148416E+02  0.16303767964E+03 -0.10905691848E+02  0.18576638219E+03  0.00000000000E+00 0. -1.
        -14    1    6    6    0    0  0.14551341899E+02  0.30712454215E+02  0.34705628373E+02  0.48574448383E+02  0.00000000000E+00 0.  1.
</event>
<event>
12    1  0.2614920E-002  0.1803982E+03  0.7818608E-02  0.1167418E+00
          1   -1    0    0  502    0  0.00000000000E+00  0.00000000000E+00  0.90718553755E+03  0.90718553755E+03  0.00000000000E+00 0. -1.
         -1   -1    0    0    0  501 -0.00000000000E+00 -0.00000000000E+00 -0.36148388598E+02  0.36148388598E+02  0.00000000000E+00 0.  1.
          6    2    1    2  502    0  0.52685058811E+02  0.16871945612E+02  0.39489101787E+03  0.43423831919E+03  0.17194075691E+03 0.  0.
         24    2    3    3    0    0  0.78450535232E+02  0.61990704140E+02  0.29974464355E+03  0.32572802156E+03  0.79085768710E+02 0.  0.
         -6    2    1    2    0  501 -0.52685058811E+02 -0.16871945612E+02  0.47614613107E+03  0.50909560695E+03  0.17147250773E+03 0.  0.
        -24    2    5    5    0    0 -0.12382342109E+01  0.47752002753E+02  0.30662251026E+03  0.32046003640E+03  0.79971770888E+02 0.  0.
          5    1    3    3  502    0 -0.25765476421E+02 -0.45118758527E+02  0.95146374323E+02  0.10851029764E+03  0.47000000000E+01 0. -1.
        -13    1    4    4    0    0  0.51954895634E+02 -0.68732101793E+01  0.14777890459E+03  0.15679654601E+03  0.00000000000E+00 0.  1.
         14    1    4    4    0    0  0.26495639598E+02  0.68863914319E+02  0.15196573896E+03  0.16893147554E+03  0.00000000000E+00 0. -1.
         -5    1    5    5    0  501 -0.51446824601E+02 -0.64623948365E+02  0.16952362081E+03  0.18863557055E+03  0.47000000000E+01 0.  1.
         11    1    6    6    0    0 -0.85201900247E+01  0.36139479193E+02  0.30430108858E+03  0.30655800120E+03  0.00000000000E+00 0. -1.
        -12    1    6    6    0    0  0.72819558138E+01  0.11612523560E+02  0.23214216858E+01  0.13902035194E+02  0.00000000000E+00 0.  1.
</event>
<event>
12    1  0.2614920E-002  0.1818807E+03  0.7818608E-02  0.1165995E+00
          1   -1    0    0  502    0  0.00000000000E+00  0.00000000000E+00  0.59671147722E+03  0.59671147722E+03  0.00000000000E+00 0. -1.
         -1   -1    0    0    0  501 -0.00000000000E+00 -0.00000000000E+00 -0.58542542235E+02  0.58542542235E+02  0.00000000000E+00 0.  1.
          6    2    1    2  502    0  0.57373096232E+02  0.13537759813E+02  0.19368874994E+03  0.26572294874E+03  0.17210000152E+03 0.  0.
         24    2    3    3    0    0  0.17441402135E+02 -0.35779725382E+02  0.40007486833E+02  0.99389623248E+02  0.81812633192E+02 0.  0.
         -6    2    1    2    0  501 -0.57373096232E+02 -0.13537759813E+02  0.34448018505E+03  0.38953107072E+03  0.17202591099E+03 0.  0.
        -24    2    5    5    0    0  0.26389469344E+00 -0.20962651945E+02  0.65014356404E+02  0.10404833722E+03  0.78483676787E+02 0.  0.
          5    1    3    3  502    0  0.39931694097E+02  0.49317485195E+02  0.15368126310E+03  0.16633332549E+03  0.47000000000E+01 0. -1.
        -13    1    4    4    0    0  0.64853581009E+01  0.26191737513E+02  0.19162151813E+02  0.33094637719E+02  0.00000000000E+00 0.  1.
         14    1    4    4    0    0  0.10956044034E+02 -0.61971462895E+02  0.20845335020E+02  0.66294985529E+02  0.00000000000E+00 0. -1.
         -5    1    5    5    0  501 -0.57636990926E+02  0.74248921319E+01  0.27946582865E+03  0.28548273350E+03  0.47000000000E+01 0.  1.
         13    1    6    6    0    0 -0.13667719997E+02 -0.14059403110E+02  0.80051692429E+02  0.82418122075E+02  0.00000000000E+00 0. -1.
        -14    1    6    6    0    0  0.13931614691E+02 -0.69032488354E+01 -0.15037336025E+02  0.21630215142E+02  0.00000000000E+00 0.  1.
</event>
<event>
12    1  0.2614920E-002  0.1834103E+03  0.7818608E-02  0.1164543E+00
         -1   -1    0    0    0  501 -0.00000000000E+00  0.00000000000E+00  0.59118087297E+03  0.59118087297E+03  0.00000000000E+00 0.  1.
          1   -1    0    0  502    0  0.00000000000E+00 -0.00000000000E+00 -0.92127079218E+02  0.92127079218E+02  0.00000000000E+00 0. -1.
          6    2    1    2  502    0  0.14369911655E+02  0.71219684699E+02  0.41111695683E+02  0.19120735137E+03  0.17202134126E+03 0.  0.
         24    2    3    3    0    0 -0.48134848612E+02  0.49489745476E+02 -0.10415801722E+02  0.10720611148E+03  0.81353935708E+02 0.  0.
         -6    2    1    2    0  501 -0.14369911655E+02 -0.71219684699E+02  0.45794209807E+03  0.49210060082E+03  0.16484325369E+03 0.  0.
        -24    2    5    5    0    0  0.32753661502E+01 -0.59978016661E+02  0.13160024986E+03  0.16505500334E+03  0.79476020663E+02 0.  0.
          5    1    3    3  502    0  0.62504760267E+02  0.21729939223E+02  0.51527497405E+02  0.84001239893E+02  0.47000000000E+01 0. -1.
        -13    1    4    4    0    0  0.99852356431E+00 -0.20834464384E+02 -0.70560746756E+00  0.20870309949E+02  0.00000000000E+00 0.  1.
         14    1    4    4    0    0 -0.49133372177E+02  0.70324209859E+02 -0.97101942546E+01  0.86335801532E+02  0.00000000000E+00 0. -1.
         -5    1    5    5    0  501 -0.17645277805E+02 -0.11241668037E+02  0.32634184822E+03  0.32704559747E+03  0.47000000000E+01 0.  1.
         13    1    6    6    0    0 -0.97092821157E+00 -0.79107768186E+02  0.11369013058E+03  0.13850786072E+03  0.00000000000E+00 0. -1.
        -14    1    6    6    0    0  0.42462943618E+01  0.19129751524E+02  0.17910119277E+02  0.26547142628E+02  0.00000000000E+00 0.  1.
</event>
<event>
12    1  0.2614920E-002  0.1855790E+03  0.7818608E-02  0.1162510E+00
          2   -1    0    0  502    0  0.00000000000E+00  0.00000000000E+00  0.13118573550E+03  0.13118573550E+03  0.00000000000E+00 0.  1.
         -2   -1    0    0    0  501 -0.00000000000E+00 -0.00000000000E+00 -0.26549646538E+03  0.26549646538E+03  0.00000000000E+00 0. -1.
          6    2    1    2  502    0 -0.84642182774E+01  0.50097773734E+02 -0.84756514734E+02  0.19837955987E+03  0.17201556052E+03 0.  0.
         24    2    3    3    0    0  0.26042415923E+02 -0.98021997991E+01 -0.96202677457E+02  0.12815264712E+03  0.79961586195E+02 0.  0.
         -6    2    1    2    0  501  0.84642182774E+01 -0.50097773734E+02 -0.49554215143E+02  0.19830264100E+03  0.18516718733E+03 0.  0.
        -24    2    5    5    0    0 -0.41169379516E+02 -0.37155988845E+02 -0.89665742232E+02  0.13301858145E+03  0.81108028974E+02 0.  0.
          5    1    3    3  502    0 -0.34506634200E+02  0.59899973533E+02  0.11446162723E+02  0.70226912748E+02  0.47000000000E+01 0. -1.
        -13    1    4    4    0    0 -0.13137507107E+02  0.20290253908E+02 -0.53805364114E+01  0.24763656206E+02  0.00000000000E+00 0.  1.
         14    1    4    4    0    0  0.39179923030E+02 -0.30092453707E+02 -0.90822141046E+02  0.10338899092E+03  0.00000000000E+00 0. -1.
         -5    1    5    5    0  501  0.49633597794E+02 -0.12941784889E+02  0.40111527089E+02  0.65284059551E+02  0.47000000000E+01 0.  1.
         13    1    6    6    0    0 -0.69416489958E+01 -0.43509405329E+01 -0.84984007047E+02  0.85377975076E+02  0.00000000000E+00 0. -1.
        -14    1    6    6    0    0 -0.34227730521E+02 -0.32805048312E+02 -0.46817351855E+01  0.47640606374E+02  0.00000000000E+00 0.  1.
</event>
<event>
12    1  0.2614920E-002  0.2800724E+03  0.7818608E-02  0.1095649E+00
         -4   -1    0    0    0  501 -0.00000000000E+00  0.00000000000E+00  0.24151758036E+03  0.24151758036E+03  0.00000000000E+00 0.  1.
          4   -1    0    0  502    0  0.00000000000E+00 -0.00000000000E+00 -0.32479101800E+03  0.32479101800E+03  0.00000000000E+00 0. -1.
          6    2    1    2  502    0  0.18481613934E+03 -0.11990732010E+03 -0.43131507863E+02  0.28341541589E+03  0.17300057867E+03 0.  0.
         24    2    3    3    0    0  0.17394748526E+03 -0.15385397259E+03 -0.48974372846E+02  0.24699108435E+03  0.68391037708E+02 0.  0.
         -6    2    1    2    0  501 -0.18481613934E+03  0.11990732010E+03 -0.40141929781E+02  0.28289318247E+03  0.17286528683E+03 0.  0.
        -24    2    5    5    0    0 -0.93164287339E+02  0.96025162737E+02 -0.84367382065E+02  0.17825857995E+03  0.82206142443E+02 0.  0.
          5    1    3    3  502    0  0.10868654080E+02  0.33946652498E+02  0.58428649824E+01  0.36424331545E+02  0.47000000000E+01 0. -1.
        -13    1    4    4    0    0  0.11081278899E+03 -0.13579458423E+03 -0.46240959227E+02  0.18126739811E+03  0.00000000000E+00 0.  1.
         14    1    4    4    0    0  0.63134696275E+02 -0.18059388366E+02 -0.27334136185E+01  0.65723686232E+02  0.00000000000E+00 0. -1.
         -5    1    5    5    0  501 -0.91651852002E+02  0.23882157360E+02  0.44225452284E+02  0.10463460252E+03  0.47000000000E+01 0.  1.
         11    1    6    6    0    0 -0.77598935336E+02  0.53130785505E+02 -0.92496012870E+02  0.13190901232E+03  0.00000000000E+00 0. -1.
        -12    1    6    6    0    0 -0.15565352003E+02  0.42894377231E+02  0.81286308042E+01  0.46349567633E+02  0.00000000000E+00 0.  1.
</event>
<event>
12    1  0.2614920E-002  0.2641154E+03  0.7818608E-02  0.1104696E+00
          2   -1    0    0  502    0  0.00000000000E+00  0.00000000000E+00  0.25547579060E+04  0.25547579060E+04  0.00000000000E+00 0.  1.
         -2   -1    0    0    0  501 -0.00000000000E+00 -0.00000000000E+00 -0.59849869646E+02  0.59849869646E+02  0.00000000000E+00 0. -1.
          6    2    1    2  502    0  0.92675282876E+02  0.18229428793E+03  0.27903482946E+03  0.38280445926E+03  0.16388685888E+03 0.  0.
         24    2    3    3    0    0  0.11789400616E+03  0.18854447579E+03  0.25019859605E+03  0.34370628526E+03  0.78017030344E+02 0.  0.
         -6    2    1    2    0  501 -0.92675282876E+02 -0.18229428793E+03  0.22158732069E+04  0.22318033164E+04  0.17038796473E+03 0.  0.
        -24    2    5    5    0    0  0.19252201976E+01 -0.30087100897E+02  0.85502832046E+03  0.85920097853E+03  0.79018685097E+02 0.  0.
          5    1    3    3  502    0 -0.25218723288E+02 -0.62501878669E+01  0.28836233418E+02  0.39098174003E+02  0.47000000000E+01 0. -1.
        -11    1    4    4    0    0  0.68641951340E+02  0.14895358692E+03  0.13545711536E+03  0.21271464134E+03  0.00000000000E+00 0.  1.
         12    1    4    4    0    0  0.49252054824E+02  0.39590888872E+02  0.11474148069E+03  0.13099164392E+03  0.00000000000E+00 0. -1.
         -5    1    5    5    0  501 -0.94600503073E+02 -0.15220718703E+03  0.13608448864E+04  0.13726023379E+04  0.47000000000E+01 0.  1.
         11    1    6    6    0    0 -0.30678220630E+02  0.10204128456E+02  0.28812611715E+03  0.28993436644E+03  0.00000000000E+00 0. -1.
        -12    1    6    6    0    0  0.32603440828E+02 -0.40291229352E+02  0.56690220331E+03  0.56926661209E+03  0.00000000000E+00 0.  1.
</event>
<event>
12    1  0.2614920E-002  0.1883656E+03  0.7818608E-02  0.1159944E+00
          4   -1    0    0  502    0  0.00000000000E+00  0.00000000000E+00  0.18422088852E+04  0.18422088852E+04  0.00000000000E+00 0. -1.
         -4   -1    0    0    0  501 -0.00000000000E+00 -0.00000000000E+00 -0.24672300093E+02  0.24672300093E+02  0.00000000000E+00 0.  1.
          6    2    1    2  502    0  0.38146758004E+02 -0.62105853446E+02  0.47070721913E+03  0.50691079445E+03  0.17343862086E+03 0.  0.
         24    2    3    3    0    0 -0.13671925401E+02 -0.12507734957E+02  0.72567126926E+02  0.10233351836E+03  0.69733751446E+02 0.  0.
         -6    2    1    2    0  501 -0.38146758004E+02  0.62105853446E+02  0.13468293659E+04  0.13599703908E+04  0.17394772418E+03 0.  0.
        -24    2    5    5    0    0  0.32507757343E+02  0.32037660523E+02  0.10240185635E+04  0.10281194289E+04  0.79576225483E+02 0.  0.
          5    1    3    3  502    0  0.51818683406E+02 -0.49598118489E+02  0.39814009221E+03  0.40457727609E+03  0.47000000000E+01 0. -1.
        -13    1    4    4    0    0  0.51961029138E+01 -0.14153227863E+02 -0.96911957008E+01  0.17922963442E+02  0.00000000000E+00 0.  1.
         14    1    4    4    0    0 -0.18868028315E+02  0.16454929067E+01  0.82258322626E+02  0.84410554913E+02  0.00000000000E+00 0. -1.
         -5    1    5    5    0  501 -0.70654515348E+02  0.30068192923E+02  0.32281080241E+03  0.33185096190E+03  0.47000000000E+01 0.  1.
         11    1    6    6    0    0 -0.93965833726E+01 -0.20260557050E+02  0.16735924986E+03  0.16884283955E+03  0.00000000000E+00 0. -1.
        -12    1    6    6    0    0  0.41904340716E+02  0.52298217572E+02  0.85665931365E+03  0.85927658935E+03  0.00000000000E+00 0.  1.
</event>
<event>
12    1  0.2614920E-002  0.1816942E+03  0.7818608E-02  0.1166173E+00
          3   -1    0    0  502    0  0.00000000000E+00  0.00000000000E+00  0.21192307440E+03  0.21192307440E+03  0.00000000000E+00 0.  1.
         -3   -1    0    0    0  501 -0.00000000000E+00 -0.00000000000E+00 -0.19414703256E+03  0.19414703256E+03  0.00000000000E+00 0. -1.
          6    2    1    2  502    0 -0.46163373168E+02 -0.27790203502E+02  0.99064483631E+02  0.20548104326E+03  0.17177116984E+03 0.  0.
         24    2    3    3    0    0  0.19528408148E+02  0.13775805575E+01  0.98058505202E+02  0.13344444317E+03  0.88366806656E+02 0.  0.
         -6    2    1    2    0  501  0.46163373168E+02  0.27790203502E+02 -0.81288441796E+02  0.20058906370E+03  0.17528493738E+03 0.  0.
        -24    2    5    5    0    0  0.96624326677E+02  0.35268066682E+02 -0.66883081716E+02  0.14737411593E+03  0.81643654955E+02 0.  0.
          5    1    3    3  502    0 -0.65691781316E+02 -0.29167784060E+02  0.10059784287E+01  0.72036600087E+02  0.47000000000E+01 0. -1.
        -11    1    4    4    0    0 -0.34759706107E+02  0.81871484961E+01  0.35918752537E+02  0.50650008420E+02  0.00000000000E+00 0.  1.
         12    1    4    4    0    0  0.54288114255E+02 -0.68095679386E+01  0.62139752665E+02  0.82794434754E+02  0.00000000000E+00 0. -1.
         -5    1    5    5    0  501 -0.50460953509E+02 -0.74778631793E+01 -0.14405360080E+02  0.53214947767E+02  0.47000000000E+01 0.  1.
         11    1    6    6    0    0  0.10181305763E+02 -0.24222539049E+02 -0.15865123957E+02  0.30693526080E+02  0.00000000000E+00 0. -1.
        -12    1    6    6    0    0  0.86443020914E+02  0.59490605731E+02 -0.51017957759E+02  0.11668058985E+03  0.00000000000E+00 0.  1.
</event>
<event>
12    1  0.2614920E-002  0.1707028E+03  0.7818608E-02  0.1177117E+00
          2   -1    0    0  502    0  0.00000000000E+00  0.00000000000E+00  0.22852127856E+04  0.22852127856E+04  0.00000000000E+00 0.  1.
         -2   -1    0    0    0  501 -0.00000000000E+00 -0.00000000000E+00 -0.17344648478E+02  0.17344648478E+02  0.00000000000E+00 0. -1.
          6    2    1    2  502    0  0.87542128082E+01 -0.17243516562E+01  0.17240658844E+04  0.17324492984E+04  0.16999349436E+03 0.  0.
         24    2    3    3    0    0  0.89956740950E+01 -0.40245308737E+02  0.16026355100E+04  0.16049685224E+04  0.76044544458E+02 0.  0.
         -6    2    1    2    0  501 -0.87542128082E+01  0.17243516562E+01  0.54380225273E+03  0.57010813569E+03  0.17094673637E+03 0.  0.
        -24    2    5    5    0    0 -0.39947952066E+02  0.47383630813E+02  0.44576032744E+03  0.45744878963E+03  0.81951682499E+02 0.  0.
          5    1    3    3  502    0 -0.24146128688E+00  0.38520957080E+02  0.12143037440E+03  0.12748077606E+03  0.47000000000E+01 0. -1.
        -13    1    4    4    0    0  0.11803415494E+02 -0.85063498002E+01  0.13787787493E+04  0.13788555103E+04  0.00000000000E+00 0.  1.
         14    1    4    4    0    0 -0.28077413986E+01 -0.31738958937E+02  0.22385676073E+03  0.22611301212E+03  0.00000000000E+00 0. -1.
         -5    1    5    5    0  501  0.31193739258E+02 -0.45659279156E+02  0.98041925283E+02  0.11265934606E+03  0.47000000000E+01 0.  1.
         11    1    6    6    0    0  0.17205266169E+01  0.43402821874E+02  0.98211593986E+02  0.10738846470E+03  0.00000000000E+00 0. -1.
        -12    1    6    6    0    0 -0.41668478683E+02  0.39808089384E+01  0.34754873346E+03  0.35006032492E+03  0.00000000000E+00 0.  1.
</event>
<event>
12    1  0.2614920E-002  0.2721057E+03  0.7818608E-02  0.1100080E+00
          2   -1    0    0  502    0  0.00000000000E+00  0.00000000000E+00  0.56217545718E+03  0.56217545718E+03  0.00000000000E+00 0. -1.
         -2   -1    0    0    0  501 -0.00000000000E+00 -0.00000000000E+00 -0.13206113301E+03  0.13206113301E+03  0.00000000000E+00 0.  1.
          6    2    1    2  502    0 -0.20867882098E+03  0.15117860800E+02  0.23397351484E+03  0.35979994477E+03  0.17588915421E+03 0.  0.
         24    2    3    3    0    0 -0.49968571924E+02 -0.12731052877E+02  0.15346666432E+03  0.17961129882E+03  0.77777012798E+02 0.  0.
         -6    2    1    2    0  501  0.20867882098E+03 -0.15117860800E+02  0.19614080932E+03  0.33443664541E+03  0.17205014581E+03 0.  0.
        -24    2    5    5    0    0  0.15241219757E+03 -0.49532593051E+02  0.19984845290E+03  0.26820868058E+03  0.79457765309E+02 0.  0.
          5    1    3    3  502    0 -0.15871024905E+03  0.27848913677E+02  0.80506850522E+02  0.18018864595E+03  0.47000000000E+01 0. -1.
        -13    1    4    4    0    0  0.17092481367E+02  0.22041118647E+01  0.85608423507E+01  0.19243155930E+02  0.00000000000E+00 0.  1.
         14    1    4    4    0    0 -0.67061053290E+02 -0.14935164741E+02  0.14490582197E+03  0.16036814289E+03  0.00000000000E+00 0. -1.
         -5    1    5    5    0  501  0.56266623408E+02  0.34414732251E+02 -0.37076435761E+01  0.66227964837E+02  0.47000000000E+01 0.  1.
         11    1    6    6    0    0  0.25769766025E+02  0.20168053653E+02  0.24059363230E+02  0.40616304462E+02  0.00000000000E+00 0. -1.
        -12    1    6    6    0    0  0.12664243154E+03 -0.69700646704E+02  0.17578908967E+03  0.22759237611E+03  0.00000000000E+00 0.  1.
</event>
<event>
12    1  0.2614920E-002  0.1761557E+03  0.7818608E-02  0.1171576E+00
          1   -1    0    0  502    0  0.00000000000E+00  0.00000000000E+00  0.54390945957E+03  0.54390945957E+03  0.00000000000E+00 0. -1.
         -1   -1    0    0    0  501 -0.00000000000E+00 -0.00000000000E+00 -0.57644527322E+02  0.57644527322E+02  0.00000000000E+00 0.  1.
          6    2    1    2  502    0  0.28487772062E+01 -0.41071337880E+02  0.21143438103E+03  0.27462691728E+03  0.17035397231E+03 0.  0.
         24    2    3    3    0    0 -0.22993247593E+02  0.34879362852E+02  0.13765311552E+03  0.16553024305E+03  0.81893966581E+02 0.  0.
         -6    2    1    2    0  501 -0.28487772062E+01  0.41071337880E+02  0.27483055122E+03  0.32692706962E+03  0.17220483919E+03 0.  0.
        -24    2    5    5    0    0  0.24229491225E+01  0.80160389405E+02  0.11522831324E+03  0.16245607092E+03  0.81748713098E+02 0.  0.
          5    1    3    3  502    0  0.25842024799E+02 -0.75950700731E+02  0.73781265514E+02  0.10909667423E+03  0.47000000000E+01 0. -1.
        -11    1    4    4    0    0  0.88763095392E+01  0.47121344467E+02  0.41219501301E+02  0.63231774156E+02  0.00000000000E+00 0.  1.
         12    1    4    4    0    0 -0.31869557132E+02 -0.12241981616E+02  0.96433614220E+02  0.10229846889E+03  0.00000000000E+00 0. -1.
         -5    1    5    5    0  501 -0.52717263287E+01 -0.39089051526E+02  0.15960223797E+03  0.16447099870E+03  0.47000000000E+01 0.  1.
         13    1    6    6    0    0 -0.39279557531E+02  0.45313049678E+02  0.55589256070E+02  0.81769930301E+02  0.00000000000E+00 0. -1.
        -14    1    6    6    0    0  0.41702506653E+02  0.34847339727E+02  0.59639057173E+02  0.80686140617E+02  0.00000000000E+00 0.  1.
</event>
<event>
12    1  0.2614920E-002  0.3935997E+03  0.7818608E-02  0.1046019E+00
          1   -1    0    0  502    0  0.00000000000E+00  0.00000000000E+00  0.42911723912E+03  0.42911723912E+03  0.00000000000E+00 0.  1.
         -1   -1    0    0    0  501 -0.00000000000E+00 -0.00000000000E+00 -0.36413172981E+03  0.36413172981E+03  0.00000000000E+00 0. -1.
          6    2    1    2  502    0 -0.11793959188E+03 -0.33451495983E+03 -0.41218139604E+01  0.39406893872E+03  0.17164886668E+03 0.  0.
         24    2    3    3    0    0 -0.19385678366E+02 -0.82555217247E+02  0.30160430409E+02  0.12131639881E+03  0.81344014138E+02 0.  0.
         -6    2    1    2    0  501  0.11793959188E+03  0.33451495983E+03  0.69107323271E+02  0.39918003022E+03  0.16958439996E+03 0.  0.
        -24    2    5    5    0    0  0.10527733612E+03  0.27299552292E+03  0.11197861441E+03  0.32298940453E+03  0.78568901707E+02 0.  0.
          5    1    3    3  502    0 -0.98553913510E+02 -0.25195974259E+03 -0.34282244369E+02  0.27275253992E+03  0.47000000000E+01 0. -1.
        -11    1    4    4    0    0 -0.26275159796E+02 -0.94173399077E+02  0.38904009017E+02  0.10522611384E+03  0.00000000000E+00 0.  1.
         12    1    4    4    0    0  0.68894814308E+01  0.11618181830E+02 -0.87435786080E+01  0.16090284966E+02  0.00000000000E+00 0. -1.
         -5    1    5    5    0  501  0.12662255752E+02  0.61519436914E+02 -0.42871291140E+02  0.76190625690E+02  0.47000000000E+01 0.  1.
         13    1    6    6    0    0  0.74105625286E+02  0.24160248703E+03  0.70538818334E+02  0.26237212186E+03  0.00000000000E+00 0. -1.
        -14    1    6    6    0    0  0.31171710836E+02  0.31393035892E+02  0.41439796077E+02  0.60617282666E+02  0.00000000000E+00 0.  1.
</event>
<event>
12    1  0.2614920E-002  0.2050086E+03  0.7818608E-02  0.1145581E+00
         -1   -1    0    0    0  501 -0.00000000000E+00  0.00000000000E+00  0.47052100361E+02  0.47052100361E+02  0.00000000000E+00 0. -1.
          1   -1    0    0  502    0  0.00000000000E+00 -0.00000000000E+00 -0.96233886080E+03  0.96233886080E+03  0.00000000000E+00 0.  1.
          6    2    1    2  502    0  0.23370983372E+02  0.10838253048E+03 -0.32159739639E+03  0.38117519158E+03  0.17197867756E+03 0.  0.
         24    2    3    3    0    0  0.15721921875E+01  0.37114052407E+02 -0.28465260405E+03  0.29786018126E+03  0.79458529524E+02 0.  0.
         -6    2    1    2    0  501 -0.23370983372E+02 -0.10838253048E+03 -0.59368936405E+03  0.62821576958E+03  0.17290175357E+03 0.  0.
        -24    2    5    5    0    0 -0.66781046888E+01 -0.40302906480E+02 -0.11894529158E+03  0.14830170253E+03  0.78590656142E+02 0.  0.
          5    1    3    3  502    0  0.21798791184E+02  0.71268478071E+02 -0.36944792341E+02  0.83315010321E+02  0.47000000000E+01 0. -1.
        -13    1    4    4    0    0 -0.92425340797E+01 -0.19437391467E+02 -0.14824398601E+03  0.14979825102E+03  0.00000000000E+00 0.  1.
         14    1    4    4    0    0  0.10814726267E+02  0.56551443875E+02 -0.13640861805E+03  0.14806193024E+03  0.00000000000E+00 0. -1.
         -5    1    5    5    0  501 -0.16692878683E+02 -0.68079623998E+02 -0.47474407247E+03  0.47991406705E+03  0.47000000000E+01 0.  1.
         13    1    6    6    0    0 -0.31483939130E+02 -0.27025344389E+02 -0.21213707479E+02  0.46600740847E+02  0.00000000000E+00 0. -1.
        -14    1    6    6    0    0  0.24805834442E+02 -0.13277562091E+02 -0.97731584099E+02  0.10170096169E+03  0.00000000000E+00 0.  1.
</event>
<event>
12    1  0.2614920E-002  0.2329126E+03  0.7818608E-02  0.1124606E+00
         -1   -1    0    0    0  501 -0.00000000000E+00  0.00000000000E+00  0.19497472753E+03  0.19497472753E+03  0.00000000000E+00 0. -1.
          1   -1    0    0  502    0  0.00000000000E+00 -0.00000000000E+00 -0.28520868003E+03  0.28520868003E+03  0.00000000000E+00 0.  1.
          6    2    1    2  502    0 -0.15671267993E+03 -0.19893863616E+02 -0.82748366346E+02  0.24759452007E+03  0.17175891353E+03 0.  0.
         24    2    3    3    0    0 -0.13257459783E+03 -0.74919738992E+02 -0.76910130354E+02  0.18704149399E+03  0.76683512196E+02 0.  0.
         -6    2    1    2    0  501  0.15671267993E+03  0.19893863616E+02 -0.74855861503E+01  0.23258888749E+03  0.17054889834E+03 0.  0.
        -24    2    5    5    0    0  0.35993601055E+02 -0.43718935000E+02  0.13383084787E+02  0.94468376417E+02  0.74419638470E+02 0.  0.
          5    1    3    3  502    0 -0.24138082106E+02  0.55025875375E+02 -0.58382359920E+01  0.60553026085E+02  0.47000000000E+01 0. -1.
        -13    1    4    4    0    0 -0.15404109824E+02 -0.43433767488E+02 -0.37685359127E+02  0.59531210723E+02  0.00000000000E+00 0.  1.
         14    1    4    4    0    0 -0.11717048800E+03 -0.31485971504E+02 -0.39224771227E+02  0.12751028327E+03  0.00000000000E+00 0. -1.
         -5    1    5    5    0  501  0.12071907888E+03  0.63612798616E+02 -0.20868670937E+02  0.13812051108E+03  0.47000000000E+01 0.  1.
         13    1    6    6    0    0  0.43656105987E+02 -0.21480001408E+02  0.37008544720E+02  0.61130012537E+02  0.00000000000E+00 0. -1.
        -14    1    6    6    0    0 -0.76625049317E+01 -0.22238933592E+02 -0.23625459934E+02  0.33338363880E+02  0.00000000000E+00 0.  1.
</event>
<event>
12    1  0.2614920E-002  0.1954086E+03  0.7818608E-02  0.1153672E+00
          2   -1    0    0  502    0  0.00000000000E+00  0.00000000000E+00  0.54941893323E+03  0.54941893323E+03  0.00000000000E+00 0.  1.
         -2   -1    0    0    0  501 -0.00000000000E+00 -0.00000000000E+00 -0.74084776120E+02  0.74084776120E+02  0.00000000000E+00 0. -1.
          6    2    1    2  502    0  0.87142585194E+02 -0.26053441637E+02  0.31498375474E+03  0.37056440837E+03  0.17271538153E+03 0.  0.
         24    2    3    3    0    0  0.41371211191E+02 -0.11999288635E+02  0.30903122445E+03  0.32208698567E+03  0.79900992524E+02 0.  0.
         -6    2    1    2    0  501 -0.87142585194E+02  0.26053441637E+02  0.16035040236E+03  0.25293930098E+03  0.17318610357E+03 0.  0.
        -24    2    5    5    0    0  0.22173861135E+02  0.13226847865E+02  0.47937227756E+02  0.95543561615E+02  0.78510921145E+02 0.  0.
          5    1    3    3  502    0  0.45771374003E+02 -0.14054153002E+02  0.59525302941E+01  0.48477422700E+02  0.47000000000E+01 0. -1.
        -11    1    4    4    0    0 -0.94745564812E+01  0.19435524354E+02  0.31604284951E+02  0.38292788547E+02  0.00000000000E+00 0.  1.
         12    1    4    4    0    0  0.50845767672E+02 -0.31434812989E+02  0.27742693950E+03  0.28379419712E+03  0.00000000000E+00 0. -1.
         -5    1    5    5    0  501 -0.10931644633E+03  0.12826593773E+02  0.11241317461E+03  0.15739573937E+03  0.47000000000E+01 0.  1.
         11    1    6    6    0    0  0.26373907430E+02 -0.53943289826E+01  0.64739371933E+02  0.70113251648E+02  0.00000000000E+00 0. -1.
        -12    1    6    6    0    0 -0.42000462943E+01  0.18621176848E+02 -0.16802144177E+02  0.25430309967E+02  0.00000000000E+00 0.  1.
</event>
<event>
12    1  0.2614920E-002  0.2030289E+03  0.7818608E-02  0.1147208E+00
          1   -1    0    0  502    0  0.00000000000E+00  0.00000000000E+00  0.24486255105E+04  0.24486255105E+04  0.00000000000E+00 0. -1.
         -1   -1    0    0    0  501 -0.00000000000E+00 -0.00000000000E+00 -0.20159256208E+02  0.20159256208E+02  0.00000000000E+00 0.  1.
          6    2    1    2  502    0  0.72750539877E+02  0.84649527311E+02  0.70404674767E+03  0.73224214078E+03  0.16744714478E+03 0.  0.
         24    2    3    3    0    0  0.10510751683E+03  0.51037777897E+02  0.39403010868E+03  0.41869927272E+03  0.79980682437E+02 0.  0.
         -6    2    1    2    0  501 -0.72750539877E+02 -0.84649527311E+02  0.17244195066E+04  0.17365426259E+04  0.17175410720E+03 0.  0.
        -24    2    5    5    0    0  0.29883448882E+01 -0.98114046615E+02  0.10473948792E+04  0.10551454524E+04  0.81612477146E+02 0.  0.
          5    1    3    3  502    0 -0.32356976955E+02  0.33611749414E+02  0.31001663899E+03  0.31354286806E+03  0.47000000000E+01 0. -1.
        -11    1    4    4    0    0  0.75379940525E+02  0.68954600159E+02  0.33489047488E+03  0.35012640929E+03  0.00000000000E+00 0.  1.
         12    1    4    4    0    0  0.29727576308E+02 -0.17916822263E+02  0.59139633799E+02  0.68572863430E+02  0.00000000000E+00 0. -1.
         -5    1    5    5    0  501 -0.75738884765E+02  0.13464519305E+02  0.67702462740E+03  0.68139717350E+03  0.47000000000E+01 0.  1.
         13    1    6    6    0    0 -0.80709965529E+01 -0.17207426514E+02  0.60367821098E+03  0.60397733312E+03  0.00000000000E+00 0. -1.
        -14    1    6    6    0    0  0.11059341441E+02 -0.80906620101E+02  0.44371666825E+03  0.45116811933E+03  0.00000000000E+00 0.  1.
</event>
<event>
12    1  0.2614920E-002  0.2745024E+03  0.7818608E-02  0.1098730E+00
          2   -1    0    0  502    0  0.00000000000E+00  0.00000000000E+00  0.26676366460E+02  0.26676366460E+02  0.00000000000E+00 0.  1.
         -2   -1    0    0    0  501 -0.00000000000E+00 -0.00000000000E+00 -0.30169081328E+04  0.30169081328E+04  0.00000000000E+00 0. -1.
          6    2    1    2  502    0 -0.17535588784E+02 -0.21261739687E+03 -0.18822357051E+04  0.19022312701E+04  0.17366318354E+03 0.  0.
         24    2    3    3    0    0  0.82431175586E+01 -0.16829561264E+03 -0.93648941163E+03  0.95508444741E+03  0.82356064478E+02 0.  0.
         -6    2    1    2    0  501  0.17535588784E+02  0.21261739687E+03 -0.11079960612E+04  0.11413532291E+04  0.17180881092E+03 0.  0.
        -24    2    5    5    0    0  0.45238022514E+02  0.21309052371E+03 -0.10647877984E+04  0.10898101145E+04  0.80367780044E+02 0.  0.
          5    1    3    3  502    0 -0.25778706343E+02 -0.44321784236E+02 -0.94574629344E+03  0.94714682273E+03  0.47000000000E+01 0. -1.
        -11    1    4    4    0    0 -0.20484466822E+02 -0.87717277396E+01 -0.18340921788E+03  0.18475794379E+03  0.00000000000E+00 0.  1.
         12    1    4    4    0    0  0.28727584380E+02 -0.15952388490E+03 -0.75308019375E+03  0.77032650362E+03  0.00000000000E+00 0. -1.
         -5    1    5    5    0  501 -0.27702433730E+02 -0.47312684200E+00 -0.43208262796E+02  0.51543114549E+02  0.47000000000E+01 0.  1.
         11    1    6    6    0    0  0.45626386587E+02  0.71243458957E+02 -0.28765778384E+03  0.29984062133E+03  0.00000000000E+00 0. -1.
        -12    1    6    6    0    0 -0.38836407276E+00  0.14184706476E+03 -0.77713001460E+03  0.78996949320E+03  0.00000000000E+00 0.  1.
</event>
<event>
12    1  0.2614920E-002  0.1983990E+03  0.7818608E-02  0.1151097E+00
         -1   -1    0    0    0  501 -0.00000000000E+00  0.00000000000E+00  0.17972698433E+03  0.17972698433E+03  0.00000000000E+00 0.  1.
          1   -1    0    0  502    0  0.00000000000E+00 -0.00000000000E+00 -0.41802280136E+03  0.41802280136E+03  0.00000000000E+00 0. -1.
          6    2    1    2  502    0  0.26423923615E+02 -0.97009075895E+02  0.86743025908E+02  0.21747834334E+03  0.17223092850E+03 0.  0.
         24    2    3    3    0    0  0.14725243192E+02 -0.13587161032E+03  0.63881301815E+02  0.17066056751E+03  0.79788979837E+02 0.  0.
         -6    2    1    2    0  501 -0.26423923615E+02  0.97009075895E+02 -0.32503884294E+03  0.38027144235E+03  0.16984444619E+03 0.  0.
        -24    2    5    5    0    0 -0.26309847558E+02  0.18618468917E+01 -0.76531532921E+02  0.11413053731E+03  0.80455139447E+02 0.  0.
          5    1    3    3  502    0  0.11698680423E+02  0.38862534421E+02  0.22861724093E+02  0.46817775831E+02  0.47000000000E+01 0. -1.
        -13    1    4    4    0    0  0.30085840396E+02 -0.13499028431E+02  0.24878036440E+02  0.41307363243E+02  0.00000000000E+00 0.  1.
         14    1    4    4    0    0 -0.15360597204E+02 -0.12237258188E+03  0.39003265375E+02  0.12935320426E+03  0.00000000000E+00 0. -1.
         -5    1    5    5    0  501 -0.11407605739E+00  0.95147229003E+02 -0.24850731002E+03  0.26614090504E+03  0.47000000000E+01 0.  1.
         13    1    6    6    0    0 -0.27361093363E+02  0.15759046142E+01 -0.93343290518E+02  0.97283517567E+02  0.00000000000E+00 0. -1.
        -14    1    6    6    0    0  0.10512458059E+01  0.28594227759E+00  0.16811757598E+02  0.16847019744E+02  0.00000000000E+00 0.  1.
</event>
<event>
12    1  0.2614920E-002  0.1742169E+03  0.7818608E-02  0.1173520E+00
          2   -1    0    0  502    0  0.00000000000E+00  0.00000000000E+00  0.21483892812E+04  0.21483892812E+04  0.00000000000E+00 0. -1.
         -2   -1    0    0    0  501 -0.00000000000E+00 -0.00000000000E+00 -0.15938085067E+02  0.15938085067E+02  0.00000000000E+00 0.  1.
          6    2    1    2  502    0  0.10345688658E+02  0.12823671467E+02  0.70192623258E+03  0.72324260176E+03  0.17351641189E+03 0.  0.
         24    2    3    3    0    0  0.22830051335E+02  0.50846619869E+02  0.23448895231E+03  0.25407173214E+03  0.80379016671E+02 0.  0.
         -6    2    1    2    0  501 -0.10345688658E+02 -0.12823671467E+02  0.14305249635E+04  0.14410847645E+04  0.17335555172E+03 0.  0.
        -24    2    5    5    0    0 -0.82162715727E+01 -0.41938681238E+02  0.39231286537E+03  0.40245168732E+03  0.78940586443E+02 0.  0.
          5    1    3    3  502    0 -0.12484362677E+02 -0.38022948402E+02  0.46743728026E+03  0.46917086962E+03  0.47000000000E+01 0. -1.
        -13    1    4    4    0    0 -0.19347691468E+02  0.34607322567E+02  0.17458595364E+03  0.17903143620E+03  0.00000000000E+00 0.  1.
         14    1    4    4    0    0  0.42177742803E+02  0.16239297302E+02  0.59902998676E+02  0.75040295943E+02  0.00000000000E+00 0. -1.
         -5    1    5    5    0  501 -0.21294170856E+01  0.29115009771E+02  0.10382120981E+04  0.10386330771E+04  0.47000000000E+01 0.  1.
         11    1    6    6    0    0 -0.39662634849E+01  0.18161591586E+02  0.30975152187E+02  0.36125264123E+02  0.00000000000E+00 0. -1.
        -12    1    6    6    0    0 -0.42500080877E+01 -0.60100272825E+02  0.36133771318E+03  0.36632642319E+03  0.00000000000E+00 0.  1.
</event>
<event>
12    1  0.2614920E-002  0.1861308E+03  0.7818608E-02  0.1161998E+00
          1   -1    0    0  502    0  0.00000000000E+00  0.00000000000E+00  0.83396747013E+03  0.83396747013E+03  0.00000000000E+00 0.  1.
         -1   -1    0    0    0  501 -0.00000000000E+00 -0.00000000000E+00 -0.43700954177E+02  0.43700954177E+02  0.00000000000E+00 0. -1.
          6    2    1    2  502    0  0.63421957162E+02  0.25160142779E+02  0.49360646006E+03  0.52769878568E+03  0.17367582897E+03 0.  0.
         24    2    3    3    0    0  0.32407975526E+02  0.40098127211E+02  0.48172567361E+03  0.49098021378E+03  0.79648032155E+02 0.  0.
         -6    2    1    2    0  501 -0.63421957162E+02 -0.25160142779E+02  0.29666005589E+03  0.34996963862E+03  0.17267362786E+03 0.  0.
        -24    2    5    5    0    0 -0.82281248435E+02 -0.48445115041E+02  0.12493639220E+03  0.17558796104E+03  0.78133839998E+02 0.  0.
          5    1    3    3  502    0  0.31013981636E+02 -0.14937984432E+02  0.11880786442E+02  0.36718571899E+02  0.47000000000E+01 0. -1.
        -11    1    4    4    0    0 -0.19206641932E+02  0.15974427538E+02  0.28715396712E+03  0.28823857872E+03  0.00000000000E+00 0.  1.
         12    1    4    4    0    0  0.51614617457E+02  0.24123699672E+02  0.19457170650E+03  0.20274163507E+03  0.00000000000E+00 0. -1.
         -5    1    5    5    0  501  0.18859291273E+02  0.23284972262E+02  0.17172366370E+03  0.17438167758E+03  0.47000000000E+01 0.  1.
         11    1    6    6    0    0 -0.42445669872E+02  0.17816893599E+02  0.44770782853E+02  0.64214481121E+02  0.00000000000E+00 0. -1.
        -12    1    6    6    0    0 -0.39835578563E+02 -0.66262008640E+02  0.80165609343E+02  0.11137347992E+03  0.00000000000E+00 0.  1.
</event>
<event>
12    1  0.2614920E-002  0.2018655E+03  0.7818608E-02  0.1148175E+00
          2   -1    0    0  502    0  0.00000000000E+00  0.00000000000E+00  0.97738446387E+03  0.97738446387E+03  0.00000000000E+00 0. -1.
         -2   -1    0    0    0  501 -0.00000000000E+00 -0.00000000000E+00 -0.41714854216E+02  0.41714854216E+02  0.00000000000E+00 0.  1.
          6    2    1    2  502    0  0.70930878130E+02 -0.78531216526E+02  0.47962078852E+03  0.52037300946E+03  0.17191168299E+03 0.  0.
         24    2    3    3    0    0  0.35024752827E+02 -0.21830121040E+02  0.42504962705E+03  0.43374526720E+03  0.75924198198E+02 0.  0.
         -6    2    1    2    0  501 -0.70930878130E+02  0.78531216526E+02  0.45604882114E+03  0.49872630863E+03  0.17189840668E+03 0.  0.
        -24    2    5    5    0    0  0.12137605823E+02  0.91682427236E+02  0.24751495292E+03  0.27382234788E+03  0.71847319642E+02 0.  0.
          5    1    3    3  502    0  0.35906125303E+02 -0.56701095486E+02  0.54571161473E+02  0.86627742255E+02  0.47000000000E+01 0. -1.
        -11    1    4    4    0    0 -0.58829252531E+01  0.29504123074E+01  0.59906142086E+00  0.66085260764E+01  0.00000000000E+00 0.  1.
         12    1    4    4    0    0  0.40907678080E+02 -0.24780533347E+02  0.42445056563E+03  0.42713674113E+03  0.00000000000E+00 0. -1.
         -5    1    5    5    0  501 -0.83068483953E+02 -0.13151210709E+02  0.20853386821E+03  0.22490396075E+03  0.47000000000E+01 0.  1.
         13    1    6    6    0    0  0.36701531309E+02  0.25966790998E+02  0.73002822137E+02  0.85736157338E+02  0.00000000000E+00 0. -1.
        -14    1    6    6    0    0 -0.24563925486E+02  0.65715636238E+02  0.17451213079E+03  0.18808619054E+03  0.00000000000E+00 0.  1.
</event>
<event>
12    1  0.2614920E-002  0.2138557E+03  0.7818608E-02  0.1138549E+00
         -1   -1    0    0    0  501 -0.00000000000E+00  0.00000000000E+00  0.21083304206E+02  0.21083304206E+02  0.00000000000E+00 0. -1.
          1   -1    0    0  502    0  0.00000000000E+00 -0.00000000000E+00 -0.26301843670E+04  0.26301843670E+04  0.00000000000E+00 0.  1.
          6    2    1    2  502    0  0.10297671196E+03 -0.71288208658E+02 -0.18662366614E+04  0.18786041841E+04  0.17500912026E+03 0.  0.
         24    2    3    3    0    0  0.46688791493E+02 -0.80792659441E+02 -0.68220892242E+03  0.69319183335E+03  0.79991292811E+02 0.  0.
         -6    2    1    2    0  501 -0.10297671196E+03  0.71288208658E+02 -0.74286440139E+03  0.77266348713E+03  0.17168323618E+03 0.  0.
        -24    2    5    5    0    0 -0.71296536993E+02  0.10064264297E+03 -0.38642216148E+03  0.41358344494E+03  0.80728193835E+02 0.  0.
          5    1    3    3  502    0  0.56287920467E+02  0.95044507825E+01 -0.11840277390E+04  0.11854123507E+04  0.47000000000E+01 0. -1.
        -13    1    4    4    0    0 -0.14369839137E+02 -0.14354076013E+02 -0.29114195721E+03  0.29184956917E+03  0.00000000000E+00 0.  1.
         14    1    4    4    0    0  0.61058630630E+02 -0.66438583427E+02 -0.39106696521E+03  0.40134226418E+03  0.00000000000E+00 0. -1.
         -5    1    5    5    0  501 -0.31680174968E+02 -0.29354434313E+02 -0.35644223991E+03  0.35908004218E+03  0.47000000000E+01 0.  1.
         11    1    6    6    0    0 -0.47488222438E+02  0.11152981157E+03 -0.31959291445E+03  0.34180939295E+03  0.00000000000E+00 0. -1.
        -12    1    6    6    0    0 -0.23808314555E+02 -0.10887168599E+02 -0.66829247024E+02  0.71774051996E+02  0.00000000000E+00 0.  1.
</event>
<event>
12    1  0.2614920E-002  0.2163640E+03  0.7818608E-02  0.1136623E+00
          2   -1    0    0  502    0  0.00000000000E+00  0.00000000000E+00  0.13583940185E+04  0.13583940185E+04  0.00000000000E+00 0.  1.
         -2   -1    0    0    0  501 -0.00000000000E+00 -0.00000000000E+00 -0.37616899852E+02  0.37616899852E+02  0.00000000000E+00 0. -1.
          6    2    1    2  502    0 -0.53093407155E+02 -0.12162795945E+03  0.45960938326E+03  0.50819620173E+03  0.17149438437E+03 0.  0.
         24    2    3    3    0    0 -0.76378363319E+02 -0.18810898243E+02  0.25219423823E+03  0.27548034570E+03  0.78102386621E+02 0.  0.
         -6    2    1    2    0  501  0.53093407155E+02  0.12162795945E+03  0.86116773543E+03  0.88781471666E+03  0.17027281690E+03 0.  0.
        -24    2    5    5    0    0  0.14770413516E+01  0.13118635114E+03  0.74075830219E+03  0.75637600972E+03  0.78547854422E+02 0.  0.
          5    1    3    3  502    0  0.23284956164E+02 -0.10281706121E+03  0.20741514503E+03  0.23271585603E+03  0.47000000000E+01 0. -1.
        -13    1    4    4    0    0 -0.67267926250E+02 -0.15632878623E+02  0.25596732533E+03  0.26512003400E+03  0.00000000000E+00 0.  1.
         14    1    4    4    0    0 -0.91104370687E+01 -0.31780196205E+01 -0.37730870941E+01  0.10360311700E+02  0.00000000000E+00 0. -1.
         -5    1    5    5    0  501  0.51616365803E+02 -0.95583916920E+01  0.12040943324E+03  0.13143870695E+03  0.47000000000E+01 0.  1.
         11    1    6    6    0    0 -0.11204951818E+02  0.10397032174E+03  0.37262848594E+03  0.38702372961E+03  0.00000000000E+00 0. -1.
        -12    1    6    6    0    0  0.12681993170E+02  0.27216029404E+02  0.36812981625E+03  0.36935228011E+03  0.00000000000E+00 0.  1.
</event>
<event>
12    1  0.2614920E-002  0.2056698E+03  0.7818608E-02  0.1145042E+00
         -2   -1    0    0    0  501 -0.00000000000E+00  0.00000000000E+00  0.27074001904E+02  0.27074001904E+02  0.00000000000E+00 0.  1.
          2   -1    0    0  502    0  0.00000000000E+00 -0.00000000000E+00 -0.16113152455E+04  0.16113152455E+04  0.00000000000E+00 0. -1.
          6    2    1    2  502    0 -0.49586862460E+02  0.99790243154E+02 -0.64525035535E+03  0.67689673813E+03  0.17153490447E+03 0.  0.
         24    2    3    3    0    0 -0.14707217848E+02  0.13080398605E+03 -0.43378299531E+03  0.46028885226E+03  0.79825782010E+02 0.  0.
         -6    2    1    2    0  501  0.49586862460E+02 -0.99790243154E+02 -0.93899088820E+03  0.96149250923E+03  0.17420392540E+03 0.  0.
        -24    2    5    5    0    0  0.48615764664E+02  0.97535688214E+01 -0.51335099737E+03  0.52195616666E+03  0.80314187632E+02 0.  0.
          5    1    3    3  502    0 -0.34879644612E+02 -0.31013742898E+02 -0.21146736004E+03  0.21660788586E+03  0.47000000000E+01 0. -1.
        -11    1    4    4    0    0 -0.85381873996E+01 -0.99126997808E+01 -0.38130691291E+02  0.40312676410E+02  0.00000000000E+00 0.  1.
         12    1    4    4    0    0 -0.61690304483E+01  0.14071668583E+03 -0.39565230402E+03  0.41997617585E+03  0.00000000000E+00 0. -1.
         -5    1    5    5    0  501  0.97109779573E+00 -0.10954381198E+03 -0.42563989083E+03  0.43953634257E+03  0.47000000000E+01 0.  1.
         13    1    6    6    0    0  0.49306563503E+02 -0.23608610814E+02 -0.40238130075E+03  0.40607784340E+03  0.00000000000E+00 0. -1.
        -14    1    6    6    0    0 -0.69079883869E+00  0.33362179636E+02 -0.11096969662E+03  0.11587832326E+03  0.00000000000E+00 0.  1.
</event>
<event>
12    1  0.2614920E-002  0.2166281E+03  0.7818608E-02  0.1136422E+00
          1   -1    0    0  502    0  0.00000000000E+00  0.00000000000E+00  0.21658203211E+04  0.21658203211E+04  0.00000000000E+00 0.  1.
         -1   -1    0    0    0  501 -0.00000000000E+00 -0.00000000000E+00 -0.22206684590E+02  0.22206684590E+02  0.00000000000E+00 0. -1.
          6    2    1    2  502    0  0.95798832353E+02  0.90523238275E+02  0.12424092133E+04  0.12611578754E+04  0.17194958697E+03 0.  0.
         24    2    3    3    0    0  0.26044478662E+02  0.93690686430E+02  0.51637169843E+03  0.53175519815E+03  0.81655374782E+02 0.  0.
         -6    2    1    2    0  501 -0.95798832353E+02 -0.90523238275E+02  0.90120442327E+03  0.92686913034E+03  0.17188687941E+03 0.  0.
        -24    2    5    5    0    0 -0.12922193676E+03 -0.65190452616E+02  0.80438239742E+03  0.82124977309E+03  0.80449017804E+02 0.  0.
          5    1    3    3  502    0  0.69754353691E+02 -0.31674481549E+01  0.72603751486E+03  0.72940267724E+03  0.47000000000E+01 0. -1.
        -13    1    4    4    0    0  0.42942258097E+02  0.61818807489E+02  0.44964321720E+03  0.45589979739E+03  0.00000000000E+00 0.  1.
         14    1    4    4    0    0 -0.16897779435E+02  0.31871878940E+02  0.66728481227E+02  0.75855400756E+02  0.00000000000E+00 0. -1.
         -5    1    5    5    0  501  0.33423104406E+02 -0.25332785659E+02  0.96822025850E+02  0.10561935726E+03  0.47000000000E+01 0.  1.
         13    1    6    6    0    0 -0.19117477317E+02 -0.66711522558E+01  0.26053834169E+02  0.32996734480E+02  0.00000000000E+00 0. -1.
        -14    1    6    6    0    0 -0.11010445944E+03 -0.58519300360E+02  0.77832856325E+03  0.78825303861E+03  0.00000000000E+00 0.  1.
</event>
<event>
12    1  0.2614920E-002  0.1969485E+03  0.7818608E-02  0.1152339E+00
          2   -1    0    0  502    0  0.00000000000E+00  0.00000000000E+00  0.88979358726E+03  0.88979358726E+03  0.00000000000E+00 0. -1.
         -2   -1    0    0    0  501 -0.00000000000E+00 -0.00000000000E+00 -0.44857851467E+02  0.44857851467E+02  0.00000000000E+00 0.  1.
          6    2    1    2  502    0 -0.78156975138E+02 -0.49263053408E+02  0.50373145116E+03  0.54136634064E+03  0.17549010994E+03 0.  0.
         24    2    3    3    0    0 -0.75754944031E+02  0.25498403886E+02  0.38072448713E+03  0.39732520605E+03  0.80791114119E+02 0.  0.
         -6    2    1    2    0  501  0.78156975138E+02  0.49263053408E+02  0.34120428463E+03  0.39328509809E+03  0.17238748023E+03 0.  0.
        -24    2    5    5    0    0  0.49961060964E+02  0.53623729372E+02  0.34720824732E+03  0.36375269827E+03  0.79942770313E+02 0.  0.
          5    1    3    3  502    0 -0.24020311065E+01 -0.74761457294E+02  0.12300696404E+03  0.14404113458E+03  0.47000000000E+01 0. -1.
        -11    1    4    4    0    0 -0.20962279597E+02  0.27899608914E+02  0.28397848372E+03  0.28611463535E+03  0.00000000000E+00 0.  1.
         12    1    4    4    0    0 -0.54792664435E+02 -0.24012050284E+01  0.96746003403E+02  0.11121057070E+03  0.00000000000E+00 0. -1.
         -5    1    5    5    0  501  0.28195914174E+02 -0.43606759637E+01 -0.60039626976E+01  0.29532399819E+02  0.47000000000E+01 0.  1.
         13    1    6    6    0    0  0.70700906984E+02  0.34419040323E+02  0.22589375929E+03  0.23918879379E+03  0.00000000000E+00 0. -1.
        -14    1    6    6    0    0 -0.20739846021E+02  0.19204689049E+02  0.12131448803E+03  0.12456390449E+03  0.00000000000E+00 0.  1.
</event>
<event>
12    1  0.2614920E-002  0.1834159E+03  0.7818608E-02  0.1164537E+00
         -1   -1    0    0    0  501 -0.00000000000E+00  0.00000000000E+00  0.23636460328E+03  0.23636460328E+03  0.00000000000E+00 0. -1.
          1   -1    0    0  502    0  0.00000000000E+00 -0.00000000000E+00 -0.18688788615E+03  0.18688788615E+03  0.00000000000E+00 0.  1.
          6    2    1    2  502    0 -0.62200306874E+02 -0.15144518793E+02 -0.78620521868E+02  0.19934231607E+03  0.17163314916E+03 0.  0.
         24    2    3    3    0    0 -0.69073047318E+02 -0.60611268306E+02 -0.90216566174E+02  0.15168711576E+03  0.80156974525E+02 0.  0.
         -6    2    1    2    0  501  0.62200306874E+02  0.15144518793E+02  0.12809723900E+03  0.22391017336E+03  0.17212968504E+03 0.  0.
        -24    2    5    5    0    0  0.66951143566E+02  0.41977643739E+02  0.20738884365E+02  0.11304767585E+03  0.78135123298E+02 0.  0.
          5    1    3    3  502    0  0.68727404441E+01  0.45466749513E+02  0.11596044306E+02  0.47655200304E+02  0.47000000000E+01 0. -1.
        -11    1    4    4    0    0  0.83960362682E+01  0.12584808159E+02 -0.14455945983E+02  0.20924750791E+02  0.00000000000E+00 0.  1.
         12    1    4    4    0    0 -0.77469083587E+02 -0.73196076465E+02 -0.75760620191E+02  0.13076236497E+03  0.00000000000E+00 0. -1.
         -5    1    5    5    0  501 -0.47508366914E+01 -0.26833124946E+02  0.10735835464E+03  0.11086249751E+03  0.47000000000E+01 0.  1.
         11    1    6    6    0    0  0.70674802091E+02  0.17654887273E+01  0.14795699262E+02  0.72228507653E+02  0.00000000000E+00 0. -1.
        -12    1    6    6    0    0 -0.37236585258E+01  0.40212155012E+02  0.59431851036E+01  0.40819168202E+02  0.00000000000E+00 0.  1.
</event>
<event>
12    1  0.2614920E-002  0.1869022E+03  0.7818608E-02  0.1161285E+00
         -2   -1    0    0    0  501 -0.00000000000E+00  0.00000000000E+00  0.55700967974E+02  0.55700967974E+02  0.00000000000E+00 0.  1.
          2   -1    0    0  502    0  0.00000000000E+00 -0.00000000000E+00 -0.68220722977E+03  0.68220722977E+03  0.00000000000E+00 0. -1.
          6    2    1    2  502    0 -0.84369376026E+01  0.72172552005E+02 -0.20921560699E+03  0.28087945944E+03  0.17274849159E+03 0.  0.
         24    2    3    3    0    0  0.28324400988E+02  0.85926869067E+02 -0.76269384822E+02  0.14218063016E+03  0.78820137105E+02 0.  0.
         -6    2    1    2    0  501  0.84369376026E+01 -0.72172552005E+02 -0.41729065480E+03  0.45702873830E+03  0.17164998652E+03 0.  0.
        -24    2    5    5    0    0 -0.50164676796E+02 -0.84245690478E+02 -0.26730190754E+03  0.29547805218E+03  0.79013532910E+02 0.  0.
          5    1    3    3  502    0 -0.36761338590E+02 -0.13754317061E+02 -0.13294622217E+03  0.13869882927E+03  0.47000000000E+01 0. -1.
        -13    1    4    4    0    0  0.55677671690E+02  0.51209085081E+02 -0.51521766120E+02  0.91525220042E+02  0.00000000000E+00 0.  1.
         14    1    4    4    0    0 -0.27353270702E+02  0.34717783986E+02 -0.24747618702E+02  0.50655410120E+02  0.00000000000E+00 0. -1.
         -5    1    5    5    0  501  0.58601614398E+02  0.12073138473E+02 -0.14998874726E+03  0.16155068613E+03  0.47000000000E+01 0.  1.
         11    1    6    6    0    0 -0.52705395355E+02 -0.51250703995E+02 -0.24444181152E+03  0.25525730661E+03  0.00000000000E+00 0. -1.
        -12    1    6    6    0    0  0.25407185595E+01 -0.32994986483E+02 -0.22860096015E+02  0.40220745563E+02  0.00000000000E+00 0.  1.
</event>
<event>
12    1  0.2614920E-002  0.1960911E+03  0.7818608E-02  0.1153080E+00
         -2   -1    0    0    0  501 -0.00000000000E+00  0.00000000000E+00  0.29335531630E+02  0.29335531630E+02  0.00000000000E+00 0. -1.
          2   -1    0    0  502    0  0.00000000000E+00 -0.00000000000E+00 -0.13202794157E+04  0.13202794157E+04  0.00000000000E+00 0.  1.
          6    2    1    2  502    0 -0.60398297197E+02 -0.83816507435E+02 -0.60801697725E+03  0.64049212466E+03  0.17283621123E+03 0.  0.
         24    2    3    3    0    0 -0.73844968050E+02 -0.57459374422E+02 -0.59584297077E+03  0.60815317212E+03  0.77889511076E+02 0.  0.
         -6    2    1    2    0  501  0.60398297197E+02  0.83816507435E+02 -0.68292690679E+03  0.70912282263E+03  0.16060154526E+03 0.  0.
        -24    2    5    5    0    0 -0.69681686411E+01  0.86060394169E+02 -0.34955660835E+03  0.36897414686E+03  0.80604911717E+02 0.  0.
          5    1    3    3  502    0  0.13446670853E+02 -0.26357133013E+02 -0.12174006481E+02  0.32338952542E+02  0.47000000000E+01 0. -1.
        -13    1    4    4    0    0 -0.48285407027E+02 -0.24848962573E+02 -0.50947479252E+03  0.51236072809E+03  0.00000000000E+00 0.  1.
         14    1    4    4    0    0 -0.25559561022E+02 -0.32610411849E+02 -0.86368178243E+02  0.95792444032E+02  0.00000000000E+00 0. -1.
         -5    1    5    5    0  501  0.67366465838E+02 -0.22438867341E+01 -0.33337029844E+03  0.34014867577E+03  0.47000000000E+01 0.  1.
         13    1    6    6    0    0  0.11697935907E+02  0.94996942826E+02 -0.30833256195E+03  0.32284706845E+03  0.00000000000E+00 0. -1.
        -14    1    6    6    0    0 -0.18666104548E+02 -0.89365486574E+01 -0.41224046402E+02  0.46127078411E+02  0.00000000000E+00 0.  1.
</event>
<event>
12    1  0.2614920E-002  0.2766639E+03  0.7818608E-02  0.1097525E+00
          1   -1    0    0  502    0  0.00000000000E+00  0.00000000000E+00  0.69931160825E+03  0.69931160825E+03  0.00000000000E+00 0. -1.
         -1   -1    0    0    0  501 -0.00000000000E+00 -0.00000000000E+00 -0.11052788235E+03  0.11052788235E+03  0.00000000000E+00 0.  1.
          6    2    1    2  502    0  0.29008322758E+02  0.21478470470E+03  0.25442664878E+03  0.37582193920E+03  0.17185825034E+03 0.  0.
         24    2    3    3    0    0 -0.35060640032E+02  0.15122887978E+03  0.11147787348E+03  0.20670476907E+03  0.78740858008E+02 0.  0.
         -6    2    1    2    0  501 -0.29008322758E+02 -0.21478470470E+03  0.33435707712E+03  0.43401755140E+03  0.17205414188E+03 0.  0.
        -24    2    5    5    0    0 -0.19818423344E+02 -0.22395002423E+03  0.23965025035E+03  0.33831002624E+03  0.80467683640E+02 0.  0.
          5    1    3    3  502    0  0.64068962790E+02  0.63555824921E+02  0.14294877530E+03  0.16911717013E+03  0.47000000000E+01 0. -1.
        -11    1    4    4    0    0  0.10632029326E+02 -0.36053150371E+01  0.14051891275E+01  0.11314278616E+02  0.00000000000E+00 0.  1.
         12    1    4    4    0    0 -0.45692669358E+02  0.15483419482E+03  0.11007268436E+03  0.19539049045E+03  0.00000000000E+00 0. -1.
         -5    1    5    5    0  501 -0.91898994145E+01  0.91653195294E+01  0.94706826775E+02  0.95707525154E+02  0.47000000000E+01 0.  1.
         11    1    6    6    0    0  0.31009943395E+02 -0.97368409499E+02  0.95835233014E+02  0.14009502362E+03  0.00000000000E+00 0. -1.
        -12    1    6    6    0    0 -0.50828366739E+02 -0.12658161473E+03  0.14381501733E+03  0.19821500262E+03  0.00000000000E+00 0.  1.
</event>
<event>
12    1  0.2614920E-002  0.2163817E+03  0.7818608E-02  0.1136610E+00
         -2   -1    0    0    0  501 -0.00000000000E+00  0.00000000000E+00  0.12307324169E+03  0.12307324169E+03  0.00000000000E+00 0. -1.
          2   -1    0    0  502    0  0.00000000000E+00 -0.00000000000E+00 -0.79796921279E+03  0.79796921279E+03  0.00000000000E+00 0.  1.
          6    2    1    2  502    0  0.10526525862E+03 -0.77703535236E+02 -0.47761937184E+01  0.21703895378E+03  0.17310251695E+03 0.  0.
         24    2    3    3    0    0  0.77583658078E+02 -0.18662192242E+02  0.56750676323E+02  0.12726258201E+03  0.81287293582E+02 0.  0.
         -6    2    1    2    0  501 -0.10526525862E+03  0.77703535236E+02 -0.67011977738E+03  0.70400350070E+03  0.17158612677E+03 0.  0.
        -24    2    5    5    0    0 -0.16970386962E+02 -0.17630566470E+02 -0.22134722571E+03  0.23677393352E+03  0.80426801249E+02 0.  0.
          5    1    3    3  502    0  0.27681600538E+02 -0.59041342994E+02 -0.61526870042E+02  0.89776371769E+02  0.47000000000E+01 0. -1.
        -11    1    4    4    0    0  0.86142472717E+02 -0.22032291761E+02  0.22388779156E+02  0.91690811526E+02  0.00000000000E+00 0.  1.
         12    1    4    4    0    0 -0.85588146398E+01  0.33700995191E+01  0.34361897167E+02  0.35571770489E+02  0.00000000000E+00 0. -1.
         -5    1    5    5    0  501 -0.88294871654E+02  0.95334101706E+02 -0.44877255168E+03  0.46722956718E+03  0.47000000000E+01 0.  1.
         13    1    6    6    0    0  0.58189731607E+01  0.25999711432E+02 -0.34720036398E+02  0.43764441853E+02  0.00000000000E+00 0. -1.
        -14    1    6    6    0    0 -0.22789360122E+02 -0.43630277902E+02 -0.18662718931E+03  0.19300949167E+03  0.00000000000E+00 0.  1.
</event>
<event>
12    1  0.2614920E-002  0.1715823E+03  0.7818608E-02  0.1176208E+00
         -2   -1    0    0    0  501 -0.00000000000E+00  0.00000000000E+00  0.23473415416E+02  0.23473415416E+02  0.00000000000E+00 0.  1.
          2   -1    0    0  502    0  0.00000000000E+00 -0.00000000000E+00 -0.16335564001E+04  0.16335564001E+04  0.00000000000E+00 0. -1.
          6    2    1    2  502    0  0.23516434031E+02  0.34382579973E+02 -0.38683457456E+03  0.42101939687E+03  0.16087622569E+03 0.  0.
         24    2    3    3    0    0 -0.10412862921E+02  0.33435263968E+01 -0.35717305977E+03  0.36609658287E+03  0.79589612891E+02 0.  0.
         -6    2    1    2    0  501 -0.23516434031E+02 -0.34382579973E+02 -0.12232484101E+04  0.12360104186E+04  0.17219145636E+03 0.  0.
        -24    2    5    5    0    0 -0.48208797634E+02 -0.14495388828E+02 -0.37752483171E+03  0.38967970652E+03  0.82407952592E+02 0.  0.
          5    1    3    3  502    0  0.33929296951E+02  0.31039053577E+02 -0.29661514790E+02  0.54922814004E+02  0.47000000000E+01 0. -1.
        -11    1    4    4    0    0 -0.44213255087E+01 -0.37666486470E+02 -0.14256660673E+03  0.14752474259E+03  0.00000000000E+00 0.  1.
         12    1    4    4    0    0 -0.59915374119E+01  0.41010012867E+02 -0.21460645303E+03  0.21857184027E+03  0.00000000000E+00 0. -1.
         -5    1    5    5    0  501  0.24692363603E+02 -0.19887191146E+02 -0.84572357839E+03  0.84633071210E+03  0.47000000000E+01 0.  1.
         13    1    6    6    0    0 -0.44438598693E+02  0.23632007787E+02 -0.28701501092E+03  0.29139471056E+03  0.00000000000E+00 0. -1.
        -14    1    6    6    0    0 -0.37701989407E+01 -0.38127396615E+02 -0.90509820785E+02  0.98284995962E+02  0.00000000000E+00 0.  1.
</event>
<event>
12    1  0.2614920E-002  0.2115766E+03  0.7818608E-02  0.1140324E+00
          2   -1    0    0  502    0  0.00000000000E+00  0.00000000000E+00  0.66634157026E+03  0.66634157026E+03  0.00000000000E+00 0. -1.
         -2   -1    0    0    0  501 -0.00000000000E+00 -0.00000000000E+00 -0.70394569068E+02  0.70394569068E+02  0.00000000000E+00 0.  1.
          6    2    1    2  502    0 -0.77338811879E+02  0.96889216309E+02  0.21944205496E+03  0.30492484233E+03  0.17162613998E+03 0.  0.
         24    2    3    3    0    0 -0.72355290540E-01  0.10628262742E+03  0.13671919627E+03  0.19124325703E+03  0.81153204533E+02 0.  0.
         -6    2    1    2    0  501  0.77338811879E+02 -0.96889216309E+02  0.37650494623E+03  0.43181129699E+03  0.17127816445E+03 0.  0.
        -24    2    5    5    0    0  0.82564123601E+02 -0.99083002218E+02  0.38887357528E+03  0.41741721613E+03  0.79876147472E+02 0.  0.
          5    1    3    3  502    0 -0.77266456588E+02 -0.93934111064E+01  0.82722858690E+02  0.11368158530E+03  0.47000000000E+01 0. -1.
        -13    1    4    4    0    0  0.32984723054E+02  0.80471022752E+02  0.66609362192E+02  0.10954626689E+03  0.00000000000E+00 0.  1.
         14    1    4    4    0    0 -0.33057078345E+02  0.25811604663E+02  0.70109834079E+02  0.81696990144E+02  0.00000000000E+00 0. -1.
         -5    1    5    5    0  501 -0.52253117218E+01  0.21937859094E+01 -0.12368629054E+02  0.14394080863E+02  0.47000000000E+01 0.  1.
         13    1    6    6    0    0 -0.11287902853E+02 -0.33572013864E+02  0.12196034876E+03  0.12699930526E+03  0.00000000000E+00 0. -1.
        -14    1    6    6    0    0  0.93852026453E+02 -0.65510988355E+02  0.26691322652E+03  0.29041791087E+03  0.00000000000E+00 0.  1.
</event>
<event>
12    1  0.2614920E-002  0.1835200E+03  0.7818608E-02  0.1164439E+00
          2   -1    0    0  502    0  0.00000000000E+00  0.00000000000E+00  0.37338699842E+03  0.37338699842E+03  0.00000000000E+00 0.  1.
         -2   -1    0    0    0  501 -0.00000000000E+00 -0.00000000000E+00 -0.94415524753E+02  0.94415524753E+02  0.00000000000E+00 0. -1.
          6    2    1    2  502    0 -0.36974380730E+02  0.55576891456E+02  0.18878599634E+03  0.26316929191E+03  0.17076893189E+03 0.  0.
         24    2    3    3    0    0 -0.16639565618E+01 -0.30331739782E+02  0.65359133158E+02  0.10862674266E+03  0.81272195392E+02 0.  0.
         -6    2    1    2    0  501  0.36974380730E+02 -0.55576891456E+02  0.90185477335E+02  0.20463323126E+03  0.17112990189E+03 0.  0.
        -24    2    5    5    0    0 -0.75549391996E+01 -0.30201844064E+02 -0.15501396339E+02  0.87080865782E+02  0.79834550200E+02 0.  0.
          5    1    3    3  502    0 -0.35310424169E+02  0.85908631237E+02  0.12342686318E+03  0.15454254925E+03  0.47000000000E+01 0. -1.
        -13    1    4    4    0    0  0.36200115769E+02 -0.15832196206E+02  0.11381586669E+02  0.41117482091E+02  0.00000000000E+00 0.  1.
         14    1    4    4    0    0 -0.37864072331E+02 -0.14499543576E+02  0.53977546490E+02  0.67509260568E+02  0.00000000000E+00 0. -1.
         -5    1    5    5    0  501  0.44529319930E+02 -0.25375047392E+02  0.10568687367E+03  0.11755236548E+03  0.47000000000E+01 0.  1.
         11    1    6    6    0    0 -0.92636916563E+01  0.11278649876E+02 -0.37397599793E+02  0.40144792893E+02  0.00000000000E+00 0. -1.
        -12    1    6    6    0    0  0.17087524566E+01 -0.41480493940E+02  0.21896203455E+02  0.46936072889E+02  0.00000000000E+00 0.  1.
</event>
<event>
12    1  0.2614920E-002  0.1806121E+03  0.7818608E-02  0.1167212E+00
          3   -1    0    0  502    0  0.00000000000E+00  0.00000000000E+00  0.29707470608E+02  0.29707470608E+02  0.00000000000E+00 0.  1.
         -3   -1    0    0    0  501 -0.00000000000E+00 -0.00000000000E+00 -0.13253431752E+04  0.13253431752E+04  0.00000000000E+00 0. -1.
          6    2    1    2  502    0 -0.53966262057E+02  0.24564147142E+02 -0.93049239700E+03  0.94799541216E+03  0.17135765475E+03 0.  0.
         24    2    3    3    0    0 -0.38642493414E+02  0.13135004531E+02 -0.22191753453E+03  0.23914714285E+03  0.79235050069E+02 0.  0.
         -6    2    1    2    0  501  0.53966262057E+02 -0.24564147142E+02 -0.36514330757E+03  0.40705523362E+03  0.16984867792E+03 0.  0.
        -24    2    5    5    0    0  0.58335211096E+02  0.38305663473E+02 -0.15224004535E+03  0.18497058790E+03  0.78528760792E+02 0.  0.
          5    1    3    3  502    0 -0.15323768643E+02  0.11429142611E+02 -0.70857486247E+03  0.70884826931E+03  0.47000000000E+01 0. -1.
        -11    1    4    4    0    0 -0.39715169431E+02 -0.92105573198E+01 -0.20976107131E+03  0.21368630299E+03  0.00000000000E+00 0.  1.
         12    1    4    4    0    0  0.10726760172E+01  0.22345561851E+02 -0.12156463223E+02  0.25460839859E+02  0.00000000000E+00 0. -1.
         -5    1    5    5    0  501 -0.43689490386E+01 -0.62869810615E+02 -0.21290326222E+03  0.22208464572E+03  0.47000000000E+01 0.  1.
         11    1    6    6    0    0  0.66510709223E+02  0.43743492642E+02 -0.15544380660E+03  0.17464233336E+03  0.00000000000E+00 0. -1.
        -12    1    6    6    0    0 -0.81754981273E+01 -0.54378291684E+01  0.32037612515E+01  0.10328254540E+02  0.00000000000E+00 0.  1.
</event>
<event>
12    1  0.2614920E-002  0.2224441E+03  0.7818608E-02  0.1132074E+00
         -3   -1    0    0    0  501 -0.00000000000E+00  0.00000000000E+00  0.12363596067E+03  0.12363596067E+03  0.00000000000E+00 0.  1.
          3   -1    0    0  502    0  0.00000000000E+00 -0.00000000000E+00 -0.40121657657E+03  0.40121657657E+03  0.00000000000E+00 0. -1.
          6    2    1    2  502    0  0.69175917464E+02 -0.12318303415E+03 -0.15184414198E+03  0.26928017950E+03  0.17174342538E+03 0.  0.
         24    2    3    3    0    0  0.66334006356E+02 -0.15175089845E+03 -0.97823646005E+02  0.20792463115E+03  0.78959805844E+02 0.  0.
         -6    2    1    2    0  501 -0.69175917464E+02  0.12318303415E+03 -0.12573647392E+03  0.25557235774E+03  0.17189590369E+03 0.  0.
        -24    2    5    5    0    0  0.18785049095E+02  0.39958987022E+02 -0.91199201342E+02  0.12956328324E+03  0.80744977090E+02 0.  0.
          5    1    3    3  502    0  0.28419111081E+01  0.28567864298E+02 -0.54020495970E+02  0.61355548357E+02  0.47000000000E+01 0. -1.
        -13    1    4    4    0    0  0.48592299671E+02 -0.34296933861E+02 -0.10267030225E+02  0.60356467501E+02  0.00000000000E+00 0.  1.
         14    1    4    4    0    0  0.17741706685E+02 -0.11745396459E+03 -0.87556615781E+02  0.14756816364E+03  0.00000000000E+00 0. -1.
         -5    1    5    5    0  501 -0.87960966559E+02  0.83224047132E+02 -0.34537272578E+02  0.12600907450E+03  0.47000000000E+01 0.  1.
         11    1    6    6    0    0 -0.24236357953E+02  0.42287173263E+02 -0.44087412200E+02  0.65721427129E+02  0.00000000000E+00 0. -1.
        -12    1    6    6    0    0  0.43021407048E+02 -0.23281862412E+01 -0.47111789143E+02  0.63841856111E+02  0.00000000000E+00 0.  1.
</event>
<event>
12    1  0.2614920E-002  0.1888225E+03  0.7818608E-02  0.1159528E+00
         -2   -1    0    0    0  501 -0.00000000000E+00  0.00000000000E+00  0.32814690512E+02  0.32814690512E+02  0.00000000000E+00 0. -1.
          2   -1    0    0  502    0  0.00000000000E+00 -0.00000000000E+00 -0.11066436554E+04  0.11066436554E+04  0.00000000000E+00 0.  1.
          6    2    1    2  502    0 -0.15004117128E+02 -0.75559052831E+02 -0.61519375617E+03  0.64367497435E+03  0.17297346901E+03 0.  0.
         24    2    3    3    0    0 -0.49848973421E+02 -0.80616482588E+02 -0.58247861713E+03  0.59538302960E+03  0.78839552900E+02 0.  0.
         -6    2    1    2    0  501  0.15004117128E+02  0.75559052831E+02 -0.45863520872E+03  0.49578337156E+03  0.17181560711E+03 0.  0.
        -24    2    5    5    0    0  0.75057038327E+02  0.42661970438E+02 -0.26962777401E+03  0.29470012574E+03  0.81825575895E+02 0.  0.
          5    1    3    3  502    0  0.34844856293E+02  0.50574297574E+01 -0.32715139039E+02  0.48291944755E+02  0.47000000000E+01 0. -1.
        -13    1    4    4    0    0 -0.52623245343E+01 -0.76434118892E+02 -0.41544060333E+03  0.42244616401E+03  0.00000000000E+00 0.  1.
         14    1    4    4    0    0 -0.44586648887E+02 -0.41823636957E+01 -0.16703801380E+03  0.17293686559E+03  0.00000000000E+00 0. -1.
         -5    1    5    5    0  501 -0.60052921199E+02  0.32897082393E+02 -0.18900743471E+03  0.20108324582E+03  0.47000000000E+01 0.  1.
         11    1    6    6    0    0 -0.90991893987E+01  0.16317176107E+02 -0.11655971635E+03  0.11804750298E+03  0.00000000000E+00 0. -1.
        -12    1    6    6    0    0  0.84156227725E+02  0.26344794331E+02 -0.15306805766E+03  0.17665262276E+03  0.00000000000E+00 0.  1.
</event>
<event>
12    1  0.2614920E-002  0.2234293E+03  0.7818608E-02  0.1131352E+00
         -2   -1    0    0    0  501 -0.00000000000E+00  0.00000000000E+00  0.53831114645E+02  0.53831114645E+02  0.00000000000E+00 0.  1.
          2   -1    0    0  502    0  0.00000000000E+00 -0.00000000000E+00 -0.10847628688E+04  0.10847628688E+04  0.00000000000E+00 0. -1.
          6    2    1    2  502    0 -0.34523595005E+02 -0.13528739286E+03 -0.73540576426E+03  0.76905980864E+03  0.17645620949E+03 0.  0.
         24    2    3    3    0    0 -0.56765183789E+02 -0.71436449973E+02 -0.23506296482E+03  0.26414730321E+03  0.78700367779E+02 0.  0.
         -6    2    1    2    0  501  0.34523595005E+02  0.13528739286E+03 -0.29552598993E+03  0.36953417485E+03  0.17241037781E+03 0.  0.
        -24    2    5    5    0    0  0.89960343841E+02  0.95390531432E+02 -0.18949544412E+03  0.24332181682E+03  0.78133003582E+02 0.  0.
          5    1    3    3  502    0  0.22241588783E+02 -0.63850942887E+02 -0.50034279945E+03  0.50491250543E+03  0.47000000000E+01 0. -1.
        -11    1    4    4    0    0 -0.16227360182E+02 -0.74429787795E+02 -0.12022563069E+03  0.14232822209E+03  0.00000000000E+00 0.  1.
         12    1    4    4    0    0 -0.40537823607E+02  0.29933378223E+01 -0.11483733413E+03  0.12181908111E+03  0.00000000000E+00 0. -1.
         -5    1    5    5    0  501 -0.55436748836E+02  0.39896861428E+02 -0.10603054581E+03  0.12621235803E+03  0.47000000000E+01 0.  1.
         11    1    6    6    0    0  0.55967322924E+02  0.40508156138E+02 -0.15595197286E+03  0.17057042472E+03  0.00000000000E+00 0. -1.
        -12    1    6    6    0    0  0.33993020918E+02  0.54882375294E+02 -0.33543471256E+02  0.72751392103E+02  0.00000000000E+00 0.  1.
</event>
<event>
12    1  0.2614920E-002  0.2281242E+03  0.7818608E-02  0.1127967E+00
         -2   -1    0    0    0  501 -0.00000000000E+00  0.00000000000E+00  0.46928735943E+02  0.46928735943E+02  0.00000000000E+00 0.  1.
          2   -1    0    0  502    0  0.00000000000E+00 -0.00000000000E+00 -0.11103865376E+04  0.11103865376E+04  0.00000000000E+00 0. -1.
          6    2    1    2  502    0  0.25948130843E+02  0.14772317754E+03 -0.55296270015E+03  0.59821600720E+03  0.17204418280E+03 0.  0.
         24    2    3    3    0    0  0.53363224073E+02  0.16547066946E+03 -0.50463326774E+03  0.53969776352E+03  0.79942259837E+02 0.  0.
         -6    2    1    2    0  501 -0.25948130843E+02 -0.14772317754E+03 -0.51049510153E+03  0.55909926636E+03  0.17173030684E+03 0.  0.
        -24    2    5    5    0    0 -0.30520584151E+02 -0.77397199442E+02 -0.45453335820E+03  0.46898568669E+03  0.80157146065E+02 0.  0.
          5    1    3    3  502    0 -0.27415093230E+02 -0.17747491914E+02 -0.48329432407E+02  0.58518243675E+02  0.47000000000E+01 0. -1.
        -11    1    4    4    0    0  0.29528287895E+02  0.81819445199E+01 -0.58310216712E+02  0.65870671586E+02  0.00000000000E+00 0.  1.
         12    1    4    4    0    0  0.23834936178E+02  0.15728872494E+03 -0.44632305103E+03  0.47382709194E+03  0.00000000000E+00 0. -1.
         -5    1    5    5    0  501  0.45724533078E+01 -0.70325978100E+02 -0.55961743325E+02  0.90113579670E+02  0.47000000000E+01 0.  1.
         11    1    6    6    0    0 -0.25803881599E+02 -0.37658092298E+02 -0.78344634472E+02  0.90674439461E+02  0.00000000000E+00 0. -1.
        -12    1    6    6    0    0 -0.47167025519E+01 -0.39739107145E+02 -0.37618872373E+03  0.37831124723E+03  0.00000000000E+00 0.  1.
</event>
<event>
12    1  0.2614920E-002  0.3894356E+03  0.7818608E-02  0.1047500E+00
         -2   -1    0    0    0  501 -0.00000000000E+00  0.00000000000E+00  0.34333420300E+03  0.34333420300E+03  0.00000000000E+00 0. -1.
          2   -1    0    0  502    0  0.00000000000E+00 -0.00000000000E+00 -0.53558466422E+03  0.53558466422E+03  0.00000000000E+00 0.  1.
          6    2    1    2  502    0  0.12738189926E+03 -0.32469175691E+03  0.87828169097E+02  0.39927956589E+03  0.17337675504E+03 0.  0.
         24    2    3    3    0    0  0.15174700677E+03 -0.21502210107E+03  0.81515373921E+02  0.28666059209E+03  0.79169949236E+02 0.  0.
         -6    2    1    2    0  501 -0.12738189926E+03  0.32469175691E+03 -0.28007863032E+03  0.47963930133E+03  0.17308649558E+03 0.  0.
        -24    2    5    5    0    0 -0.32517164668E+02  0.82390790708E+02 -0.40688123431E+02  0.12603078774E+03  0.79891349213E+02 0.  0.
          5    1    3    3  502    0 -0.24365107510E+02 -0.10966965584E+03  0.63127951766E+01  0.11261897380E+03  0.47000000000E+01 0. -1.
        -13    1    4    4    0    0  0.10461424610E+03 -0.11294051438E+03  0.81572351893E+02  0.17422327304E+03  0.00000000000E+00 0.  1.
         14    1    4    4    0    0  0.47132760669E+02 -0.10208158669E+03 -0.56977971994E-01  0.11243731905E+03  0.00000000000E+00 0. -1.
         -5    1    5    5    0  501 -0.94864734595E+02  0.24230096620E+03 -0.23939050689E+03  0.35360851358E+03  0.47000000000E+01 0.  1.
         13    1    6    6    0    0  0.14939796358E+02  0.23902494861E+02 -0.42138818236E+02  0.50697206808E+02  0.00000000000E+00 0. -1.
        -14    1    6    6    0    0 -0.47456961026E+02  0.58488295848E+02  0.14506948050E+01  0.75333580934E+02  0.00000000000E+00 0.  1.
</event>
<event>
12    1  0.2614920E-002  0.1851331E+03  0.7818608E-02  0.1162926E+00
         -1   -1    0    0    0  501 -0.00000000000E+00  0.00000000000E+00  0.24357742422E+03  0.24357742422E+03  0.00000000000E+00 0. -1.
          1   -1    0    0  502    0  0.00000000000E+00 -0.00000000000E+00 -0.14324510405E+03  0.14324510405E+03  0.00000000000E+00 0.  1.
          6    2    1    2  502    0  0.66526202005E+02  0.16625522888E+01  0.24687907395E+02  0.18761684993E+03  0.17367236387E+03 0.  0.
         24    2    3    3    0    0  0.96512094974E+02 -0.20758389438E+02  0.54599784159E+02  0.13946435491E+03  0.81998016140E+02 0.  0.
         -6    2    1    2    0  501 -0.66526202005E+02 -0.16625522888E+01  0.75644412776E+02  0.19920567835E+03  0.17184971769E+03 0.  0.
        -24    2    5    5    0    0 -0.55117297599E+02  0.25016384032E+01  0.11876445180E+03  0.15416201787E+03  0.81343457350E+02 0.  0.
          5    1    3    3  502    0 -0.29985892969E+02  0.22420941727E+02 -0.29911876764E+02  0.48152495019E+02  0.47000000000E+01 0. -1.
        -13    1    4    4    0    0  0.54813921469E+02  0.26409028547E+02  0.45231357164E+02  0.75814764040E+02  0.00000000000E+00 0.  1.
         14    1    4    4    0    0  0.41698173505E+02 -0.47167417985E+02  0.93684269946E+01  0.63649590866E+02  0.00000000000E+00 0. -1.
         -5    1    5    5    0  501 -0.11408904406E+02 -0.41641906920E+01 -0.43120039024E+02  0.45043660479E+02  0.47000000000E+01 0.  1.
         11    1    6    6    0    0 -0.44219251316E+02  0.38058601966E+02  0.89510895687E+02  0.10684568226E+03  0.00000000000E+00 0. -1.
        -12    1    6    6    0    0 -0.10898046283E+02 -0.35556963563E+02  0.29253556113E+02  0.47316335613E+02  0.00000000000E+00 0.  1.
</event>
<event>
12    1  0.2614920E-002  0.3482508E+03  0.7818608E-02  0.1063335E+00
         -2   -1    0    0    0  501 -0.00000000000E+00  0.00000000000E+00  0.85886242200E+02  0.85886242200E+02  0.00000000000E+00 0. -1.
          2   -1    0    0  502    0  0.00000000000E+00 -0.00000000000E+00 -0.14927088793E+04  0.14927088793E+04  0.00000000000E+00 0.  1.
          6    2    1    2  502    0 -0.29649137894E+03 -0.64899653865E+02 -0.51870844595E+03  0.62439900856E+03  0.16940061139E+03 0.  0.
         24    2    3    3    0    0 -0.13182735332E+03 -0.53752363040E+02 -0.36074584165E+03  0.39589785368E+03  0.79559918710E+02 0.  0.
         -6    2    1    2    0  501  0.29649137894E+03  0.64899653865E+02 -0.88811419113E+03  0.95419611291E+03  0.17211711874E+03 0.  0.
        -24    2    5    5    0    0  0.16652449683E+03  0.10383964337E+03 -0.57656950886E+03  0.61435807461E+03  0.80562806017E+02 0.  0.
          5    1    3    3  502    0 -0.16466402562E+03 -0.11147290825E+02 -0.15796260430E+03  0.22850115489E+03  0.47000000000E+01 0. -1.
        -13    1    4    4    0    0 -0.79659247419E+02  0.23618187715E+01 -0.12718083835E+03  0.15008710647E+03  0.00000000000E+00 0.  1.
         14    1    4    4    0    0 -0.52168105897E+02 -0.56114181812E+02 -0.23356500330E+03  0.24581074720E+03  0.00000000000E+00 0. -1.
         -5    1    5    5    0  501  0.12996688211E+03 -0.38939989507E+02 -0.31154468226E+03  0.33983803830E+03  0.47000000000E+01 0.  1.
         11    1    6    6    0    0  0.77238491198E+02  0.29949673421E+02 -0.14006250461E+03  0.16272760263E+03  0.00000000000E+00 0. -1.
        -12    1    6    6    0    0  0.89286005628E+02  0.73889969951E+02 -0.43650700426E+03  0.45163047199E+03  0.00000000000E+00 0.  1.
</event>
<event>
12    1  0.2614920E-002  0.1700953E+03  0.7818608E-02  0.1177748E+00
          2   -1    0    0  502    0  0.00000000000E+00  0.00000000000E+00  0.46463835930E+03  0.46463835930E+03  0.00000000000E+00 0. -1.
         -2   -1    0    0    0  501 -0.00000000000E+00 -0.00000000000E+00 -0.72690333307E+02  0.72690333307E+02  0.00000000000E+00 0.  1.
          6    2    1    2  502    0 -0.20688717708E+02 -0.17215724846E+02  0.29517835188E+03  0.33945641809E+03  0.16545693137E+03 0.  0.
         24    2    3    3    0    0  0.22188450636E+02  0.43443571342E+02  0.16162844344E+03  0.18656537903E+03  0.79392793697E+02 0.  0.
         -6    2    1    2    0  501  0.20688717708E+02  0.17215724846E+02  0.96769674111E+02  0.19787227452E+03  0.17048361497E+03 0.  0.
        -24    2    5    5    0    0  0.24852924415E+02 -0.17288219771E+02  0.12603746901E+03  0.15219343226E+03  0.79754917305E+02 0.  0.
          5    1    3    3  502    0 -0.42877168344E+02 -0.60659296188E+02  0.13354990844E+03  0.15289103906E+03  0.47000000000E+01 0. -1.
        -13    1    4    4    0    0 -0.24925531581E+02  0.27065367905E+02  0.36347628060E+02  0.51720076663E+02  0.00000000000E+00 0.  1.
         14    1    4    4    0    0  0.47113982216E+02  0.16378203437E+02  0.12528081538E+03  0.13484530237E+03  0.00000000000E+00 0. -1.
         -5    1    5    5    0  501 -0.41642067065E+01  0.34503944617E+02 -0.29267794900E+02  0.45678842257E+02  0.47000000000E+01 0.  1.
         13    1    6    6    0    0  0.33021326661E+02  0.24348518557E+02  0.77763277465E+02  0.87922611952E+02  0.00000000000E+00 0. -1.
        -14    1    6    6    0    0 -0.81684022469E+01 -0.41636738329E+02  0.48274191546E+02  0.64270820310E+02  0.00000000000E+00 0.  1.
</event>
<event>
12    1  0.2614920E-002  0.2098509E+03  0.7818608E-02  0.1141684E+00
          3   -1    0    0  502    0  0.00000000000E+00  0.00000000000E+00  0.15784262926E+03  0.15784262926E+03  0.00000000000E+00 0.  1.
         -3   -1    0    0    0  501 -0.00000000000E+00 -0.00000000000E+00 -0.27927293665E+03  0.27927293665E+03  0.00000000000E+00 0. -1.
          6    2    1    2  502    0 -0.11807467476E+03 -0.19455442045E+02 -0.67860068579E+02  0.22207142660E+03  0.17432896076E+03 0.  0.
         24    2    3    3    0    0 -0.61607850418E+02  0.53657126080E+02 -0.12297325174E+02  0.11416749560E+03  0.78793263885E+02 0.  0.
         -6    2    1    2    0  501  0.11807467476E+03  0.19455442045E+02 -0.53570238819E+02  0.21504413931E+03  0.17045253979E+03 0.  0.
        -24    2    5    5    0    0  0.86945669015E+02 -0.43027515959E+02  0.29307502215E+01  0.12511312796E+03  0.78954347580E+02 0.  0.
          5    1    3    3  502    0 -0.56466824342E+02 -0.73112568126E+02 -0.55562743405E+02  0.10790393099E+03  0.47000000000E+01 0. -1.
        -13    1    4    4    0    0  0.11203439508E+02  0.18318530005E+02 -0.24211045145E+02  0.32361401474E+02  0.00000000000E+00 0.  1.
         14    1    4    4    0    0 -0.72811289927E+02  0.35338596076E+02  0.11913719971E+02  0.81806094131E+02  0.00000000000E+00 0. -1.
         -5    1    5    5    0  501  0.31129005746E+02  0.62482958004E+02 -0.56500989041E+02  0.89931011349E+02  0.47000000000E+01 0.  1.
         13    1    6    6    0    0  0.35180959233E+02  0.21901825445E+02  0.67463457064E+01  0.41986938811E+02  0.00000000000E+00 0. -1.
        -14    1    6    6    0    0  0.51764709782E+02 -0.64929341404E+02 -0.38155954849E+01  0.83126189151E+02  0.00000000000E+00 0.  1.
</event>
<event>
12    1  0.2614920E-002  0.1900888E+03  0.7818608E-02  0.1158381E+00
          2   -1    0    0  502    0  0.00000000000E+00  0.00000000000E+00  0.80435915692E+03  0.80435915692E+03  0.00000000000E+00 0.  1.
         -2   -1    0    0    0  501 -0.00000000000E+00 -0.00000000000E+00 -0.77795066085E+02  0.77795066085E+02  0.00000000000E+00 0. -1.
          6    2    1    2  502    0 -0.79359282688E+02  0.12696522333E+01  0.77116329116E+02  0.20559910338E+03  0.17327595139E+03 0.  0.
         24    2    3    3    0    0 -0.39356311461E+02  0.31613312252E+02  0.11039742114E+03  0.14517810954E+03  0.79628965407E+02 0.  0.
         -6    2    1    2    0  501  0.79359282688E+02 -0.12696522333E+01  0.64944776172E+03  0.67655511962E+03  0.17217702206E+03 0.  0.
        -24    2    5    5    0    0  0.84477414657E+02  0.33432330597E+02  0.27684459430E+03  0.30227496619E+03  0.80455400532E+02 0.  0.
          5    1    3    3  502    0 -0.40002971227E+02 -0.30343660019E+02 -0.33281092024E+02  0.60420993840E+02  0.47000000000E+01 0. -1.
        -11    1    4    4    0    0  0.10584529822E+02  0.36073151000E+02  0.22019531081E+02  0.43567926777E+02  0.00000000000E+00 0.  1.
         12    1    4    4    0    0 -0.49940841283E+02 -0.44598387479E+01  0.88377890060E+02  0.10161018276E+03  0.00000000000E+00 0. -1.
         -5    1    5    5    0  501 -0.51181319692E+01 -0.34701982831E+02  0.37260316741E+03  0.37428015343E+03  0.47000000000E+01 0.  1.
         11    1    6    6    0    0 -0.58136453808E+01  0.26277456433E+02  0.35892570137E+02  0.44861785299E+02  0.00000000000E+00 0. -1.
        -12    1    6    6    0    0  0.90291060038E+02  0.71548741639E+01  0.24095202417E+03  0.25741318089E+03  0.00000000000E+00 0.  1.
</event>
<event>
12    1  0.2614920E-002  0.1961809E+03  0.7818608E-02  0.1153002E+00
         -2   -1    0    0    0  501 -0.00000000000E+00  0.00000000000E+00  0.32519689841E+03  0.32519689841E+03  0.00000000000E+00 0.  1.
          2   -1    0    0  502    0  0.00000000000E+00 -0.00000000000E+00 -0.12268933281E+03  0.12268933281E+03  0.00000000000E+00 0. -1.
          6    2    1    2  502    0  0.82565771015E+02 -0.30773636792E+02  0.57190314672E+02  0.20003115694E+03  0.17022810693E+03 0.  0.
         24    2    3    3    0    0  0.80049025899E+02  0.13048336041E+02  0.89021494307E+02  0.14560677540E+03  0.81843759528E+02 0.  0.
         -6    2    1    2    0  501 -0.82565771015E+02  0.30773636792E+02  0.14531725093E+03  0.24785507428E+03  0.18041871068E+03 0.  0.
        -24    2    5    5    0    0 -0.27904166709E+02 -0.49389501556E+02  0.10348382905E+03  0.14209050118E+03  0.79138121458E+02 0.  0.
          5    1    3    3  502    0  0.25167451160E+01 -0.43821972833E+02 -0.31831179635E+02  0.54424381539E+02  0.47000000000E+01 0. -1.
        -11    1    4    4    0    0  0.16195520172E+01 -0.27001569157E+02  0.23663626180E+02  0.35939878821E+02  0.00000000000E+00 0.  1.
         12    1    4    4    0    0  0.78429473882E+02  0.40049905198E+02  0.65357868127E+02  0.10966689658E+03  0.00000000000E+00 0. -1.
         -5    1    5    5    0  501 -0.54661604306E+02  0.80163138348E+02  0.41833421877E+02  0.10576457309E+03  0.47000000000E+01 0.  1.
         13    1    6    6    0    0 -0.19182757805E+02 -0.45029618033E+02  0.12407161555E+02  0.50493389221E+02  0.00000000000E+00 0. -1.
        -14    1    6    6    0    0 -0.87214089047E+01 -0.43598835233E+01  0.91076667498E+02  0.91597111964E+02  0.00000000000E+00 0.  1.
</event>
<event>
12    1  0.2614920E-002  0.2233377E+03  0.7818608E-02  0.1131419E+00
          2   -1    0    0  502    0  0.00000000000E+00  0.00000000000E+00  0.67509995654E+03  0.67509995654E+03  0.00000000000E+00 0. -1.
         -2   -1    0    0    0  501 -0.00000000000E+00 -0.00000000000E+00 -0.74248899843E+02  0.74248899843E+02  0.00000000000E+00 0.  1.
          6    2    1    2  502    0  0.13988094443E+03  0.32640655241E+02  0.27534293103E+03  0.35505773512E+03  0.17210512662E+03 0.  0.
         24    2    3    3    0    0  0.15830739403E+03  0.30119800592E+02  0.28180783658E+03  0.33481486584E+03  0.81956721730E+02 0.  0.
         -6    2    1    2    0  501 -0.13988094443E+03 -0.32640655241E+02  0.32550812567E+03  0.39429112126E+03  0.16993486235E+03 0.  0.
        -24    2    5    5    0    0 -0.68650899502E+02 -0.39381775481E+02  0.29649305008E+03  0.31694044826E+03  0.79241710949E+02 0.  0.
          5    1    3    3  502    0 -0.18426449597E+02  0.25208546489E+01 -0.64649055504E+01  0.20242869280E+02  0.47000000000E+01 0. -1.
        -13    1    4    4    0    0  0.11397758973E+03  0.37306333784E+02  0.13164997931E+03  0.17808529011E+03  0.00000000000E+00 0.  1.
         14    1    4    4    0    0  0.44329804299E+02 -0.71865331917E+01  0.15015785727E+03  0.15672957573E+03  0.00000000000E+00 0. -1.
         -5    1    5    5    0  501 -0.71230044930E+02  0.67411202396E+01  0.29015075585E+02  0.77350673003E+02  0.47000000000E+01 0.  1.
         13    1    6    6    0    0 -0.55709588500E+02 -0.72422714124E+01  0.26234874917E+03  0.26829624473E+03  0.00000000000E+00 0. -1.
        -14    1    6    6    0    0 -0.12941311003E+02 -0.32139504068E+02  0.34144300913E+02  0.48644203530E+02  0.00000000000E+00 0.  1.
</event>
<event>
12    1  0.2614920E-002  0.1926487E+03  0.7818608E-02  0.1156094E+00
          2   -1    0    0  502    0  0.00000000000E+00  0.00000000000E+00  0.10089919646E+03  0.10089919646E+03  0.00000000000E+00 0. -1.
         -2   -1    0    0    0  501 -0.00000000000E+00 -0.00000000000E+00 -0.50548833070E+03  0.50548833070E+03  0.00000000000E+00 0.  1.
          6    2    1    2  502    0 -0.59490748553E+01  0.87040868079E+02 -0.43589825352E+02  0.19690093548E+03  0.17105087346E+03 0.  0.
         24    2    3    3    0    0  0.35853181328E+02  0.28301046074E+02 -0.48313340523E+02  0.12449791823E+03  0.10525755532E+03 0.  0.
         -6    2    1    2    0  501  0.59490748553E+01 -0.87040868079E+02 -0.36099930888E+03  0.40948659168E+03  0.17247395034E+03 0.  0.
        -24    2    5    5    0    0  0.52386690126E+02 -0.15685829702E+02 -0.25819691526E+03  0.27592605953E+03  0.80493060093E+02 0.  0.
          5    1    3    3  502    0 -0.41802256183E+02  0.58739822005E+02  0.47235151716E+01  0.72403017249E+02  0.47000000000E+01 0. -1.
        -13    1    4    4    0    0  0.33063156019E+02  0.50268595781E+02  0.11018974206E+02  0.61167980188E+02  0.00000000000E+00 0.  1.
         14    1    4    4    0    0  0.27900253085E+01 -0.21967549707E+02 -0.59332314729E+02  0.63329938043E+02  0.00000000000E+00 0. -1.
         -5    1    5    5    0  501 -0.46437615270E+02 -0.71355038377E+02 -0.10280239363E+03  0.13356053215E+03  0.47000000000E+01 0.  1.
         11    1    6    6    0    0  0.20668563073E+02  0.27074579254E+02 -0.16602286741E+03  0.16948101617E+03  0.00000000000E+00 0. -1.
        -12    1    6    6    0    0  0.31718127053E+02 -0.42760408956E+02 -0.92174047849E+02  0.10644504335E+03  0.00000000000E+00 0.  1.
</event>
<event>
12    1  0.2614920E-002  0.2163664E+03  0.7818608E-02  0.1136621E+00
         -3   -1    0    0    0  501 -0.00000000000E+00  0.00000000000E+00  0.26310616121E+03  0.26310616121E+03  0.00000000000E+00 0. -1.
          3   -1    0    0  502    0  0.00000000000E+00 -0.00000000000E+00 -0.20973679953E+03  0.20973679953E+03  0.00000000000E+00 0.  1.
          6    2    1    2  502    0  0.33636758521E+02  0.12485672638E+03 -0.65531350695E+02  0.22458822955E+03  0.17153682195E+03 0.  0.
         24    2    3    3    0    0 -0.26131542068E+02  0.13538827920E+02 -0.13424133272E+02  0.87835985038E+02  0.81662693815E+02 0.  0.
         -6    2    1    2    0  501 -0.33636758521E+02 -0.12485672638E+03  0.11890071237E+03  0.24825473119E+03  0.17542063308E+03 0.  0.
        -24    2    5    5    0    0 -0.62371077841E+02 -0.12353621196E+03  0.13979428773E+03  0.21239338212E+03  0.80107171151E+02 0.  0.
          5    1    3    3  502    0  0.59768300589E+02  0.11131789846E+03 -0.52107217423E+02  0.13675224452E+03  0.47000000000E+01 0. -1.
        -11    1    4    4    0    0 -0.24794629333E+02  0.42219287999E+02 -0.27179198407E+02  0.55999560257E+02  0.00000000000E+00 0.  1.
         12    1    4    4    0    0 -0.13369127357E+01 -0.28680460078E+02  0.13755065135E+02  0.31836424781E+02  0.00000000000E+00 0. -1.
         -5    1    5    5    0  501  0.28734319320E+02 -0.13205144199E+01 -0.20893575366E+02  0.35861349064E+02  0.47000000000E+01 0.  1.
         11    1    6    6    0    0  0.63077791584E+01 -0.56775587212E+02  0.83888383352E+02  0.10149145896E+03  0.00000000000E+00 0. -1.
        -12    1    6    6    0    0 -0.68678856999E+02 -0.66760624748E+02  0.55905904382E+02  0.11090192316E+03  0.00000000000E+00 0.  1.
</event>
<event>
12    1  0.2614920E-002  0.1990947E+03  0.7818608E-02  0.1150505E+00
          1   -1    0    0  502    0  0.00000000000E+00  0.00000000000E+00  0.10853846222E+04  0.10853846222E+04  0.00000000000E+00 0.  1.
         -1   -1    0    0    0  501 -0.00000000000E+00 -0.00000000000E+00 -0.38961407567E+02  0.38961407567E+02  0.00000000000E+00 0. -1.
          6    2    1    2  502    0 -0.36086942718E+02  0.91214871278E+02  0.38431402778E+03  0.43316064944E+03  0.17409323968E+03 0.  0.
         24    2    3    3    0    0  0.24045736685E+01  0.10443531886E+03  0.16918021239E+03  0.21416059101E+03  0.79563161580E+02 0.  0.
         -6    2    1    2    0  501  0.36086942718E+02 -0.91214871278E+02  0.66210918690E+03  0.69118538037E+03  0.17241297654E+03 0.  0.
        -24    2    5    5    0    0  0.65117988234E+02 -0.11837899628E+03  0.48660017272E+03  0.51116817189E+03  0.79115312714E+02 0.  0.
          5    1    3    3  502    0 -0.38491516386E+02 -0.13220447579E+02  0.21513381539E+03  0.21900005843E+03  0.47000000000E+01 0. -1.
        -13    1    4    4    0    0 -0.17304397802E+02  0.35444537292E+02  0.12217409943E+03  0.12838328543E+03  0.00000000000E+00 0.  1.
         14    1    4    4    0    0  0.19708971471E+02  0.68990781564E+02  0.47006112959E+02  0.85777305581E+02  0.00000000000E+00 0. -1.
         -5    1    5    5    0  501 -0.29031045516E+02  0.27164125006E+02  0.17550901417E+03  0.18001720848E+03  0.47000000000E+01 0.  1.
         11    1    6    6    0    0 -0.55488182093E+01  0.82850684910E+01  0.53635867429E+02  0.54554908288E+02  0.00000000000E+00 0. -1.
        -12    1    6    6    0    0  0.70666806443E+02 -0.12666406478E+03  0.43296430529E+03  0.45661326360E+03  0.00000000000E+00 0.  1.
</event>
<event>
12    1  0.2614920E-002  0.1827767E+03  0.7818608E-02  0.1165143E+00
         -1   -1    0    0    0  501 -0.00000000000E+00  0.00000000000E+00  0.35830448513E+03  0.35830448513E+03  0.00000000000E+00 0.  1.
          1   -1    0    0  502    0  0.00000000000E+00 -0.00000000000E+00 -0.18398249977E+03  0.18398249977E+03  0.00000000000E+00 0. -1.
          6    2    1    2  502    0  0.15623166885E-01  0.89842517919E+01  0.27962867072E+03  0.34002983392E+03  0.19325469578E+03 0.  0.
         24    2    3    3    0    0  0.72912020087E+02  0.14211398659E+02  0.21996394630E+03  0.24556726415E+03  0.80006356135E+02 0.  0.
         -6    2    1    2    0  501 -0.15623166885E-01 -0.89842517919E+01 -0.10530668536E+03  0.20225715098E+03  0.17244633982E+03 0.  0.
        -24    2    5    5    0    0 -0.91933356542E+01  0.57450081491E+02 -0.89222543931E+02  0.13313016167E+03  0.79862058064E+02 0.  0.
          5    1    3    3  502    0 -0.72896396920E+02 -0.52271468666E+01  0.59664724421E+02  0.94462569775E+02  0.47000000000E+01 0. -1.
        -13    1    4    4    0    0  0.11274273323E+02  0.40534110250E+02  0.80322060772E+02  0.90673903518E+02  0.00000000000E+00 0.  1.
         14    1    4    4    0    0  0.61637746765E+02 -0.26322711591E+02  0.13964188553E+03  0.15489336063E+03  0.00000000000E+00 0. -1.
         -5    1    5    5    0  501  0.91777124873E+01 -0.66434333283E+02 -0.16084141432E+02  0.69126989308E+02  0.47000000000E+01 0.  1.
         11    1    6    6    0    0  0.88003037035E+01  0.31996757386E+01 -0.73163624781E+02  0.73760417984E+02  0.00000000000E+00 0. -1.
        -12    1    6    6    0    0 -0.17993639358E+02  0.54250405752E+02 -0.16058919150E+02  0.59369743691E+02  0.00000000000E+00 0.  1.
</event>
<event>
12    1  0.2614920E-002  0.2025319E+03  0.7818608E-02  0.1147620E+00
         -1   -1    0    0    0  501 -0.00000000000E+00  0.00000000000E+00  0.51391396405E+02  0.51391396405E+02  0.00000000000E+00 0. -1.
          1   -1    0    0  502    0  0.00000000000E+00 -0.00000000000E+00 -0.81062913572E+03  0.81062913572E+03  0.00000000000E+00 0.  1.
          6    2    1    2  502    0  0.10482973675E+03 -0.27460035484E+02 -0.43308715415E+03  0.47811289325E+03  0.17112605983E+03 0.  0.
         24    2    3    3    0    0  0.11173834992E+03  0.10781005972E+02 -0.40844987614E+03  0.43186149700E+03  0.84091392790E+02 0.  0.
         -6    2    1    2    0  501 -0.10482973675E+03  0.27460035484E+02 -0.32615058516E+03  0.38390763887E+03  0.17107759562E+03 0.  0.
        -24    2    5    5    0    0 -0.84851785341E+02 -0.45943540718E+02 -0.17786058010E+03  0.21717666051E+03  0.78871297112E+02 0.  0.
          5    1    3    3  502    0 -0.69086131705E+01 -0.38241041456E+02 -0.24637278004E+02  0.46251396250E+02  0.47000000000E+01 0. -1.
        -13    1    4    4    0    0  0.26693606944E+02  0.27246881519E+02 -0.48864332727E+02  0.61989226621E+02  0.00000000000E+00 0.  1.
         14    1    4    4    0    0  0.85044742973E+02 -0.16465875546E+02 -0.35958554342E+03  0.36987227038E+03  0.00000000000E+00 0. -1.
         -5    1    5    5    0  501 -0.19977951406E+02  0.73403576202E+02 -0.14829000507E+03  0.16673097836E+03  0.47000000000E+01 0.  1.
         11    1    6    6    0    0 -0.82561822548E+02 -0.40515219692E+01 -0.11674463082E+03  0.14304607020E+03  0.00000000000E+00 0. -1.
        -12    1    6    6    0    0 -0.22899627936E+01 -0.41892018748E+02 -0.61115949271E+02  0.74130590310E+02  0.00000000000E+00 0.  1.
</event>
<event>
12    1  0.2614920E-002  0.1845448E+03  0.7818608E-02  0.1163476E+00
         -1   -1    0    0    0  501 -0.00000000000E+00  0.00000000000E+00  0.35001752890E+02  0.35001752890E+02  0.00000000000E+00 0.  1.
          1   -1    0    0  502    0  0.00000000000E+00 -0.00000000000E+00 -0.10545914036E+04  0.10545914036E+04  0.00000000000E+00 0. -1.
          6    2    1    2  502    0  0.64478504034E+02 -0.19900201650E+02 -0.66241975657E+03  0.68776150759E+03  0.17222793594E+03 0.  0.
         24    2    3    3    0    0  0.22537460968E+02  0.20708604187E+01 -0.13646144978E+03  0.15965544898E+03  0.79723958144E+02 0.  0.
         -6    2    1    2    0  501 -0.64478504034E+02  0.19900201650E+02 -0.35716989409E+03  0.40183164885E+03  0.17130337202E+03 0.  0.
        -24    2    5    5    0    0 -0.86972356753E+02 -0.65779975901E+01 -0.34321768442E+03  0.36409807494E+03  0.84626050285E+02 0.  0.
          5    1    3    3  502    0  0.41941043066E+02 -0.21971062069E+02 -0.52595830679E+03  0.52810605861E+03  0.47000000000E+01 0. -1.
        -13    1    4    4    0    0 -0.98648475261E+01  0.22787565817E+02 -0.11049623454E+03  0.11325195902E+03  0.00000000000E+00 0.  1.
         14    1    4    4    0    0  0.32402308494E+02 -0.20716705398E+02 -0.25965215238E+02  0.46403489962E+02  0.00000000000E+00 0. -1.
         -5    1    5    5    0  501  0.22493852719E+02  0.26478199240E+02 -0.13952209668E+02  0.37733573907E+02  0.47000000000E+01 0.  1.
         13    1    6    6    0    0  0.11519114252E+02 -0.17172700508E+02 -0.86347054380E+02  0.88788543383E+02  0.00000000000E+00 0. -1.
        -14    1    6    6    0    0 -0.98491471005E+02  0.10594702918E+02 -0.25687063004E+03  0.27530953156E+03  0.00000000000E+00 0.  1.
</event>
<event>
12    1  0.2614920E-002  0.2066740E+03  0.7818608E-02  0.1144227E+00
         -1   -1    0    0    0  501 -0.00000000000E+00  0.00000000000E+00  0.25370638522E+02  0.25370638522E+02  0.00000000000E+00 0.  1.
          1   -1    0    0  502    0  0.00000000000E+00 -0.00000000000E+00 -0.16860978817E+04  0.16860978817E+04  0.00000000000E+00 0. -1.
          6    2    1    2  502    0  0.78489217887E+02 -0.80170333695E+02 -0.79826562331E+03  0.82463596163E+03  0.17380628332E+03 0.  0.
         24    2    3    3    0    0  0.97825578936E+01  0.22514310311E+02 -0.31749220377E+03  0.32821888680E+03  0.79521981813E+02 0.  0.
         -6    2    1    2    0  501 -0.78489217887E+02  0.80170333695E+02 -0.86246161988E+03  0.88683255860E+03  0.17333234409E+03 0.  0.
        -24    2    5    5    0    0 -0.18150784829E+02  0.10096668694E+03 -0.66505725785E+03  0.67931439804E+03  0.92968663081E+02 0.  0.
          5    1    3    3  502    0  0.68706659994E+02 -0.10268464401E+03 -0.48077341955E+03  0.49641707483E+03  0.47000000000E+01 0. -1.
        -11    1    4    4    0    0  0.23909997701E+02  0.48225735924E+02 -0.19947249158E+03  0.20660756156E+03  0.00000000000E+00 0.  1.
         12    1    4    4    0    0 -0.14127439807E+02 -0.25711425613E+02 -0.11801971219E+03  0.12161132524E+03  0.00000000000E+00 0. -1.
         -5    1    5    5    0  501 -0.60338433058E+02 -0.20796353247E+02 -0.19740436203E+03  0.20751816056E+03  0.47000000000E+01 0.  1.
         13    1    6    6    0    0 -0.41543163257E+02  0.26745337179E+02 -0.40088824393E+03  0.40392144236E+03  0.00000000000E+00 0. -1.
        -14    1    6    6    0    0  0.23392378428E+02  0.74221349763E+02 -0.26416901391E+03  0.27539295569E+03  0.00000000000E+00 0.  1.
</event>
<event>
12    1  0.2614920E-002  0.1736304E+03  0.7818608E-02  0.1174114E+00
          1   -1    0    0  502    0  0.00000000000E+00  0.00000000000E+00  0.14469939882E+03  0.14469939882E+03  0.00000000000E+00 0. -1.
         -1   -1    0    0    0  501 -0.00000000000E+00 -0.00000000000E+00 -0.27135555845E+03  0.27135555845E+03  0.00000000000E+00 0.  1.
          6    2    1    2  502    0  0.23854205332E+02 -0.10646914960E+02  0.37084290481E+02  0.17694803914E+03  0.17103503748E+03 0.  0.
         24    2    3    3    0    0 -0.49174247280E+02  0.53197531650E+01  0.13579539796E+02  0.98445474300E+02  0.84027978315E+02 0.  0.
         -6    2    1    2    0  501 -0.23854205332E+02  0.10646914960E+02 -0.16374045011E+03  0.23910691813E+03  0.17227537081E+03 0.  0.
        -24    2    5    5    0    0  0.36069330619E+02  0.40154716201E+02 -0.13150966949E+03  0.16479370454E+03  0.83359306875E+02 0.  0.
          5    1    3    3  502    0  0.73028452613E+02 -0.15966668125E+02  0.23504750685E+02  0.78502564842E+02  0.47000000000E+01 0. -1.
        -13    1    4    4    0    0 -0.44568655564E+02  0.37409817991E+02 -0.90802284962E+01  0.58892360204E+02  0.00000000000E+00 0.  1.
         14    1    4    4    0    0 -0.46055917162E+01 -0.32090064826E+02  0.22659768292E+02  0.39553114095E+02  0.00000000000E+00 0. -1.
         -5    1    5    5    0  501 -0.59923535951E+02 -0.29507801241E+02 -0.32230780617E+02  0.74313213591E+02  0.47000000000E+01 0.  1.
         13    1    6    6    0    0 -0.81445121222E+01  0.11621845001E+02  0.75755927659E+01  0.16086950137E+02  0.00000000000E+00 0. -1.
        -14    1    6    6    0    0  0.44213842741E+02  0.28532871200E+02 -0.13908526226E+03  0.14870675441E+03  0.00000000000E+00 0.  1.
</event>
<event>
12    1  0.2614920E-002  0.1722307E+03  0.7818608E-02  0.1175541E+00
         -1   -1    0    0    0  501 -0.00000000000E+00  0.00000000000E+00  0.13062252167E+03  0.13062252167E+03  0.00000000000E+00 0.  1.
          1   -1    0    0  502    0  0.00000000000E+00 -0.00000000000E+00 -0.31435757147E+03  0.31435757147E+03  0.00000000000E+00 0. -1.
          6    2    1    2  502    0 -0.38360081290E+02 -0.10858020188E+02  0.26975075822E+02  0.16989504040E+03  0.16293335324E+03 0.  0.
         24    2    3    3    0    0 -0.20948980213E+02 -0.10321387106E+02  0.79320435481E+02  0.11452753103E+03  0.79242873975E+02 0.  0.
         -6    2    1    2    0  501  0.38360081290E+02  0.10858020188E+02 -0.21071012562E+03  0.27508505273E+03  0.17228939827E+03 0.  0.
        -24    2    5    5    0    0  0.40350971432E+02  0.20745023602E+02 -0.23279991567E+03  0.25035116294E+03  0.80133308611E+02 0.  0.
          5    1    3    3  502    0 -0.17411101077E+02 -0.53663308218E+00 -0.52345359659E+02  0.55367509368E+02  0.47000000000E+01 0. -1.
        -11    1    4    4    0    0 -0.36013973545E+02 -0.36832870553E+02  0.56372705141E+02  0.76364576399E+02  0.00000000000E+00 0.  1.
         12    1    4    4    0    0  0.15064993332E+02  0.26511483446E+02  0.22947730339E+02  0.38162954633E+02  0.00000000000E+00 0. -1.
         -5    1    5    5    0  501 -0.19908901424E+01 -0.98870034134E+01  0.22089790046E+02  0.24733889794E+02  0.47000000000E+01 0.  1.
         11    1    6    6    0    0  0.29204245954E+02  0.48759931242E+02 -0.18757531565E+03  0.19599723956E+03  0.00000000000E+00 0. -1.
        -12    1    6    6    0    0  0.11146725478E+02 -0.28014907640E+02 -0.45224600022E+02  0.54353923374E+02  0.00000000000E+00 0.  1.
</event>
<event>
12    1  0.2614920E-002  0.1727047E+03  0.7818608E-02  0.1175056E+00
          4   -1    0    0  502    0  0.00000000000E+00  0.00000000000E+00  0.53915454512E+02  0.53915454512E+02  0.00000000000E+00 0.  1.
         -4   -1    0    0    0  501 -0.00000000000E+00 -0.00000000000E+00 -0.64406666895E+03  0.64406666895E+03  0.00000000000E+00 0. -1.
          6    2    1    2  502    0 -0.23870181029E+02 -0.96596588778E+01 -0.42731077851E+03  0.46119259356E+03  0.17158383483E+03 0.  0.
         24    2    3    3    0    0 -0.56370040685E+02  0.60089376952E+01 -0.12214572823E+03  0.15386614871E+03  0.74441413032E+02 0.  0.
         -6    2    1    2    0  501  0.23870181029E+02  0.96596588778E+01 -0.16284043593E+03  0.23678952990E+03  0.16996817156E+03 0.  0.
        -24    2    5    5    0    0 -0.44921852090E+02 -0.34642469112E+01 -0.12885364122E+03  0.15880380724E+03  0.81150567080E+02 0.  0.
          5    1    3    3  502    0  0.32499859656E+02 -0.15668596573E+02 -0.30516505027E+03  0.30732644485E+03  0.47000000000E+01 0. -1.
        -13    1    4    4    0    0 -0.27041745326E+02  0.36154306545E+02 -0.90822274273E+02  0.10142522061E+03  0.00000000000E+00 0.  1.
         14    1    4    4    0    0 -0.29328295359E+02 -0.30145368850E+02 -0.31323453959E+02  0.52440928097E+02  0.00000000000E+00 0. -1.
         -5    1    5    5    0  501  0.68792033119E+02  0.13123905789E+02 -0.33986794713E+02  0.77985722660E+02  0.47000000000E+01 0.  1.
         11    1    6    6    0    0  0.11219950210E+02  0.84592524368E+01 -0.86092202004E+02  0.87231378989E+02  0.00000000000E+00 0. -1.
        -12    1    6    6    0    0 -0.56141802300E+02 -0.11923499348E+02 -0.42761439212E+02  0.71572428250E+02  0.00000000000E+00 0.  1.
</event>
<event>
12    1  0.2614920E-002  0.2228241E+03  0.7818608E-02  0.1131795E+00
          1   -1    0    0  502    0  0.00000000000E+00  0.00000000000E+00  0.62131585106E+03  0.62131585106E+03  0.00000000000E+00 0. -1.
         -1   -1    0    0    0  501 -0.00000000000E+00 -0.00000000000E+00 -0.19069550337E+03  0.19069550337E+03  0.00000000000E+00 0.  1.
          6    2    1    2  502    0 -0.19768645122E+02 -0.13836645367E+03  0.52501777748E+03  0.57059010012E+03  0.17433680294E+03 0.  0.
         24    2    3    3    0    0 -0.54879292640E+02 -0.12783099484E+03  0.28028673504E+03  0.32308428889E+03  0.80438199161E+02 0.  0.
         -6    2    1    2    0  501  0.19768645122E+02  0.13836645367E+03 -0.94397429791E+02  0.24142125430E+03  0.17273468803E+03 0.  0.
        -24    2    5    5    0    0  0.18881930792E+02  0.16237366789E+03 -0.46543033625E+02  0.18766936290E+03  0.79572611227E+02 0.  0.
          5    1    3    3  502    0  0.35110647518E+02 -0.10535458827E+02  0.24473104244E+03  0.24750581124E+03  0.47000000000E+01 0. -1.
        -11    1    4    4    0    0  0.18204682473E+02 -0.71529576348E+01  0.31505363901E+02  0.37083193247E+02  0.00000000000E+00 0.  1.
         12    1    4    4    0    0 -0.73083975113E+02 -0.12067803721E+03  0.24878137114E+03  0.28600109564E+03  0.00000000000E+00 0. -1.
         -5    1    5    5    0  501  0.88671433014E+00 -0.24007214224E+02 -0.47854396166E+02  0.53751891404E+02  0.47000000000E+01 0.  1.
         11    1    6    6    0    0 -0.10783757309E+02  0.11937045722E+03 -0.33831620810E+01  0.11990430044E+03  0.00000000000E+00 0. -1.
        -12    1    6    6    0    0  0.29665688101E+02  0.43003210674E+02 -0.43159871544E+02  0.67765062462E+02  0.00000000000E+00 0.  1.
</event>
<event>
12    1  0.2614920E-002  0.1741965E+03  0.7818608E-02  0.1173541E+00
          1   -1    0    0  502    0  0.00000000000E+00  0.00000000000E+00  0.60009349870E+03  0.60009349870E+03  0.00000000000E+00 0.  1.
         -1   -1    0    0    0  501 -0.00000000000E+00 -0.00000000000E+00 -0.53852831717E+02  0.53852831717E+02  0.00000000000E+00 0. -1.
          6    2    1    2  502    0 -0.25612644126E+02 -0.74941277529E+01  0.19219140203E+03  0.25931826030E+03  0.17203562311E+03 0.  0.
         24    2    3    3    0    0 -0.68438314026E+02 -0.42184954213E+02  0.15940114626E+03  0.19501598727E+03  0.78480167392E+02 0.  0.
         -6    2    1    2    0  501  0.25612644126E+02  0.74941277529E+01  0.35404926495E+03  0.39462807012E+03  0.17224477415E+03 0.  0.
        -24    2    5    5    0    0  0.80649167010E+02 -0.72852225255E+01  0.21422127975E+03  0.24356052400E+03  0.82907234577E+02 0.  0.
          5    1    3    3  502    0  0.42825669900E+02  0.34690826461E+02  0.32790255774E+02  0.64302273028E+02  0.47000000000E+01 0. -1.
        -11    1    4    4    0    0 -0.52754262894E+02  0.18388328250E+01  0.12868673236E+03  0.13909230260E+03  0.00000000000E+00 0.  1.
         12    1    4    4    0    0 -0.15684051132E+02 -0.44023787038E+02  0.30714413901E+02  0.55923684664E+02  0.00000000000E+00 0. -1.
         -5    1    5    5    0  501 -0.55036522884E+02  0.14779350278E+02  0.13982798520E+03  0.15106754612E+03  0.47000000000E+01 0.  1.
         11    1    6    6    0    0 -0.17367116330E+01 -0.41010983311E+01 -0.65362735355E+01  0.79093644845E+01  0.00000000000E+00 0. -1.
        -12    1    6    6    0    0  0.82385878643E+02 -0.31841241945E+01  0.22075755329E+03  0.23565115952E+03  0.00000000000E+00 0.  1.
</event>
<event>
12    1  0.2614920E-002  0.2110475E+03  0.7818608E-02  0.1140739E+00
          1   -1    0    0  502    0  0.00000000000E+00  0.00000000000E+00  0.76064809187E+02  0.76064809187E+02  0.00000000000E+00 0. -1.
         -1   -1    0    0    0  501 -0.00000000000E+00 -0.00000000000E+00 -0.69135205611E+03  0.69135205611E+03  0.00000000000E+00 0.  1.
          6    2    1    2  502    0 -0.11991689615E+03  0.32841816205E+02 -0.45862995788E+03  0.50516382647E+03  0.17143630431E+03 0.  0.
         24    2    3    3    0    0 -0.13396345720E+03 -0.85335289657E+00 -0.25658658444E+03  0.29979517002E+03  0.78061082371E+02 0.  0.
         -6    2    1    2    0  501  0.11991689615E+03 -0.32841816205E+02 -0.15665728904E+03  0.26225303882E+03  0.16963638551E+03 0.  0.
        -24    2    5    5    0    0  0.23283800782E+02 -0.31361313565E+02 -0.13191664751E+03  0.16238143950E+03  0.86255797699E+02 0.  0.
          5    1    3    3  502    0  0.14046561050E+02  0.33695169101E+02 -0.20204337345E+03  0.20536865645E+03  0.47000000000E+01 0. -1.
        -13    1    4    4    0    0 -0.89727899321E+02  0.40108074209E+01 -0.23238372567E+03  0.24913726828E+03  0.00000000000E+00 0.  1.
         14    1    4    4    0    0 -0.44235557874E+02 -0.48641603175E+01 -0.24202858771E+02  0.50657901740E+02  0.00000000000E+00 0. -1.
         -5    1    5    5    0  501  0.96633095364E+02 -0.14805026396E+01 -0.24740641525E+02  0.99871599320E+02  0.47000000000E+01 0.  1.
         13    1    6    6    0    0 -0.53483062883E+01 -0.50805076220E+02 -0.42339289310E+02  0.66350399917E+02  0.00000000000E+00 0. -1.
        -14    1    6    6    0    0  0.28632107070E+02  0.19443762655E+02 -0.89577358201E+02  0.96031039585E+02  0.00000000000E+00 0.  1.
</event>
<event>
12    1  0.2614920E-002  0.1899740E+03  0.7818608E-02  0.1158485E+00
          2   -1    0    0  502    0  0.00000000000E+00  0.00000000000E+00  0.68787441108E+03  0.68787441108E+03  0.00000000000E+00 0.  1.
         -2   -1    0    0    0  501 -0.00000000000E+00 -0.00000000000E+00 -0.11527166854E+03  0.11527166854E+03  0.00000000000E+00 0. -1.
          6    2    1    2  502    0  0.52218641293E+02 -0.61119780412E+02 -0.10024064432E+02  0.19037058741E+03  0.17227322666E+03 0.  0.
         24    2    3    3    0    0 -0.16439715279E+02 -0.73749440301E+02  0.23486142434E+02  0.11279158122E+03  0.80380953746E+02 0.  0.
         -6    2    1    2    0  501 -0.52218641293E+02  0.61119780412E+02  0.58262680697E+03  0.61277549221E+03  0.17198079426E+03 0.  0.
        -24    2    5    5    0    0 -0.10738544181E+01 -0.39999124561E+00  0.44611754349E+03  0.45448038633E+03  0.86776988847E+02 0.  0.
          5    1    3    3  502    0  0.68658356572E+02  0.12629659890E+02 -0.33510206866E+02  0.77579006182E+02  0.47000000000E+01 0. -1.
        -13    1    4    4    0    0 -0.26789722242E+02 -0.46408422390E+01 -0.16966213009E+02  0.32048073551E+02  0.00000000000E+00 0.  1.
         14    1    4    4    0    0  0.10350006963E+02 -0.69108598062E+02  0.40452355443E+02  0.80743507672E+02  0.00000000000E+00 0. -1.
         -5    1    5    5    0  501 -0.51144786875E+02  0.61519771657E+02  0.13650926349E+03  0.15829510588E+03  0.47000000000E+01 0.  1.
         11    1    6    6    0    0  0.15704131015E+02  0.34850153935E+02  0.32466946501E+03  0.32691193687E+03  0.00000000000E+00 0. -1.
        -12    1    6    6    0    0 -0.16777985434E+02 -0.35250145181E+02  0.12144807848E+03  0.12756844946E+03  0.00000000000E+00 0.  1.
</event>
<event>
12    1  0.2614920E-002  0.2168354E+03  0.7818608E-02  0.1136265E+00
          2   -1    0    0  502    0  0.00000000000E+00  0.00000000000E+00  0.43326586585E+03  0.43326586585E+03  0.00000000000E+00 0. -1.
         -2   -1    0    0    0  501 -0.00000000000E+00 -0.00000000000E+00 -0.12127465520E+03  0.12127465520E+03  0.00000000000E+00 0.  1.
          6    2    1    2  502    0  0.12018290352E+03  0.59280208188E+02  0.64953705996E+02  0.22465477443E+03  0.16820437084E+03 0.  0.
         24    2    3    3    0    0  0.12100457745E+03  0.74299979999E+02  0.40815916379E+01  0.16177573977E+03  0.77408887072E+02 0.  0.
         -6    2    1    2    0  501 -0.12018290352E+03 -0.59280208188E+02  0.24703750465E+03  0.32988574661E+03  0.17273969936E+03 0.  0.
        -24    2    5    5    0    0 -0.14229558573E+03 -0.78913212898E+02  0.23473783098E+03  0.29751604534E+03  0.83298373642E+02 0.  0.
          5    1    3    3  502    0 -0.82167392738E+00 -0.15019771811E+02  0.60872114358E+02  0.62879034660E+02  0.47000000000E+01 0. -1.
        -13    1    4    4    0    0  0.13695162610E+01  0.32433719882E+02 -0.10669802590E+02  0.34171134712E+02  0.00000000000E+00 0.  1.
         14    1    4    4    0    0  0.11963506118E+03  0.41866260116E+02  0.14751394227E+02  0.12760460506E+03  0.00000000000E+00 0. -1.
         -5    1    5    5    0  501  0.22112682210E+02  0.19633004710E+02  0.12299673670E+02  0.32369701279E+02  0.47000000000E+01 0.  1.
         11    1    6    6    0    0 -0.75366035443E+02 -0.73301156849E+02  0.18894832305E+03  0.21622804554E+03  0.00000000000E+00 0. -1.
        -12    1    6    6    0    0 -0.66929550285E+02 -0.56120560489E+01  0.45789507926E+02  0.81287999794E+02  0.00000000000E+00 0.  1.
</event>
<event>
12    1  0.2614920E-002  0.2122715E+03  0.7818608E-02  0.1139780E+00
         -2   -1    0    0    0  501 -0.00000000000E+00  0.00000000000E+00  0.30908461399E+02  0.30908461399E+02  0.00000000000E+00 0.  1.
          2   -1    0    0  502    0  0.00000000000E+00 -0.00000000000E+00 -0.14845047399E+04  0.14845047399E+04  0.00000000000E+00 0. -1.
          6    2    1    2  502    0 -0.33696131372E+02  0.12130369015E+03 -0.83194796146E+03  0.85887119763E+03  0.17225652099E+03 0.  0.
         24    2    3    3    0    0 -0.39141044781E+02  0.11218483662E+03 -0.36601303774E+03  0.39279154379E+03  0.78754010248E+02 0.  0.
         -6    2    1    2    0  501  0.33696131372E+02 -0.12130369015E+03 -0.62164831701E+03  0.65654200364E+03  0.16956048474E+03 0.  0.
        -24    2    5    5    0    0 -0.62624953009E+01 -0.53956320823E+02 -0.51567036284E+03  0.52468686808E+03  0.80186551414E+02 0.  0.
          5    1    3    3  502    0  0.54449134095E+01  0.91188535341E+01 -0.46593492372E+03  0.46607965383E+03  0.47000000000E+01 0. -1.
        -13    1    4    4    0    0 -0.22413372654E+02  0.10749644474E+02 -0.20229838023E+02  0.32049344400E+02  0.00000000000E+00 0.  1.
         14    1    4    4    0    0 -0.16727672127E+02  0.10143519215E+03 -0.34578319971E+03  0.36074219939E+03  0.00000000000E+00 0. -1.
         -5    1    5    5    0  501  0.39958626673E+02 -0.67347369331E+02 -0.10597795417E+03  0.13185513556E+03  0.47000000000E+01 0.  1.
         13    1    6    6    0    0  0.21398236643E+01  0.16117141451E+02 -0.31988747335E+02  0.35883436986E+02  0.00000000000E+00 0. -1.
        -14    1    6    6    0    0 -0.84023189652E+01 -0.70073462274E+02 -0.48368161550E+03  0.48880343110E+03  0.00000000000E+00 0.  1.
</event>
<event>
12    1  0.2614920E-002  0.1925305E+03  0.7818608E-02  0.1156199E+00
          2   -1    0    0  502    0  0.00000000000E+00  0.00000000000E+00  0.72425825698E+03  0.72425825698E+03  0.00000000000E+00 0.  1.
         -2   -1    0    0    0  501 -0.00000000000E+00 -0.00000000000E+00 -0.61180253885E+02  0.61180253885E+02  0.00000000000E+00 0. -1.
          6    2    1    2  502    0 -0.18216478469E+02  0.84002825820E+02  0.17247313882E+03  0.25833284330E+03  0.17204813129E+03 0.  0.
         24    2    3    3    0    0  0.38429589589E+02  0.79588096025E+01  0.49603221200E+02  0.10305703680E+03  0.81363980205E+02 0.  0.
         -6    2    1    2    0  501  0.18216478469E+02 -0.84002825820E+02  0.49060486427E+03  0.52710566756E+03  0.17250778849E+03 0.  0.
        -24    2    5    5    0    0  0.96705198951E+01 -0.11948042009E+03  0.44873687562E+03  0.47136778478E+03  0.80335018796E+02 0.  0.
          5    1    3    3  502    0 -0.56646068058E+02  0.76044016217E+02  0.12286991762E+03  0.15527580650E+03  0.47000000000E+01 0. -1.
        -11    1    4    4    0    0  0.40624743085E+02 -0.31099208396E+02  0.26360619712E+02  0.57553564487E+02  0.00000000000E+00 0.  1.
         12    1    4    4    0    0 -0.21951534954E+01  0.39058017998E+02  0.23242601488E+02  0.45503472315E+02  0.00000000000E+00 0. -1.
         -5    1    5    5    0  501  0.85459585735E+01  0.35477594270E+02  0.41867988654E+02  0.55737882783E+02  0.47000000000E+01 0.  1.
         13    1    6    6    0    0 -0.22907383354E+02 -0.97495088556E+02  0.26086699866E+03  0.27943090647E+03  0.00000000000E+00 0. -1.
        -14    1    6    6    0    0  0.32577903249E+02 -0.21985331535E+02  0.18786987696E+03  0.19193687831E+03  0.00000000000E+00 0.  1.
</event>
<event>
12    1  0.2614920E-002  0.1774289E+03  0.7818608E-02  0.1170315E+00
         -2   -1    0    0    0  501 -0.00000000000E+00  0.00000000000E+00  0.58974724701E+02  0.58974724701E+02  0.00000000000E+00 0. -1.
          2   -1    0    0  502    0  0.00000000000E+00 -0.00000000000E+00 -0.69862190756E+03  0.69862190756E+03  0.00000000000E+00 0.  1.
          6    2    1    2  502    0  0.32139492900E+01 -0.45286292037E+02 -0.50187359452E+03  0.53185398622E+03  0.17008932968E+03 0.  0.
         24    2    3    3    0    0  0.29539949974E+02 -0.46976054813E+02 -0.49458073713E+03  0.50408368952E+03  0.80068109290E+02 0.  0.
         -6    2    1    2    0  501 -0.32139492900E+01  0.45286292037E+02 -0.13777358834E+03  0.22574264603E+03  0.17296532276E+03 0.  0.
        -24    2    5    5    0    0  0.27134360286E+02  0.53251577348E+02 -0.48412295345E+02  0.13091650855E+03  0.10594044493E+03 0.  0.
          5    1    3    3  502    0 -0.26326000684E+02  0.16897627754E+01 -0.72928573829E+01  0.27770296704E+02  0.47000000000E+01 0. -1.
        -11    1    4    4    0    0  0.10793526511E+02 -0.64412824720E+02 -0.25866677432E+03  0.26678458040E+03  0.00000000000E+00 0.  1.
         12    1    4    4    0    0  0.18746423463E+02  0.17436769907E+02 -0.23591396282E+03  0.23729910912E+03  0.00000000000E+00 0. -1.
         -5    1    5    5    0  501 -0.30348309576E+02 -0.79652853108E+01 -0.89361292993E+02  0.94826137481E+02  0.47000000000E+01 0.  1.
         11    1    6    6    0    0  0.15091442390E+02  0.84180431566E+02 -0.47246447835E+02  0.97705289136E+02  0.00000000000E+00 0. -1.
        -12    1    6    6    0    0  0.12042917896E+02 -0.30928854218E+02 -0.11658475103E+01  0.33211219416E+02  0.00000000000E+00 0.  1.
</event>
<event>
12    1  0.2614920E-002  0.1755108E+03  0.7818608E-02  0.1172220E+00
          2   -1    0    0  502    0  0.00000000000E+00  0.00000000000E+00  0.44557657257E+02  0.44557657257E+02  0.00000000000E+00 0. -1.
         -2   -1    0    0    0  501 -0.00000000000E+00 -0.00000000000E+00 -0.69444533213E+03  0.69444533213E+03  0.00000000000E+00 0.  1.
          6    2    1    2  502    0  0.32312477112E+02 -0.23228679177E+02 -0.30221054070E+03  0.35000381616E+03  0.17201102494E+03 0.  0.
         24    2    3    3    0    0  0.40393967475E+02  0.50521554733E+02 -0.16123236545E+03  0.19062582714E+03  0.78474392012E+02 0.  0.
         -6    2    1    2    0  501 -0.32312477112E+02  0.23228679177E+02 -0.34767713418E+03  0.38899917323E+03  0.16987436367E+03 0.  0.
        -24    2    5    5    0    0 -0.67718666261E+02 -0.42861496736E+01 -0.13283254191E+03  0.16947479449E+03  0.80455161036E+02 0.  0.
          5    1    3    3  502    0 -0.80814903629E+01 -0.73750233910E+02 -0.14097817525E+03  0.15937798902E+03  0.47000000000E+01 0. -1.
        -11    1    4    4    0    0  0.48602992223E+01 -0.70414734552E+00 -0.10951028149E+03  0.10962034521E+03  0.00000000000E+00 0.  1.
         12    1    4    4    0    0  0.35533668253E+02  0.51225702079E+02 -0.51722083961E+02  0.81005481927E+02  0.00000000000E+00 0. -1.
         -5    1    5    5    0  501  0.35406189149E+02  0.27514828851E+02 -0.21484459226E+03  0.21952437874E+03  0.47000000000E+01 0.  1.
         13    1    6    6    0    0  0.64814086029E+01 -0.15137647300E+02  0.52945476578E+00  0.16475355705E+02  0.00000000000E+00 0. -1.
        -14    1    6    6    0    0 -0.74200074864E+02  0.10851497626E+02 -0.13336199668E+03  0.15299943878E+03  0.00000000000E+00 0.  1.
</event>
<event>
12    1  0.2614920E-002  0.1832225E+03  0.7818608E-02  0.1164720E+00
         -1   -1    0    0    0  501 -0.00000000000E+00  0.00000000000E+00  0.12835971524E+03  0.12835971524E+03  0.00000000000E+00 0. -1.
          1   -1    0    0  502    0  0.00000000000E+00 -0.00000000000E+00 -0.26611302112E+03  0.26611302112E+03  0.00000000000E+00 0.  1.
          6    2    1    2  502    0 -0.56457065510E+02 -0.33892007058E+02 -0.94602134317E+02  0.20586149596E+03  0.17056765025E+03 0.  0.
         24    2    3    3    0    0 -0.90923372748E+02 -0.54102077135E+02 -0.36536032999E+02  0.13522060561E+03  0.75865908099E+02 0.  0.
         -6    2    1    2    0  501  0.56457065510E+02  0.33892007058E+02 -0.43151171556E+02  0.18861124040E+03  0.17139459738E+03 0.  0.
        -24    2    5    5    0    0  0.75508072440E+02  0.53918417367E+02 -0.75978844918E+02  0.14544013764E+03  0.82288419765E+02 0.  0.
          5    1    3    3  502    0  0.34466307238E+02  0.20210070077E+02 -0.58066101319E+02  0.70640890350E+02  0.47000000000E+01 0. -1.
        -11    1    4    4    0    0 -0.43549140578E+00 -0.35933238140E+02  0.60195534206E-01  0.35935927419E+02  0.00000000000E+00 0.  1.
         12    1    4    4    0    0 -0.90487881343E+02 -0.18168838995E+02 -0.36596228533E+02  0.99284678189E+02  0.00000000000E+00 0. -1.
         -5    1    5    5    0  501 -0.19051006929E+02 -0.20026410309E+02  0.32827673363E+02  0.43171102757E+02  0.47000000000E+01 0.  1.
         11    1    6    6    0    0  0.26052651357E+01  0.26988091332E+02  0.10585623761E+02  0.29106698723E+02  0.00000000000E+00 0. -1.
        -12    1    6    6    0    0  0.72902807304E+02  0.26930326035E+02 -0.86564468679E+02  0.11633343892E+03  0.00000000000E+00 0.  1.
</event>
<event>
12    1  0.2614920E-002  0.2627557E+03  0.7818608E-02  0.1105499E+00
         -2   -1    0    0    0  501 -0.00000000000E+00  0.00000000000E+00  0.14377964765E+03  0.14377964765E+03  0.00000000000E+00 0. -1.
          2   -1    0    0  502    0  0.00000000000E+00 -0.00000000000E+00 -0.58617117783E+03  0.58617117783E+03  0.00000000000E+00 0.  1.
          6    2    1    2  502    0 -0.18352714314E+03 -0.86272562761E+02 -0.37403232540E+03  0.45520948359E+03  0.16183425520E+03 0.  0.
         24    2    3    3    0    0 -0.85752319771E+02 -0.10004884332E+03 -0.28594950861E+03  0.32280716260E+03  0.71232796899E+02 0.  0.
         -6    2    1    2    0  501  0.18352714314E+03  0.86272562761E+02 -0.68359204783E+02  0.27474134189E+03  0.17229235824E+03 0.  0.
        -24    2    5    5    0    0  0.77206419260E+02 -0.12883847968E+02  0.48071053842E+01  0.11191785139E+03  0.79847808257E+02 0.  0.
          5    1    3    3  502    0 -0.97774823372E+02  0.13776280564E+02 -0.88082816785E+02  0.13240232099E+03  0.47000000000E+01 0. -1.
        -11    1    4    4    0    0 -0.94281440950E+02 -0.89789019977E+02 -0.22098460403E+03  0.25648636111E+03  0.00000000000E+00 0.  1.
         12    1    4    4    0    0  0.85291211793E+01 -0.10259823348E+02 -0.64964904586E+02  0.66320801496E+02  0.00000000000E+00 0. -1.
         -5    1    5    5    0  501  0.10632072388E+03  0.99156410728E+02 -0.73166310167E+02  0.16282349050E+03  0.47000000000E+01 0.  1.
         11    1    6    6    0    0  0.22471661686E+01  0.94137282615E+01  0.28583936980E+02  0.30177963630E+02  0.00000000000E+00 0. -1.
        -12    1    6    6    0    0  0.74959253092E+02 -0.22297576229E+02 -0.23776831596E+02  0.81739887757E+02  0.00000000000E+00 0.  1.
</event>
<event>
12    1  0.2614920E-002  0.2151150E+03  0.7818608E-02  0.1137578E+00
         -2   -1    0    0    0  501 -0.00000000000E+00  0.00000000000E+00  0.16330939632E+03  0.16330939632E+03  0.00000000000E+00 0. -1.
          2   -1    0    0  502    0  0.00000000000E+00 -0.00000000000E+00 -0.28605231737E+03  0.28605231737E+03  0.00000000000E+00 0.  1.
          6    2    1    2  502    0 -0.26814809847E+02 -0.12750278857E+03 -0.39620455375E+02  0.21896585155E+03  0.17146506508E+03 0.  0.
         24    2    3    3    0    0 -0.45690485235E+02 -0.10776122670E+03 -0.85559803657E+02  0.16531387948E+03  0.79423525023E+02 0.  0.
         -6    2    1    2    0  501  0.26814809847E+02  0.12750278857E+03 -0.83122465675E+02  0.23039586215E+03  0.17087104458E+03 0.  0.
        -24    2    5    5    0    0  0.29112077124E+02  0.22762900310E+02 -0.76366604189E+02  0.12530802606E+03  0.92220282446E+02 0.  0.
          5    1    3    3  502    0  0.18875675388E+02 -0.19741561868E+02  0.45939348282E+02  0.53651972069E+02  0.47000000000E+01 0. -1.
        -13    1    4    4    0    0 -0.46959200869E+02 -0.95792443063E+02 -0.33409125237E+02  0.11179234474E+03  0.00000000000E+00 0.  1.
         14    1    4    4    0    0  0.12687156335E+01 -0.11968783635E+02 -0.52150678421E+02  0.53521534739E+02  0.00000000000E+00 0. -1.
         -5    1    5    5    0  501 -0.22972672765E+01  0.10473988826E+03 -0.67558614859E+01  0.10508783609E+03  0.47000000000E+01 0.  1.
         11    1    6    6    0    0  0.89267574966E+01  0.37556471785E+02  0.61412946673E+01  0.39088247243E+02  0.00000000000E+00 0. -1.
        -12    1    6    6    0    0  0.20185319627E+02 -0.14793571475E+02 -0.82507898856E+02  0.86219778816E+02  0.00000000000E+00 0.  1.
</event>
<event>
12    1  0.2614920E-002  0.1849303E+03  0.7818608E-02  0.1163115E+00
          2   -1    0    0  502    0  0.00000000000E+00  0.00000000000E+00  0.20871540398E+03  0.20871540398E+03  0.00000000000E+00 0.  1.
         -2   -1    0    0    0  501 -0.00000000000E+00 -0.00000000000E+00 -0.17920430446E+03  0.17920430446E+03  0.00000000000E+00 0. -1.
          6    2    1    2  502    0  0.67409100568E+02 -0.14293306457E+02  0.71521507385E+02  0.19830577228E+03  0.17164372361E+03 0.  0.
         24    2    3    3    0    0  0.10328664698E+03  0.18738688682E+02  0.32677449194E+02  0.13578168176E+03  0.79684248865E+02 0.  0.
         -6    2    1    2    0  501 -0.67409100568E+02  0.14293306457E+02 -0.42010407859E+02  0.18961393616E+03  0.17158171514E+03 0.  0.
        -24    2    5    5    0    0 -0.85089270821E+02  0.49643446354E+02  0.65705552546E+01  0.12680931222E+03  0.79578726399E+02 0.  0.
          5    1    3    3  502    0 -0.35877546412E+02 -0.33031995139E+02  0.38844058191E+02  0.62524090526E+02  0.47000000000E+01 0. -1.
        -13    1    4    4    0    0  0.81440054824E+02  0.23376477829E+02  0.57495180594E+02  0.10239452152E+03  0.00000000000E+00 0.  1.
         14    1    4    4    0    0  0.21846592155E+02 -0.46377891470E+01 -0.24817731400E+02  0.33387160238E+02  0.00000000000E+00 0. -1.
         -5    1    5    5    0  501  0.17680170253E+02 -0.35350139897E+02 -0.48580963113E+02  0.62804623937E+02  0.47000000000E+01 0.  1.
         11    1    6    6    0    0 -0.37348496057E+02  0.33093843310E+01 -0.32531816910E+02  0.49640520684E+02  0.00000000000E+00 0. -1.
        -12    1    6    6    0    0 -0.47740774764E+02  0.46334062023E+02  0.39102372164E+02  0.77168791538E+02  0.00000000000E+00 0.  1.
</event>
<event>
12    1  0.2614920E-002  0.2195060E+03  0.7818608E-02  0.1134252E+00
         -2   -1    0    0    0  501 -0.00000000000E+00  0.00000000000E+00  0.23562207660E+03  0.23562207660E+03  0.00000000000E+00 0.  1.
          2   -1    0    0  502    0  0.00000000000E+00 -0.00000000000E+00 -0.30069485542E+03  0.30069485542E+03  0.00000000000E+00 0. -1.
          6    2    1    2  502    0  0.73233679519E+02 -0.11311097818E+03  0.11910878345E+03  0.25002022702E+03  0.17368346617E+03 0.  0.
         24    2    3    3    0    0  0.49522887202E+01 -0.93013520639E+02  0.12860636835E+03  0.17805808247E+03  0.80554593707E+02 0.  0.
         -6    2    1    2    0  501 -0.73233679519E+02  0.11311097818E+03 -0.18418156227E+03  0.28629670501E+03  0.17287478190E+03 0.  0.
        -24    2    5    5    0    0 -0.91839293148E+02  0.94489440269E+02 -0.20383159643E+03  0.25311320948E+03  0.71807151601E+02 0.  0.
          5    1    3    3  502    0  0.68281390798E+02 -0.20097457546E+02 -0.94975848974E+01  0.71962144549E+02  0.47000000000E+01 0. -1.
        -13    1    4    4    0    0 -0.35853981720E+02 -0.25717192277E+02  0.52464765789E+02  0.68552415224E+02  0.00000000000E+00 0.  1.
         14    1    4    4    0    0  0.40806270440E+02 -0.67296328362E+02  0.76141602558E+02  0.10950566724E+03  0.00000000000E+00 0. -1.
         -5    1    5    5    0  501  0.18605613629E+02  0.18621537915E+02  0.19650034164E+02  0.33183495529E+02  0.47000000000E+01 0.  1.
         11    1    6    6    0    0 -0.18861682823E+02  0.19252970474E+02 -0.37134152094E+01  0.27207157211E+02  0.00000000000E+00 0. -1.
        -12    1    6    6    0    0 -0.72977610325E+02  0.75236469795E+02 -0.20011818122E+03  0.22590605227E+03  0.00000000000E+00 0.  1.
</event>
<event>
12    1  0.2614920E-002  0.2166122E+03  0.7818608E-02  0.1136434E+00
         -1   -1    0    0    0  501 -0.00000000000E+00  0.00000000000E+00  0.34717240753E+03  0.34717240753E+03  0.00000000000E+00 0.  1.
          1   -1    0    0  502    0  0.00000000000E+00 -0.00000000000E+00 -0.20711351640E+03  0.20711351640E+03  0.00000000000E+00 0. -1.
          6    2    1    2  502    0 -0.18448030892E+00 -0.13185695022E+03 -0.93358883806E+02  0.23576023537E+03  0.17169949925E+03 0.  0.
         24    2    3    3    0    0 -0.35992362312E+01  0.37809277821E+01 -0.42536396978E+02  0.90797103248E+02  0.80046979794E+02 0.  0.
         -6    2    1    2    0  501  0.18448030892E+00  0.13185695022E+03  0.23341777494E+03  0.31852568856E+03  0.17201298574E+03 0.  0.
        -24    2    5    5    0    0  0.60499810192E+01 -0.44084915793E+01  0.12126444925E+03  0.14188160236E+03  0.73275407659E+02 0.  0.
          5    1    3    3  502    0  0.34147559222E+01 -0.13563787800E+03 -0.50822486828E+02  0.14496313212E+03  0.47000000000E+01 0. -1.
        -13    1    4    4    0    0  0.35977256247E+02 -0.58825866848E+01 -0.32502705355E+02  0.48840491895E+02  0.00000000000E+00 0.  1.
         14    1    4    4    0    0 -0.39576492478E+02  0.96635144669E+01 -0.10033691623E+02  0.41956611353E+02  0.00000000000E+00 0. -1.
         -5    1    5    5    0  501 -0.58655007103E+01  0.13626544180E+03  0.11215332569E+03  0.17664408620E+03  0.47000000000E+01 0.  1.
         11    1    6    6    0    0  0.26584011660E+01  0.53951396227E+01 -0.92075277662E+01  0.10997872334E+02  0.00000000000E+00 0. -1.
        -12    1    6    6    0    0  0.33915798532E+01 -0.98036312020E+01  0.13047197702E+03  0.13088373003E+03  0.00000000000E+00 0.  1.
</event>
<event>
12    1  0.2614920E-002  0.3043113E+03  0.7818608E-02  0.1083105E+00
         -2   -1    0    0    0  501 -0.00000000000E+00  0.00000000000E+00  0.24216052569E+03  0.24216052569E+03  0.00000000000E+00 0.  1.
          2   -1    0    0  502    0  0.00000000000E+00 -0.00000000000E+00 -0.87896313490E+03  0.87896313490E+03  0.00000000000E+00 0. -1.
          6    2    1    2  502    0 -0.23360726124E+03 -0.91588065682E+02  0.10286184951E+03  0.32135930211E+03  0.17242538877E+03 0.  0.
         24    2    3    3    0    0 -0.13347243594E+03 -0.12014954909E+03  0.41150938269E+02  0.20022686163E+03  0.78400198299E+02 0.  0.
         -6    2    1    2    0  501  0.23360726124E+03  0.91588065682E+02 -0.73966445872E+03  0.79976435848E+03  0.17192670334E+03 0.  0.
        -24    2    5    5    0    0  0.25479731674E+03  0.91767557970E+02 -0.68441776135E+03  0.74040664424E+03  0.80195819518E+02 0.  0.
          5    1    3    3  502    0 -0.10013482530E+03  0.28561483413E+02  0.61710911239E+02  0.12113244049E+03  0.47000000000E+01 0. -1.
        -13    1    4    4    0    0 -0.55346087101E+02 -0.40555444732E+02  0.54870499393E+02  0.87856161756E+02  0.00000000000E+00 0.  1.
         14    1    4    4    0    0 -0.78126348835E+02 -0.79594104363E+02 -0.13719561124E+02  0.11237069987E+03  0.00000000000E+00 0. -1.
         -5    1    5    5    0  501 -0.21190055501E+02 -0.17949228809E+00 -0.55246697366E+02  0.59357714237E+02  0.47000000000E+01 0.  1.
         13    1    6    6    0    0  0.15554837837E+03  0.91199314839E+02 -0.38890496384E+03  0.42867200042E+03  0.00000000000E+00 0. -1.
        -14    1    6    6    0    0  0.99248938368E+02  0.56824313143E+00 -0.29551279751E+03  0.31173464382E+03  0.00000000000E+00 0.  1.
</event>
<event>
12    1  0.2614920E-002  0.1787653E+03  0.7818608E-02  0.1169003E+00
          2   -1    0    0  502    0  0.00000000000E+00  0.00000000000E+00  0.10310964283E+03  0.10310964283E+03  0.00000000000E+00 0. -1.
         -2   -1    0    0    0  501 -0.00000000000E+00 -0.00000000000E+00 -0.31464083239E+03  0.31464083239E+03  0.00000000000E+00 0.  1.
          6    2    1    2  502    0 -0.48438103214E+02 -0.19030526077E+02 -0.13093736474E+03  0.22108019169E+03  0.17036269224E+03 0.  0.
         24    2    3    3    0    0  0.19883105694E+02  0.94614042401E+01 -0.12043442774E+03  0.14616704621E+03  0.79846715346E+02 0.  0.
         -6    2    1    2    0  501  0.48438103214E+02  0.19030526077E+02 -0.80593824823E+02  0.19667028352E+03  0.17168408504E+03 0.  0.
        -24    2    5    5    0    0  0.84779185108E+02  0.40569370427E+02 -0.25097259314E+02  0.12676638640E+03  0.81280134424E+02 0.  0.
          5    1    3    3  502    0 -0.68321208907E+02 -0.28491930318E+02 -0.10502936999E+02  0.74913145478E+02  0.47000000000E+01 0. -1.
        -13    1    4    4    0    0 -0.22659102826E+02  0.10595328697E+02 -0.85052247301E+01  0.26420347817E+02  0.00000000000E+00 0.  1.
         14    1    4    4    0    0  0.42542208520E+02 -0.11339244565E+01 -0.11192920301E+03  0.11974669840E+03  0.00000000000E+00 0. -1.
         -5    1    5    5    0  501 -0.36341081894E+02 -0.21538844349E+02 -0.55496565510E+02  0.69903897120E+02  0.47000000000E+01 0.  1.
         11    1    6    6    0    0  0.10181524845E+02  0.36788860583E+02  0.16142281675E+02  0.41444625331E+02  0.00000000000E+00 0. -1.
        -12    1    6    6    0    0  0.74597660263E+02  0.37805098441E+01 -0.41239540988E+02  0.85321761072E+02  0.00000000000E+00 0.  1.
</event>
<event>
12    1  0.2614920E-002  0.4307590E+03  0.7818608E-02  0.1033620E+00
          1   -1    0    0  502    0  0.00000000000E+00  0.00000000000E+00  0.51897284913E+03  0.51897284913E+03  0.00000000000E+00 0.  1.
         -1   -1    0    0    0  501 -0.00000000000E+00 -0.00000000000E+00 -0.38714863776E+03  0.38714863776E+03  0.00000000000E+00 0. -1.
          6    2    1    2  502    0  0.37331267027E+03  0.12847166386E+03 -0.59366464907E+02  0.43493725665E+03  0.17256512355E+03 0.  0.
         24    2    3    3    0    0  0.10340280869E+03  0.83945311646E+02  0.10019789074E+02  0.15267767459E+03  0.73967019367E+02 0.  0.
         -6    2    1    2    0  501 -0.37331267027E+03 -0.12847166386E+03  0.19119067628E+03  0.47118423025E+03  0.17202728254E+03 0.  0.
        -24    2    5    5    0    0 -0.77595102494E+02 -0.64879873756E+02  0.69138756845E+02  0.14497638746E+03  0.77508627082E+02 0.  0.
          5    1    3    3  502    0  0.26990986158E+03  0.44526352213E+02 -0.69386253981E+02  0.28225958206E+03  0.47000000000E+01 0. -1.
        -11    1    4    4    0    0  0.12721818377E+01  0.34646846038E+01  0.21804578396E+02  0.22114749039E+02  0.00000000000E+00 0.  1.
         12    1    4    4    0    0  0.10213062685E+03  0.80480627042E+02 -0.11784789321E+02  0.13056292555E+03  0.00000000000E+00 0. -1.
         -5    1    5    5    0  501 -0.29571756778E+03 -0.63591790104E+02  0.12205191943E+03  0.32620784279E+03  0.47000000000E+01 0.  1.
         13    1    6    6    0    0 -0.16569277956E+02  0.15957427571E+02  0.12393911635E+01  0.23037286236E+02  0.00000000000E+00 0. -1.
        -14    1    6    6    0    0 -0.61025824538E+02 -0.80837301327E+02  0.67899365681E+02  0.12193910122E+03  0.00000000000E+00 0.  1.
</event>
<event>
12    1  0.2614920E-002  0.2246761E+03  0.7818608E-02  0.1130444E+00
          1   -1    0    0  502    0  0.00000000000E+00  0.00000000000E+00  0.71878412104E+02  0.71878412104E+02  0.00000000000E+00 0. -1.
         -1   -1    0    0    0  501 -0.00000000000E+00 -0.00000000000E+00 -0.78452238026E+03  0.78452238026E+03  0.00000000000E+00 0.  1.
          6    2    1    2  502    0 -0.99447474686E+02  0.10446234820E+03 -0.21661583486E+03  0.31154667888E+03  0.17127968589E+03 0.  0.
         24    2    3    3    0    0 -0.24202446145E+02  0.11793471440E+03 -0.16585609726E+03  0.21966653994E+03  0.79061928324E+02 0.  0.
         -6    2    1    2    0  501  0.99447474686E+02 -0.10446234820E+03 -0.49602813330E+03  0.54485411348E+03  0.17326255666E+03 0.  0.
        -24    2    5    5    0    0  0.19804344313E+02 -0.43796991912E+02 -0.10282276075E+03  0.13907601074E+03  0.80369322999E+02 0.  0.
          5    1    3    3  502    0 -0.75245028541E+02 -0.13472366202E+02 -0.50759737599E+02  0.91880138944E+02  0.47000000000E+01 0. -1.
        -11    1    4    4    0    0 -0.50235462877E+02  0.48456713307E+02 -0.77828315570E+02  0.10454138654E+03  0.00000000000E+00 0.  1.
         12    1    4    4    0    0  0.26033016733E+02  0.69478001094E+02 -0.88027781690E+02  0.11512515340E+03  0.00000000000E+00 0. -1.
         -5    1    5    5    0  501  0.79643130373E+02 -0.60665356288E+02 -0.39320537254E+03  0.40577810274E+03  0.47000000000E+01 0.  1.
         13    1    6    6    0    0 -0.31087540584E+02 -0.15521406491E+02 -0.46716191337E+02  0.58221574799E+02  0.00000000000E+00 0. -1.
        -14    1    6    6    0    0  0.50891884897E+02 -0.28275585421E+02 -0.56106569418E+02  0.80854435939E+02  0.00000000000E+00 0.  1.
</event>
<event>
12    1  0.2614920E-002  0.2036393E+03  0.7818608E-02  0.1146704E+00
         -2   -1    0    0    0  501 -0.00000000000E+00  0.00000000000E+00  0.13467671453E+03  0.13467671453E+03  0.00000000000E+00 0. -1.
          2   -1    0    0  502    0  0.00000000000E+00 -0.00000000000E+00 -0.34710835623E+03  0.34710835623E+03  0.00000000000E+00 0.  1.
          6    2    1    2  502    0  0.75045898411E+02  0.77017937700E+02 -0.25105195516E+02  0.20482702630E+03  0.17251142067E+03 0.  0.
         24    2    3    3    0    0 -0.11546390754E+01 -0.72832205446E+01 -0.39795032859E+02  0.90148830828E+02  0.80553017116E+02 0.  0.
         -6    2    1    2    0  501 -0.75045898411E+02 -0.77017937700E+02 -0.18732644619E+03  0.27695804446E+03  0.17335198688E+03 0.  0.
        -24    2    5    5    0    0  0.25008449628E+01 -0.76629622704E+02 -0.15705169089E+03  0.19357759708E+03  0.83238808137E+02 0.  0.
          5    1    3    3  502    0  0.76200537486E+02  0.84301158245E+02  0.14689837342E+02  0.11467819547E+03  0.47000000000E+01 0. -1.
        -11    1    4    4    0    0 -0.63343451848E+01 -0.30495528128E+02 -0.54078143119E+02  0.62406303591E+02  0.00000000000E+00 0.  1.
         12    1    4    4    0    0  0.51797061094E+01  0.23212307584E+02  0.14283110260E+02  0.27742527236E+02  0.00000000000E+00 0. -1.
         -5    1    5    5    0  501 -0.77546743374E+02 -0.38831499606E+00 -0.30274755300E+02  0.83380447377E+02  0.47000000000E+01 0.  1.
         11    1    6    6    0    0  0.12764856208E+02 -0.90984837486E+01 -0.10885769681E+03  0.10998055335E+03  0.00000000000E+00 0. -1.
        -12    1    6    6    0    0 -0.10264011245E+02 -0.67531138955E+02 -0.48193994077E+02  0.83597043731E+02  0.00000000000E+00 0.  1.
</event>
<event>
12    1  0.2614920E-002  0.2109741E+03  0.7818608E-02  0.1140797E+00
          2   -1    0    0  502    0  0.00000000000E+00  0.00000000000E+00  0.13354168000E+04  0.13354168000E+04  0.00000000000E+00 0.  1.
         -2   -1    0    0    0  501 -0.00000000000E+00 -0.00000000000E+00 -0.36336532719E+02  0.36336532719E+02  0.00000000000E+00 0. -1.
          6    2    1    2  502    0 -0.93013152489E+02 -0.79207750386E+02  0.84702525413E+03  0.87292225323E+03  0.17209347689E+03 0.  0.
         24    2    3    3    0    0 -0.49012704732E+02 -0.36458800658E+02  0.21026963034E+03  0.23320096506E+03  0.80236421226E+02 0.  0.
         -6    2    1    2    0  501  0.93013152489E+02  0.79207750386E+02  0.45205501316E+03  0.49883107951E+03  0.17191101389E+03 0.  0.
        -24    2    5    5    0    0  0.10437183052E+03  0.33678054804E+02  0.19405406274E+03  0.23655535977E+03  0.79207124591E+02 0.  0.
          5    1    3    3  502    0 -0.44000447757E+02 -0.42748949728E+02  0.63675562379E+03  0.63972128817E+03  0.47000000000E+01 0. -1.
        -13    1    4    4    0    0  0.17666170993E+02 -0.20511624411E+02  0.97844808685E+02  0.10152057388E+03  0.00000000000E+00 0.  1.
         14    1    4    4    0    0 -0.66678875725E+02 -0.15947176247E+02  0.11242482165E+03  0.13168039118E+03  0.00000000000E+00 0. -1.
         -5    1    5    5    0  501 -0.11358678029E+02  0.45529695582E+02  0.25800095042E+03  0.26227571974E+03  0.47000000000E+01 0.  1.
         11    1    6    6    0    0  0.22120982607E+02  0.24243615780E+02  0.93180573010E+01  0.34116227362E+02  0.00000000000E+00 0. -1.
        -12    1    6    6    0    0  0.82250847911E+02  0.94344390245E+01  0.18473600544E+03  0.20243913240E+03  0.00000000000E+00 0.  1.
</event>
<event>
12    1  0.2614920E-002  0.2175311E+03  0.7818608E-02  0.1135737E+00
         -1   -1    0    0    0  501 -0.00000000000E+00  0.00000000000E+00  0.15664769744E+03  0.15664769744E+03  0.00000000000E+00 0. -1.
          1   -1    0    0  502    0  0.00000000000E+00 -0.00000000000E+00 -0.42156715665E+03  0.42156715665E+03  0.00000000000E+00 0.  1.
          6    2    1    2  502    0  0.48109502830E+02  0.12818070463E+03 -0.28524087369E+03  0.35720394458E+03  0.16579350018E+03 0.  0.
         24    2    3    3    0    0 -0.16916806904E+02  0.12981884720E+02 -0.11059594847E+03  0.13806442516E+03  0.79847441987E+02 0.  0.
         -6    2    1    2    0  501 -0.48109502830E+02 -0.12818070463E+03  0.20321414474E+02  0.22101090951E+03  0.17230219074E+03 0.  0.
        -24    2    5    5    0    0  0.32978053259E+02 -0.26689324353E+02  0.22332608782E+02  0.91003883066E+02  0.77350431718E+02 0.  0.
          5    1    3    3  502    0  0.65026309734E+02  0.11519881991E+03 -0.17464492522E+03  0.21913951942E+03  0.47000000000E+01 0. -1.
        -11    1    4    4    0    0 -0.69549531528E+01  0.46789047695E+02 -0.66686736439E+02  0.81760058552E+02  0.00000000000E+00 0.  1.
         12    1    4    4    0    0 -0.99618537512E+01 -0.33807162975E+02 -0.43909212026E+02  0.56304366610E+02  0.00000000000E+00 0. -1.
         -5    1    5    5    0  501 -0.81087556089E+02 -0.10149138027E+03 -0.20111943076E+01  0.13000702644E+03  0.47000000000E+01 0.  1.
         11    1    6    6    0    0 -0.18582581108E+02 -0.28881607790E+02  0.19096041102E+02  0.39295271661E+02  0.00000000000E+00 0. -1.
        -12    1    6    6    0    0  0.51560634367E+02  0.21922834373E+01  0.32365676795E+01  0.51708611404E+02  0.00000000000E+00 0.  1.
</event>
<event>
12    1  0.2614920E-002  0.2240328E+03  0.7818608E-02  0.1130912E+00
         -1   -1    0    0    0  501 -0.00000000000E+00  0.00000000000E+00  0.37219473642E+02  0.37219473642E+02  0.00000000000E+00 0.  1.
          1   -1    0    0  502    0  0.00000000000E+00 -0.00000000000E+00 -0.14440377037E+04  0.14440377037E+04  0.00000000000E+00 0. -1.
          6    2    1    2  502    0 -0.13694126611E+03 -0.46372577341E+02 -0.50916293763E+03  0.55575217972E+03  0.16944102783E+03 0.  0.
         24    2    3    3    0    0 -0.16677503024E+03 -0.29653595685E+02 -0.44428089215E+03  0.48225831838E+03  0.80587393970E+02 0.  0.
         -6    2    1    2    0  501  0.13694126611E+03  0.46372577341E+02 -0.89765529241E+03  0.92550499760E+03  0.17283272348E+03 0.  0.
        -24    2    5    5    0    0  0.78111352441E+02 -0.50291985267E+01 -0.26143845429E+03  0.28449247322E+03  0.80369308330E+02 0.  0.
          5    1    3    3  502    0  0.29833764123E+02 -0.16718981656E+02 -0.64882045484E+02  0.73493861346E+02  0.47000000000E+01 0. -1.
        -13    1    4    4    0    0 -0.32983370277E+02 -0.33363554942E+02 -0.65829653637E+02  0.80836704604E+02  0.00000000000E+00 0.  1.
         14    1    4    4    0    0 -0.13379165996E+03  0.37099592576E+01 -0.37845123851E+03  0.40142161377E+03  0.00000000000E+00 0. -1.
         -5    1    5    5    0  501  0.58829913673E+02  0.51401775867E+02 -0.63621683812E+03  0.64101252438E+03  0.47000000000E+01 0.  1.
         13    1    6    6    0    0 -0.88895335296E+01 -0.79701119665E+01 -0.10321517765E+03  0.10390341375E+03  0.00000000000E+00 0. -1.
        -14    1    6    6    0    0  0.87000885971E+02  0.29409134398E+01 -0.15822327663E+03  0.18058905947E+03  0.00000000000E+00 0.  1.
</event>
<event>
12    1  0.2614920E-002  0.2221752E+03  0.7818608E-02  0.1132272E+00
          2   -1    0    0  502    0  0.00000000000E+00  0.00000000000E+00  0.12559603675E+04  0.12559603675E+04  0.00000000000E+00 0. -1.
         -2   -1    0    0    0  501 -0.00000000000E+00 -0.00000000000E+00 -0.39341603542E+02  0.39341603542E+02  0.00000000000E+00 0.  1.
          6    2    1    2  502    0 -0.51171487516E+02 -0.13115575879E+03  0.63453927030E+03  0.67318735468E+03  0.17527342854E+03 0.  0.
         24    2    3    3    0    0 -0.10845941449E+02  0.94479401080E+01  0.24900704624E+03  0.26081284577E+03  0.76236037571E+02 0.  0.
         -6    2    1    2    0  501  0.51171487516E+02  0.13115575879E+03  0.58207949368E+03  0.62211461638E+03  0.16849244718E+03 0.  0.
        -24    2    5    5    0    0  0.71879303400E+02  0.24258221204E+02  0.31515711811E+03  0.33379961199E+03  0.79643432333E+02 0.  0.
          5    1    3    3  502    0 -0.40325546067E+02 -0.14060369890E+03  0.38553222406E+03  0.41237450891E+03  0.47000000000E+01 0. -1.
        -11    1    4    4    0    0  0.26483060194E+02  0.21127236662E+02  0.72510484659E+02  0.80034261362E+02  0.00000000000E+00 0.  1.
         12    1    4    4    0    0 -0.37329001643E+02 -0.11679296554E+02  0.17649656158E+03  0.18077858441E+03  0.00000000000E+00 0. -1.
         -5    1    5    5    0  501 -0.20707815884E+02  0.10689753759E+03  0.26692237557E+03  0.28831500440E+03  0.47000000000E+01 0.  1.
         11    1    6    6    0    0  0.75345531714E+02  0.22126342035E+02  0.31880540645E+03  0.32833429815E+03  0.00000000000E+00 0. -1.
        -12    1    6    6    0    0 -0.34662283139E+01  0.21318791687E+01 -0.36482883392E+01  0.54653138354E+01  0.00000000000E+00 0.  1.
</event>
<event>
12    1  0.2614920E-002  0.1708994E+03  0.7818608E-02  0.1176913E+00
         -2   -1    0    0    0  501 -0.00000000000E+00  0.00000000000E+00  0.76181062671E+02  0.76181062671E+02  0.00000000000E+00 0.  1.
          2   -1    0    0  502    0  0.00000000000E+00 -0.00000000000E+00 -0.38570371059E+03  0.38570371059E+03  0.00000000000E+00 0. -1.
          6    2    1    2  502    0 -0.73207440523E+01  0.22025358102E+01 -0.17167135775E+03  0.24149806423E+03  0.16968151194E+03 0.  0.
         24    2    3    3    0    0  0.51002097551E+02  0.35373728973E+02 -0.13726268387E+03  0.16594722871E+03  0.69605485977E+02 0.  0.
         -6    2    1    2    0  501  0.73207440523E+01 -0.22025358102E+01 -0.13785129016E+03  0.22038670903E+03  0.17178148579E+03 0.  0.
        -24    2    5    5    0    0 -0.94051482624E+01 -0.56967587281E+02 -0.37398714313E+02  0.10466386629E+03  0.78880278020E+02 0.  0.
          5    1    3    3  502    0 -0.58322841604E+02 -0.33171193163E+02 -0.34408673881E+02  0.75550835514E+02  0.47000000000E+01 0. -1.
        -11    1    4    4    0    0  0.44905919274E+02  0.24031526931E+01 -0.31258948237E+02  0.54767130412E+02  0.00000000000E+00 0.  1.
         12    1    4    4    0    0  0.60961782774E+01  0.32970576280E+02 -0.10600373564E+03  0.11118009830E+03  0.00000000000E+00 0. -1.
         -5    1    5    5    0  501  0.16725892315E+02  0.54765051471E+02 -0.10045257585E+03  0.11572284274E+03  0.47000000000E+01 0.  1.
         11    1    6    6    0    0 -0.36245027729E+02 -0.41847868420E+01 -0.24820229838E+02  0.44127749605E+02  0.00000000000E+00 0. -1.
        -12    1    6    6    0    0  0.26839879466E+02 -0.52782800439E+02 -0.12578484476E+02  0.60536116688E+02  0.00000000000E+00 0.  1.
</event>
<event>
12    1  0.2614920E-002  0.2294202E+03  0.7818608E-02  0.1127048E+00
         -2   -1    0    0    0  501 -0.00000000000E+00  0.00000000000E+00  0.15025561861E+03  0.15025561861E+03  0.00000000000E+00 0. -1.
          2   -1    0    0  502    0  0.00000000000E+00 -0.00000000000E+00 -0.36518889054E+03  0.36518889054E+03  0.00000000000E+00 0.  1.
          6    2    1    2  502    0  0.15247637638E+03 -0.19283271050E+02 -0.15906526869E+03  0.27836897847E+03  0.16901668135E+03 0.  0.
         24    2    3    3    0    0  0.17362539929E+03 -0.42779603679E+02 -0.14342135545E+03  0.24278554359E+03  0.79995382413E+02 0.  0.
         -6    2    1    2    0  501 -0.15247637638E+03  0.19283271050E+02 -0.55868003247E+02  0.23707553068E+03  0.17164697364E+03 0.  0.
        -24    2    5    5    0    0 -0.68864793854E+02 -0.50811823787E+02 -0.48345566555E+02  0.12760911524E+03  0.81379304610E+02 0.  0.
          5    1    3    3  502    0 -0.21149022903E+02  0.23496332630E+02 -0.15643913240E+02  0.35583434886E+02  0.47000000000E+01 0. -1.
        -13    1    4    4    0    0  0.58984390045E+02 -0.33287307828E+02 -0.13148318157E+02  0.68993343170E+02  0.00000000000E+00 0.  1.
         14    1    4    4    0    0  0.11464100924E+03 -0.94922958515E+01 -0.13027303729E+03  0.17379220042E+03  0.00000000000E+00 0. -1.
         -5    1    5    5    0  501 -0.83611582530E+02  0.70095094837E+02 -0.75224366913E+01  0.10946641543E+03  0.47000000000E+01 0.  1.
         11    1    6    6    0    0 -0.76169203859E+01  0.93670568633E+01  0.16189849664E+02  0.20195803093E+02  0.00000000000E+00 0. -1.
        -12    1    6    6    0    0 -0.61247873468E+02 -0.60178880650E+02 -0.64535416219E+02  0.10741331215E+03  0.00000000000E+00 0.  1.
</event>
<event>
12    1  0.2614920E-002  0.2576002E+03  0.7818608E-02  0.1108594E+00
         -2   -1    0    0    0  501 -0.00000000000E+00  0.00000000000E+00  0.10119410284E+03  0.10119410284E+03  0.00000000000E+00 0. -1.
          2   -1    0    0  502    0  0.00000000000E+00 -0.00000000000E+00 -0.65956660158E+03  0.65956660158E+03  0.00000000000E+00 0.  1.
          6    2    1    2  502    0  0.91455749907E+02  0.16859138687E+03 -0.25002986327E+03  0.35884420144E+03  0.17165960054E+03 0.  0.
         24    2    3    3    0    0  0.10216251671E+03  0.79469088060E+02 -0.96017931416E+02  0.18052094397E+03  0.81337889568E+02 0.  0.
         -6    2    1    2    0  501 -0.91455749907E+02 -0.16859138687E+03 -0.30834263547E+03  0.40191650298E+03  0.17226283582E+03 0.  0.
        -24    2    5    5    0    0 -0.80422003891E+02 -0.18503612103E+03 -0.31268462987E+03  0.38110506987E+03  0.82239477934E+02 0.  0.
          5    1    3    3  502    0 -0.10706766803E+02  0.89122298811E+02 -0.15401193186E+03  0.17832325747E+03  0.47000000000E+01 0. -1.
        -11    1    4    4    0    0  0.29365680610E+02  0.17533125638E+02 -0.75326384750E+02  0.82727371116E+02  0.00000000000E+00 0.  1.
         12    1    4    4    0    0  0.72796836100E+02  0.61935962422E+02 -0.20691546666E+02  0.97793572850E+02  0.00000000000E+00 0. -1.
         -5    1    5    5    0  501 -0.11033746016E+02  0.16444734156E+02  0.43419944056E+01  0.20811433109E+02  0.47000000000E+01 0.  1.
         13    1    6    6    0    0 -0.87844166816E+01  0.77268749383E+01 -0.23571176922E+02  0.26314842850E+02  0.00000000000E+00 0. -1.
        -14    1    6    6    0    0 -0.71637587209E+02 -0.19276299597E+03 -0.28911345295E+03  0.35479022702E+03  0.00000000000E+00 0.  1.
</event>
<event>
12    1  0.2614920E-002  0.1941769E+03  0.7818608E-02  0.1154747E+00
          1   -1    0    0  502    0  0.00000000000E+00  0.00000000000E+00  0.76838660070E+02  0.76838660070E+02  0.00000000000E+00 0. -1.
         -1   -1    0    0    0  501 -0.00000000000E+00 -0.00000000000E+00 -0.49996271973E+03  0.49996271973E+03  0.00000000000E+00 0.  1.
          6    2    1    2  502    0  0.88889047784E+02 -0.19924394581E+02 -0.17144193202E+03  0.25841454111E+03  0.17055056343E+03 0.  0.
         24    2    3    3    0    0 -0.35501689579E+01  0.13861030679E+02 -0.12046974683E+03  0.14747889573E+03  0.83859006155E+02 0.  0.
         -6    2    1    2    0  501 -0.88889047784E+02  0.19924394581E+02 -0.25168212764E+03  0.31838683869E+03  0.17241821645E+03 0.  0.
        -24    2    5    5    0    0 -0.11494493824E+03 -0.13031499666E+02 -0.13700168234E+03  0.19616288471E+03  0.79550346086E+02 0.  0.
          5    1    3    3  502    0  0.92439216742E+02 -0.33785425260E+02 -0.50972185191E+02  0.11093564538E+03  0.47000000000E+01 0. -1.
        -13    1    4    4    0    0  0.37879466509E+02 -0.31496566738E+01 -0.72450328234E+02  0.81815795427E+02  0.00000000000E+00 0.  1.
         14    1    4    4    0    0 -0.41429635467E+02  0.17010687353E+02 -0.48019418595E+02  0.65663100302E+02  0.00000000000E+00 0. -1.
         -5    1    5    5    0  501  0.26055890461E+02  0.32955894247E+02 -0.11468044530E+03  0.12222395398E+03  0.47000000000E+01 0.  1.
         13    1    6    6    0    0  0.11482156998E+02 -0.70616289776E+01 -0.93810977918E+01  0.16422896484E+02  0.00000000000E+00 0. -1.
        -14    1    6    6    0    0 -0.12642709524E+03 -0.59698706881E+01 -0.12762058455E+03  0.17973998823E+03  0.00000000000E+00 0.  1.
</event>
<event>
12    1  0.2614920E-002  0.2154782E+03  0.7818608E-02  0.1137300E+00
          2   -1    0    0  502    0  0.00000000000E+00  0.00000000000E+00  0.21499173860E+04  0.21499173860E+04  0.00000000000E+00 0. -1.
         -2   -1    0    0    0  501 -0.00000000000E+00 -0.00000000000E+00 -0.21913983858E+02  0.21913983858E+02  0.00000000000E+00 0.  1.
          6    2    1    2  502    0 -0.12667401156E+03 -0.31488317349E+02  0.93121611282E+03  0.95572357084E+03  0.17089843693E+03 0.  0.
         24    2    3    3    0    0 -0.35686977873E+02  0.88320041257E+01  0.21073356224E+03  0.22838488472E+03  0.79996603869E+02 0.  0.
         -6    2    1    2    0  501  0.12667401156E+03  0.31488317349E+02  0.11967872893E+04  0.12161077990E+04  0.17198995209E+03 0.  0.
        -24    2    5    5    0    0  0.89708321076E+01 -0.15736879940E+02  0.62931542437E+03  0.63461776022E+03  0.79835286782E+02 0.  0.
          5    1    3    3  502    0 -0.90987033691E+02 -0.40320321475E+02  0.72048255059E+03  0.72733868612E+03  0.47000000000E+01 0. -1.
        -13    1    4    4    0    0 -0.31059117621E+02  0.43264912851E+02  0.13081328123E+03  0.14123964039E+03  0.00000000000E+00 0.  1.
         14    1    4    4    0    0 -0.46278602518E+01 -0.34432908725E+02  0.79920281012E+02  0.87145244339E+02  0.00000000000E+00 0. -1.
         -5    1    5    5    0  501  0.11770317946E+03  0.47225197289E+02  0.56747186492E+03  0.58149003877E+03  0.47000000000E+01 0.  1.
         13    1    6    6    0    0  0.38454336904E+02 -0.29304196362E+02  0.32497892720E+03  0.32855558902E+03  0.00000000000E+00 0. -1.
        -14    1    6    6    0    0 -0.29483504797E+02  0.13567316421E+02  0.30433649717E+03  0.30606217120E+03  0.00000000000E+00 0.  1.
</event>
<event>
12    1  0.2614920E-002  0.1772027E+03  0.7818608E-02  0.1170538E+00
         -2   -1    0    0    0  501 -0.00000000000E+00  0.00000000000E+00  0.50908954211E+02  0.50908954211E+02  0.00000000000E+00 0.  1.
          2   -1    0    0  502    0  0.00000000000E+00 -0.00000000000E+00 -0.67075888222E+03  0.67075888222E+03  0.00000000000E+00 0. -1.
          6    2    1    2  502    0  0.13428604916E+02 -0.44775181914E+02 -0.20726187878E+03  0.27255622089E+03  0.17071690836E+03 0.  0.
         24    2    3    3    0    0 -0.11599937249E+01  0.93001903276E+01 -0.20041959761E+03  0.21593573074E+03  0.79827223282E+02 0.  0.
         -6    2    1    2    0  501 -0.13428604916E+02  0.44775181914E+02 -0.41258804923E+03  0.44911161555E+03  0.17113503589E+03 0.  0.
        -24    2    5    5    0    0  0.35077233786E+02  0.28613945199E+02 -0.12681999770E+03  0.15876790331E+03  0.84111622950E+02 0.  0.
          5    1    3    3  502    0  0.14588598641E+02 -0.54075372241E+02 -0.68422811749E+01  0.56620490151E+02  0.47000000000E+01 0. -1.
        -11    1    4    4    0    0 -0.16001435716E+02  0.95113811134E+01 -0.41066389407E+01  0.19062444729E+02  0.00000000000E+00 0.  1.
         12    1    4    4    0    0  0.14841441991E+02 -0.21119078581E+00 -0.19631295867E+03  0.19687328601E+03  0.00000000000E+00 0. -1.
         -5    1    5    5    0  501 -0.48505838702E+02  0.16161236714E+02 -0.28576805153E+03  0.29034371224E+03  0.47000000000E+01 0.  1.
         13    1    6    6    0    0  0.41341854606E+02 -0.20347643053E+02 -0.64491586308E+02  0.79261215135E+02  0.00000000000E+00 0. -1.
        -14    1    6    6    0    0 -0.62646208205E+01  0.48961588252E+02 -0.62328411390E+02  0.79506688175E+02  0.00000000000E+00 0.  1.
</event>
<event>
12    1  0.2614920E-002  0.1878061E+03  0.7818608E-02  0.1160455E+00
          1   -1    0    0  502    0  0.00000000000E+00  0.00000000000E+00  0.46551428578E+03  0.46551428578E+03  0.00000000000E+00 0. -1.
         -1   -1    0    0    0  501 -0.00000000000E+00 -0.00000000000E+00 -0.85508915283E+02  0.85508915283E+02  0.00000000000E+00 0.  1.
          6    2    1    2  502    0 -0.40963946625E+02  0.67275415509E+02  0.98494248579E+02  0.21350737838E+03  0.17227959010E+03 0.  0.
         24    2    3    3    0    0 -0.90294214685E+02  0.37803186523E+02  0.42840173284E+02  0.13337278083E+03  0.79817868318E+02 0.  0.
         -6    2    1    2    0  501  0.40963946625E+02 -0.67275415509E+02  0.28151112191E+03  0.33751582267E+03  0.16871393641E+03 0.  0.
        -24    2    5    5    0    0 -0.41776767846E+01 -0.79464051944E+02  0.26493112121E+03  0.28768294753E+03  0.78999941624E+02 0.  0.
          5    1    3    3  502    0  0.49330268059E+02  0.29472228986E+02  0.55654075294E+02  0.80134597554E+02  0.47000000000E+01 0. -1.
        -13    1    4    4    0    0 -0.46429613524E+02  0.57222552587E+02  0.80783160877E+01  0.74130889158E+02  0.00000000000E+00 0.  1.
         14    1    4    4    0    0 -0.43864601161E+02 -0.19419366063E+02  0.34761857197E+02  0.59241891674E+02  0.00000000000E+00 0. -1.
         -5    1    5    5    0  501  0.45141623410E+02  0.12188636435E+02  0.16580000703E+02  0.49832875148E+02  0.47000000000E+01 0.  1.
         13    1    6    6    0    0  0.22946963358E+02 -0.55734240411E+02  0.22897207690E+03  0.23677221265E+03  0.00000000000E+00 0. -1.
        -14    1    6    6    0    0 -0.27124640142E+02 -0.23729811533E+02  0.35959044310E+02  0.50910734879E+02  0.00000000000E+00 0.  1.
</event>
<event>
12    1  0.2614920E-002  0.2015151E+03  0.7818608E-02  0.1148467E+00
         -2   -1    0    0    0  501 -0.00000000000E+00  0.00000000000E+00  0.31823791560E+02  0.31823791560E+02  0.00000000000E+00 0.  1.
          2   -1    0    0  502    0  0.00000000000E+00 -0.00000000000E+00 -0.19996518678E+04  0.19996518678E+04  0.00000000000E+00 0. -1.
          6    2    1    2  502    0  0.83860848013E+02  0.81545135552E+02 -0.15710790852E+04  0.15830493794E+04  0.15515667799E+03 0.  0.
         24    2    3    3    0    0  0.45369146544E+02  0.10882195826E+03 -0.13071867445E+04  0.13149320663E+04  0.80053580637E+02 0.  0.
         -6    2    1    2    0  501 -0.83860848013E+02 -0.81545135552E+02 -0.39674899103E+03  0.44842627995E+03  0.17318809341E+03 0.  0.
        -24    2    5    5    0    0 -0.86316963660E+02 -0.64200572770E+02 -0.40643688185E+03  0.42786389704E+03  0.79399267683E+02 0.  0.
          5    1    3    3  502    0  0.38491701470E+02 -0.27276822711E+02 -0.26389234068E+03  0.26811731315E+03  0.47000000000E+01 0. -1.
        -13    1    4    4    0    0 -0.20000871727E+02  0.68181458116E+01 -0.22197193640E+03  0.22297547517E+03  0.00000000000E+00 0.  1.
         14    1    4    4    0    0  0.65370018270E+02  0.10200381245E+03 -0.10852148081E+04  0.10919565911E+04  0.00000000000E+00 0. -1.
         -5    1    5    5    0  501  0.24561156464E+01 -0.17344562783E+02  0.96878908150E+01  0.20562382903E+02  0.47000000000E+01 0.  1.
         13    1    6    6    0    0 -0.54964879997E+02 -0.65804633183E+00 -0.25233150947E+03  0.25824941767E+03  0.00000000000E+00 0. -1.
        -14    1    6    6    0    0 -0.31352083662E+02 -0.63542526438E+02 -0.15410537238E+03  0.16961447937E+03  0.00000000000E+00 0.  1.
</event>
<event>
12    1  0.2614920E-002  0.2197378E+03  0.7818608E-02  0.1134079E+00
         -3   -1    0    0    0  501 -0.00000000000E+00  0.00000000000E+00  0.77075495039E+02  0.77075495039E+02  0.00000000000E+00 0. -1.
          3   -1    0    0  502    0  0.00000000000E+00 -0.00000000000E+00 -0.79507186264E+03  0.79507186264E+03  0.00000000000E+00 0.  1.
          6    2    1    2  502    0 -0.11735506705E+03  0.70538988403E+02 -0.15866199334E+03  0.27133447503E+03  0.17233922525E+03 0.  0.
         24    2    3    3    0    0 -0.21342673968E+02 -0.89846393731E+01 -0.10878595990E+03  0.13697638739E+03  0.79949434991E+02 0.  0.
         -6    2    1    2    0  501  0.11735506705E+03 -0.70538988403E+02 -0.55933437426E+03  0.60081288266E+03  0.17138616364E+03 0.  0.
        -24    2    5    5    0    0  0.38515362867E+02 -0.93929839727E+02 -0.25820209416E+03  0.28861811812E+03  0.79535204232E+02 0.  0.
          5    1    3    3  502    0 -0.96012393084E+02  0.79523627776E+02 -0.49876033442E+02  0.13435808763E+03  0.47000000000E+01 0. -1.
        -13    1    4    4    0    0 -0.97700763722E+01  0.12235871642E+02 -0.11155392900E+03  0.11264745902E+03  0.00000000000E+00 0.  1.
         14    1    4    4    0    0 -0.11572597596E+02 -0.21220511015E+02  0.27679691053E+01  0.24328928374E+02  0.00000000000E+00 0. -1.
         -5    1    5    5    0  501  0.78839704185E+02  0.23390851325E+02 -0.30113228011E+03  0.31219476454E+03  0.47000000000E+01 0.  1.
         11    1    6    6    0    0  0.27649769195E+02 -0.50159781418E+02 -0.22614903319E+03  0.23328930241E+03  0.00000000000E+00 0. -1.
        -12    1    6    6    0    0  0.10865593672E+02 -0.43770058310E+02 -0.32053060973E+02  0.55328815711E+02  0.00000000000E+00 0.  1.
</event>
<event>
12    1  0.2614920E-002  0.2415486E+03  0.7818608E-02  0.1118765E+00
          2   -1    0    0  502    0  0.00000000000E+00  0.00000000000E+00  0.54011210773E+03  0.54011210773E+03  0.00000000000E+00 0.  1.
         -2   -1    0    0    0  501 -0.00000000000E+00 -0.00000000000E+00 -0.11213680097E+03  0.11213680097E+03  0.00000000000E+00 0. -1.
          6    2    1    2  502    0 -0.79394694426E+02  0.15366496232E+03  0.27810411070E+03  0.36969535015E+03  0.17151185787E+03 0.  0.
         24    2    3    3    0    0  0.26697481543E+02  0.81666679757E+02  0.13433869137E+03  0.17700417680E+03  0.76820521360E+02 0.  0.
         -6    2    1    2    0  501  0.79394694426E+02 -0.15366496232E+03  0.14987119607E+03  0.28255355856E+03  0.16570666823E+03 0.  0.
        -24    2    5    5    0    0  0.11868495150E+03 -0.12458930924E+03  0.12754382797E+03  0.22861174482E+03  0.79920511308E+02 0.  0.
          5    1    3    3  502    0 -0.10609217597E+03  0.71998282564E+02  0.14376541933E+03  0.19269117335E+03  0.47000000000E+01 0. -1.
        -13    1    4    4    0    0 -0.36507451333E-01  0.71480919836E+02  0.48134771260E+02  0.86177023838E+02  0.00000000000E+00 0.  1.
         14    1    4    4    0    0  0.26733988994E+02  0.10185759921E+02  0.86203920107E+02  0.90827152958E+02  0.00000000000E+00 0. -1.
         -5    1    5    5    0  501 -0.39290257073E+02 -0.29075653079E+02  0.22327368092E+02  0.53941813732E+02  0.47000000000E+01 0.  1.
         11    1    6    6    0    0  0.27122053801E+02 -0.43367083754E+02 -0.94281448744E+00  0.51158563847E+02  0.00000000000E+00 0. -1.
        -12    1    6    6    0    0  0.91562897698E+02 -0.81222225488E+02  0.12848664246E+03  0.17745318098E+03  0.00000000000E+00 0.  1.
</event>
<event>
12    1  0.2614920E-002  0.2327629E+03  0.7818608E-02  0.1124710E+00
         -1   -1    0    0    0  501 -0.00000000000E+00  0.00000000000E+00  0.25528462009E+03  0.25528462009E+03  0.00000000000E+00 0. -1.
          1   -1    0    0  502    0  0.00000000000E+00 -0.00000000000E+00 -0.35666931749E+03  0.35666931749E+03  0.00000000000E+00 0.  1.
          6    2    1    2  502    0 -0.10679843215E+03  0.11485362139E+03 -0.24536384718E+03  0.33797036411E+03  0.17153218373E+03 0.  0.
         24    2    3    3    0    0 -0.58608909076E+02  0.18428797731E+02 -0.45023754773E+02  0.11042208488E+03  0.79945440941E+02 0.  0.
         -6    2    1    2    0  501  0.10679843215E+03 -0.11485362139E+03  0.14397914978E+03  0.27398357347E+03  0.17245214844E+03 0.  0.
        -24    2    5    5    0    0  0.42322809481E+02 -0.11463811230E+03  0.39255560977E+02  0.15091338042E+03  0.79377152440E+02 0.  0.
          5    1    3    3  502    0 -0.48189523076E+02  0.96424823657E+02 -0.20034009241E+03  0.22754827922E+03  0.47000000000E+01 0. -1.
        -11    1    4    4    0    0 -0.59815450721E+02  0.16459253829E+02 -0.65266920126E+02  0.90047576560E+02  0.00000000000E+00 0.  1.
         12    1    4    4    0    0  0.12065416450E+01  0.19695439021E+01  0.20243165353E+02  0.20374508323E+02  0.00000000000E+00 0. -1.
         -5    1    5    5    0  501  0.64475622671E+02 -0.21550908850E+00  0.10472358881E+03  0.12307019304E+03  0.47000000000E+01 0.  1.
         11    1    6    6    0    0 -0.67738140665E+01 -0.86426047864E+02  0.10259691713E+02  0.87296091439E+02  0.00000000000E+00 0. -1.
        -12    1    6    6    0    0  0.49096623548E+02 -0.28212064436E+02  0.28995869264E+02  0.63617288986E+02  0.00000000000E+00 0.  1.
</event>
<event>
12    1  0.2614920E-002  0.2143141E+03  0.7818608E-02  0.1138195E+00
          2   -1    0    0  502    0  0.00000000000E+00  0.00000000000E+00  0.14373687073E+04  0.14373687073E+04  0.00000000000E+00 0.  1.
         -2   -1    0    0    0  501 -0.00000000000E+00 -0.00000000000E+00 -0.32563585314E+02  0.32563585314E+02  0.00000000000E+00 0. -1.
          6    2    1    2  502    0  0.70578638489E+02  0.92652478998E+02  0.58250547616E+03  0.61836748628E+03  0.17175532672E+03 0.  0.
         24    2    3    3    0    0  0.32320557673E+02  0.57241479810E+02  0.54297381022E+03  0.55277432945E+03  0.80110518988E+02 0.  0.
         -6    2    1    2    0  501 -0.70578638489E+02 -0.92652478998E+02  0.82229964579E+03  0.85156480630E+03  0.18820224701E+03 0.  0.
        -24    2    5    5    0    0  0.40928055505E+02 -0.42463611545E+02  0.37684771072E+03  0.38961006644E+03  0.79394853491E+02 0.  0.
          5    1    3    3  502    0  0.38258080816E+02  0.35410999187E+02  0.39531665937E+02  0.65593156830E+02  0.47000000000E+01 0. -1.
        -13    1    4    4    0    0 -0.15992214545E+02  0.12751050211E+02  0.31129245625E+03  0.31196367341E+03  0.00000000000E+00 0.  1.
         14    1    4    4    0    0  0.48312772219E+02  0.44490429600E+02  0.23168135397E+03  0.24081065604E+03  0.00000000000E+00 0. -1.
         -5    1    5    5    0  501 -0.11150669399E+03 -0.50188867452E+02  0.44545193508E+03  0.46195473987E+03  0.47000000000E+01 0.  1.
         11    1    6    6    0    0 -0.20341378418E+01  0.13636596596E+02  0.17886427189E+03  0.17939487797E+03  0.00000000000E+00 0. -1.
        -12    1    6    6    0    0  0.42962193347E+02 -0.56100208142E+02  0.19798343883E+03  0.21021518847E+03  0.00000000000E+00 0.  1.
</event>
<event>
12    1  0.2614920E-002  0.1763370E+03  0.7818608E-02  0.1171396E+00
         -1   -1    0    0    0  501 -0.00000000000E+00  0.00000000000E+00  0.22923763706E+03  0.22923763706E+03  0.00000000000E+00 0. -1.
          1   -1    0    0  502    0  0.00000000000E+00 -0.00000000000E+00 -0.14134684800E+03  0.14134684800E+03  0.00000000000E+00 0.  1.
          6    2    1    2  502    0 -0.53252487146E+02 -0.44842899578E+02  0.57964646346E+01  0.16746052207E+03  0.15219301698E+03 0.  0.
         24    2    3    3    0    0 -0.50774289650E+02 -0.61806107689E+02 -0.38397925686E+02  0.11982517775E+03  0.80533527729E+02 0.  0.
         -6    2    1    2    0  501  0.53252487146E+02  0.44842899578E+02  0.82094324426E+02  0.20312396300E+03  0.17225897136E+03 0.  0.
        -24    2    5    5    0    0  0.77999372690E+01  0.27628198273E+02 -0.21803572643E+02  0.88323513323E+02  0.80631822902E+02 0.  0.
          5    1    3    3  502    0 -0.24781974962E+01  0.16963208111E+02  0.44194390321E+02  0.47635344316E+02  0.47000000000E+01 0. -1.
        -13    1    4    4    0    0 -0.40222066639E+02 -0.23001115998E+02  0.18718123291E+02  0.49972333560E+02  0.00000000000E+00 0.  1.
         14    1    4    4    0    0 -0.10552223011E+02 -0.38804991691E+02 -0.57116048977E+02  0.69852844190E+02  0.00000000000E+00 0. -1.
         -5    1    5    5    0  501  0.45452549877E+02  0.17214701305E+02  0.10389789707E+03  0.11480044968E+03  0.47000000000E+01 0.  1.
         11    1    6    6    0    0  0.29635413205E+02 -0.14178167336E+01  0.17780623030E+02  0.34589282667E+02  0.00000000000E+00 0. -1.
        -12    1    6    6    0    0 -0.21835475936E+02  0.29046015007E+02 -0.39584195673E+02  0.53734230656E+02  0.00000000000E+00 0.  1.
</event>
<event>
12    1  0.2614920E-002  0.3815957E+03  0.7818608E-02  0.1050346E+00
          2   -1    0    0  502    0  0.00000000000E+00  0.00000000000E+00  0.11925905186E+04  0.11925905186E+04  0.00000000000E+00 0. -1.
         -2   -1    0    0    0  501 -0.00000000000E+00 -0.00000000000E+00 -0.12357157665E+03  0.12357157665E+03  0.00000000000E+00 0.  1.
          6    2    1    2  502    0  0.21103003193E+03 -0.26783715164E+03  0.60665065066E+03  0.71681273883E+03  0.17182862517E+03 0.  0.
         24    2    3    3    0    0  0.84518895875E+02 -0.53378490411E+02  0.26375724202E+03  0.29302556983E+03  0.79393922033E+02 0.  0.
         -6    2    1    2    0  501 -0.21103003193E+03  0.26783715164E+03  0.46236829129E+03  0.59934935641E+03  0.17077704783E+03 0.  0.
        -24    2    5    5    0    0 -0.11959436097E+03  0.73497388600E+02  0.14553098936E+03  0.21654863630E+03  0.77520098767E+02 0.  0.
          5    1    3    3  502    0  0.12651113606E+03 -0.21445866123E+03  0.34289340864E+03  0.42378716900E+03  0.47000000000E+01 0. -1.
        -11    1    4    4    0    0 -0.10893584019E+02  0.37410542450E+01  0.76761558249E+01  0.13841568838E+02  0.00000000000E+00 0.  1.
         12    1    4    4    0    0  0.95412479894E+02 -0.57119544656E+02  0.25608108620E+03  0.27918400099E+03  0.00000000000E+00 0. -1.
         -5    1    5    5    0  501 -0.91435670960E+02  0.19433976304E+03  0.31683730193E+03  0.38280072011E+03  0.47000000000E+01 0.  1.
         13    1    6    6    0    0 -0.20974470093E+02  0.56401694484E+02  0.51152227363E+02  0.78978667376E+02  0.00000000000E+00 0. -1.
        -14    1    6    6    0    0 -0.98619890877E+02  0.17095694117E+02  0.94378761994E+02  0.13756996892E+03  0.00000000000E+00 0.  1.
</event>
<event>
12    1  0.2614920E-002  0.2261548E+03  0.7818608E-02  0.1129376E+00
         -1   -1    0    0    0  501 -0.00000000000E+00  0.00000000000E+00  0.47914779110E+02  0.47914779110E+02  0.00000000000E+00 0.  1.
          1   -1    0    0  502    0  0.00000000000E+00 -0.00000000000E+00 -0.20393230928E+04  0.20393230928E+04  0.00000000000E+00 0. -1.
          6    2    1    2  502    0  0.72715027476E+02  0.12889163583E+03 -0.27368592989E+03  0.35460257976E+03  0.17011311632E+03 0.  0.
         24    2    3    3    0    0 -0.34659519187E+02  0.75706667203E+02 -0.81332370302E+02  0.12793119637E+03  0.53091005051E+02 0.  0.
         -6    2    1    2    0  501 -0.72715027476E+02 -0.12889163583E+03 -0.17177223838E+04  0.17326352921E+04  0.17191375394E+03 0.  0.
        -24    2    5    5    0    0 -0.49468879425E+02 -0.37341848350E+02 -0.13157399971E+04  0.13196780592E+04  0.80850828294E+02 0.  0.
          5    1    3    3  502    0  0.10737454666E+03  0.53184968628E+02 -0.19235355959E+03  0.22667138338E+03  0.47000000000E+01 0. -1.
        -13    1    4    4    0    0 -0.34683282004E+02  0.27696537526E+02 -0.16709763092E+02  0.47426199764E+02  0.00000000000E+00 0.  1.
         14    1    4    4    0    0  0.23762817915E-01  0.48010129677E+02 -0.64622607210E+02  0.80504996608E+02  0.00000000000E+00 0. -1.
         -5    1    5    5    0  501 -0.23246148051E+02 -0.91549787481E+02 -0.40198238673E+03  0.41295723293E+03  0.47000000000E+01 0.  1.
         11    1    6    6    0    0 -0.27018443775E+02 -0.36160175785E+02 -0.12361492475E+04  0.12369731269E+04  0.00000000000E+00 0. -1.
        -12    1    6    6    0    0 -0.22450435650E+02 -0.11816725646E+01 -0.79590749572E+02  0.82704932310E+02  0.00000000000E+00 0.  1.
</event>
<event>
12    1  0.2614920E-002  0.2641066E+03  0.7818608E-02  0.1104701E+00
          2   -1    0    0  502    0  0.00000000000E+00  0.00000000000E+00  0.68025391628E+03  0.68025391628E+03  0.00000000000E+00 0. -1.
         -2   -1    0    0    0  501 -0.00000000000E+00 -0.00000000000E+00 -0.10284640860E+03  0.10284640860E+03  0.00000000000E+00 0.  1.
          6    2    1    2  502    0  0.17678041736E+03  0.94700921763E+02  0.30943248018E+03  0.40641860822E+03  0.17090361253E+03 0.  0.
         24    2    3    3    0    0  0.46746724454E+02  0.70140360957E+02  0.21175929539E+03  0.24187644504E+03  0.80977089355E+02 0.  0.
         -6    2    1    2    0  501 -0.17678041736E+03 -0.94700921763E+02  0.26797502749E+03  0.37668171665E+03  0.17279733725E+03 0.  0.
        -24    2    5    5    0    0 -0.14718747586E+03 -0.54292501040E+02  0.27449093389E+03  0.32595569091E+03  0.79309589122E+02 0.  0.
          5    1    3    3  502    0  0.13003369290E+03  0.24560560806E+02  0.97673184793E+02  0.16454216318E+03  0.47000000000E+01 0. -1.
        -13    1    4    4    0    0 -0.27279994286E+01  0.46667863216E+02  0.39756630130E+02  0.61367100936E+02  0.00000000000E+00 0.  1.
         14    1    4    4    0    0  0.49474723883E+02  0.23472497741E+02  0.17200266526E+03  0.18050934411E+03  0.00000000000E+00 0. -1.
         -5    1    5    5    0  501 -0.29592941495E+02 -0.40408420723E+02 -0.65159064032E+01  0.50726025745E+02  0.47000000000E+01 0.  1.
         11    1    6    6    0    0 -0.13857240660E+03 -0.25974746109E+02  0.19118268245E+03  0.23754540066E+03  0.00000000000E+00 0. -1.
        -12    1    6    6    0    0 -0.86150692563E+01 -0.28317754931E+02  0.83308251447E+02  0.88410290249E+02  0.00000000000E+00 0.  1.
</event>
