<event>
12    1  0.8500177E-002  0.1894403E+03  0.7818608E-02  0.1159787E+00
         21   -1    0    0  501  502  0.00000000000E+00  0.00000000000E+00  0.23935294489E+03  0.23935294489E+03  0.00000000000E+00 0.  1.
         21   -1    0    0  502  503 -0.00000000000E+00 -0.00000000000E+00 -0.39461159604E+03  0.39461159604E+03  0.00000000000E+00 0. -1.
         -6    2    1    2    0  503  0.53528938083E+02  0.59415133793E+02 -0.32893749171E+03  0.37958858211E+03  0.17173267854E+03 0.  0.
        -24    2    3    3    0    0  0.80988343906E+02 -0.97978732537E+01 -0.18145638327E+03  0.21430934367E+03  0.79667845364E+02 0.  0.
          6    2    1    2  501    0 -0.53528938083E+02 -0.59415133793E+02  0.17367884057E+03  0.25437595882E+03  0.16777152151E+03 0.  0.
         24    2    5    5    0    0 -0.99681204848E+02 -0.28635813399E+02  0.12208739320E+03  0.17847361542E+03  0.78683844693E+02 0.  0.
          5    1    5    5  501    0  0.46152266766E+02 -0.30779320394E+02  0.51591447370E+02  0.75902343398E+02  0.47000000000E+01 0. -1.
        -13    1    6    6    0    0 -0.71451508126E+02  0.15628285083E+02  0.47314025145E+02  0.87110150290E+02  0.00000000000E+00 0.  1.
         14    1    6    6    0    0 -0.28229696722E+02 -0.44264098481E+02  0.74773368050E+02  0.91363465132E+02  0.00000000000E+00 0. -1.
         -5    1    3    3    0  503 -0.27459405823E+02  0.69213007046E+02 -0.14748110844E+03  0.16527923844E+03  0.47000000000E+01 0.  1.
         11    1    4    4    0    0  0.58790867997E+02 -0.25011632177E+02 -0.17547173126E+03  0.18674120160E+03  0.00000000000E+00 0. -1.
        -12    1    4    4    0    0  0.22197475908E+02  0.15213758924E+02 -0.59846520096E+01  0.27568142066E+02  0.00000000000E+00 0.  1.
</event>
<event>
12    1  0.8500177E-002  0.1908039E+03  0.7818608E-02  0.1158113E+00
         21   -1    0    0  503  502  0.00000000000E+00  0.00000000000E+00  0.23881866541E+04  0.23881866541E+04  0.00000000000E+00 0.  1.
         21   -1    0    0  501  503 -0.00000000000E+00 -0.00000000000E+00 -0.32583793815E+02  0.32583793815E+02  0.00000000000E+00 0. -1.
          6    2    1    2  501    0 -0.20067156057E+02 -0.80782042494E+02  0.29386569712E+03  0.35037575699E+03  0.17169069283E+03 0.  0.
         24    2    3    3    0    0 -0.47651010965E+02 -0.16119220549E+02  0.88639103603E+02  0.13339143894E+03  0.86057754900E+02 0.  0.
         -6    2    1    2    0  502  0.20067156057E+02  0.80782042494E+02  0.20617371632E+04  0.20703946909E+04  0.16983997492E+03 0.  0.
        -24    2    5    5    0    0  0.63726502251E+02  0.61698271176E+02  0.18232841136E+04  0.18271822823E+04  0.79764592799E+02 0.  0.
          5    1    3    3  501    0  0.27583854907E+02 -0.64662821945E+02  0.20522659352E+03  0.21698431805E+03  0.47000000000E+01 0. -1.
        -13    1    4    4    0    0 -0.17601011490E+02 -0.19663185780E+02  0.98179792819E+02  0.10166468511E+03  0.00000000000E+00 0.  1.
         14    1    4    4    0    0 -0.30049999475E+02  0.35439652312E+01 -0.95406892163E+01  0.31726753832E+02  0.00000000000E+00 0. -1.
         -5    1    5    5    0  502 -0.43659346194E+02  0.19083771318E+02  0.23845304961E+03  0.24321240861E+03  0.47000000000E+01 0.  1.
         13    1    6    6    0    0  0.58616968749E+02  0.77151701206E+02  0.12832011700E+04  0.12868541396E+04  0.00000000000E+00 0. -1.
        -14    1    6    6    0    0  0.51095335022E+01 -0.15453430030E+02  0.54008294359E+03  0.54032814270E+03  0.00000000000E+00 0.  1.
</event>
<event>
12    1  0.8500177E-002  0.1814301E+03  0.7818608E-02  0.1166852E+00
         21   -1    0    0  501  502  0.00000000000E+00  0.00000000000E+00  0.20967339426E+04  0.20967339426E+04  0.00000000000E+00 0. -1.
         21   -1    0    0  502  503 -0.00000000000E+00 -0.00000000000E+00 -0.17720101246E+02  0.17720101246E+02  0.00000000000E+00 0. -1.
         -6    2    1    2    0  503  0.15751575059E+02 -0.49615239840E+02  0.67370541917E+03  0.69770758476E+03  0.17380189259E+03 0.  0.
        -24    2    3    3    0    0  0.48906869490E+02 -0.63920136977E+02  0.30118347101E+03  0.32341011550E+03  0.86052041253E+02 0.  0.
          6    2    1    2  501    0 -0.15751575059E+02  0.49615239840E+02  0.14053084222E+04  0.14167464591E+04  0.17195634254E+03 0.  0.
         24    2    5    5    0    0 -0.63562786571E+02  0.60804845429E+02  0.87380622699E+03  0.88296017909E+03  0.91344942210E+02 0.  0.
          5    1    5    5  501    0  0.47811211512E+02 -0.11189605589E+02  0.53150219524E+03  0.53378628004E+03  0.47000000000E+01 0. -1.
        -13    1    6    6    0    0 -0.55953803501E+00 -0.17327829655E+02  0.47212628197E+02  0.50295119292E+02  0.00000000000E+00 0.  1.
         14    1    6    6    0    0 -0.63003248536E+02  0.78132675084E+02  0.82659359880E+03  0.83266505980E+03  0.00000000000E+00 0. -1.
         -5    1    3    3    0  503 -0.33155294431E+02  0.14304897137E+02  0.37252194816E+03  0.37429746925E+03  0.47000000000E+01 0.  1.
         13    1    4    4    0    0  0.87095786948E+01 -0.37490015629E+02  0.32267821186E+02  0.50225196037E+02  0.00000000000E+00 0. -1.
        -14    1    4    4    0    0  0.40197290795E+02 -0.26430121349E+02  0.26891564983E+03  0.27318491947E+03  0.00000000000E+00 0.  1.
</event>
<event>
12    1  0.8500177E-002  0.1994661E+03  0.7818608E-02  0.1150276E+00
         21   -1    0    0  501  502  0.00000000000E+00  0.00000000000E+00  0.25631501079E+03  0.25631501079E+03  0.00000000000E+00 0. -1.
         21   -1    0    0  502  503 -0.00000000000E+00 -0.00000000000E+00 -0.17557031189E+03  0.17557031189E+03  0.00000000000E+00 0. -1.
         -6    2    1    2    0  503 -0.16649233637E+02  0.97592086662E+02  0.11441105643E+03  0.22959798406E+03  0.17269606855E+03 0.  0.
        -24    2    3    3    0    0 -0.71980245435E+02  0.81126303745E+02  0.10492779913E+03  0.17090671518E+03  0.80228606949E+02 0.  0.
          6    2    1    2  501    0  0.16649233637E+02 -0.97592086662E+02 -0.33666357530E+02  0.20228733862E+03  0.17316273091E+03 0.  0.
         24    2    5    5    0    0 -0.77714708604E+01 -0.84446813888E+02  0.40487606922E+02  0.12297738055E+03  0.79325466766E+02 0.  0.
          5    1    5    5  501    0  0.24420704497E+02 -0.13145272774E+02 -0.74153964452E+02  0.79309958065E+02  0.47000000000E+01 0. -1.
        -13    1    6    6    0    0 -0.41063747565E+02 -0.43257010060E+02  0.63829947076E+01  0.59984522211E+02  0.00000000000E+00 0.  1.
         14    1    6    6    0    0  0.33292276704E+02 -0.41189803828E+02  0.34104612214E+02  0.62992858340E+02  0.00000000000E+00 0. -1.
         -5    1    3    3    0  503  0.55331011798E+02  0.16465782917E+02  0.94832572997E+01  0.58691268879E+02  0.47000000000E+01 0.  1.
         13    1    4    4    0    0 -0.26802085884E+02  0.75675967437E+02  0.94911455030E+02  0.12431165734E+03  0.00000000000E+00 0. -1.
        -14    1    4    4    0    0 -0.45178159551E+02  0.54503363082E+01  0.10016344100E+02  0.46595057843E+02  0.00000000000E+00 0.  1.
</event>
<event>
12    1  0.8500177E-002  0.1853932E+03  0.7818608E-02  0.1162798E+00
         21   -1    0    0  503  502  0.00000000000E+00  0.00000000000E+00  0.15391649421E+03  0.15391649421E+03  0.00000000000E+00 0. -1.
         21   -1    0    0  501  503 -0.00000000000E+00 -0.00000000000E+00 -0.49833030566E+03  0.49833030566E+03  0.00000000000E+00 0. -1.
          6    2    1    2  501    0  0.13769680019E+02  0.68946152646E+02 -0.41464032809E+03  0.45399844505E+03  0.17101114108E+03 0.  0.
         24    2    3    3    0    0  0.68090315982E+02  0.54103631625E+02 -0.18864509100E+03  0.22104572644E+03  0.75569496038E+02 0.  0.
         -6    2    1    2    0  502 -0.13769680019E+02 -0.68946152646E+02  0.70226516647E+02  0.19824835481E+03  0.17154436887E+03 0.  0.
        -24    2    5    5    0    0 -0.45786789447E+02 -0.91432600951E+02  0.16097993104E+02  0.13129521661E+03  0.80764707137E+02 0.  0.
          5    1    3    3  501    0 -0.54320635963E+02  0.14842521022E+02 -0.22599523709E+03  0.23295271862E+03  0.47000000000E+01 0. -1.
        -13    1    4    4    0    0  0.64072622704E+02  0.28354817844E+02 -0.68073045985E+02  0.97689489019E+02  0.00000000000E+00 0.  1.
         14    1    4    4    0    0  0.40176932778E+01  0.25748813781E+02 -0.12057204502E+03  0.12335623742E+03  0.00000000000E+00 0. -1.
         -5    1    5    5    0  502  0.32017109429E+02  0.22486448305E+02  0.54128523544E+02  0.66953138198E+02  0.47000000000E+01 0.  1.
         13    1    6    6    0    0  0.32159366698E+01 -0.62568064627E+02 -0.17745164492E+02  0.65115250308E+02  0.00000000000E+00 0. -1.
        -14    1    6    6    0    0 -0.49002726117E+02 -0.28864536324E+02  0.33843157595E+02  0.66179966305E+02  0.00000000000E+00 0.  1.
</event>
<event>
12    1  0.8500177E-002  0.2736719E+03  0.7818608E-02  0.1099281E+00
         21   -1    0    0  501  502  0.00000000000E+00  0.00000000000E+00  0.19327360768E+04  0.19327360768E+04  0.00000000000E+00 0. -1.
         21   -1    0    0  502  503 -0.00000000000E+00 -0.00000000000E+00 -0.58678086582E+02  0.58678086582E+02  0.00000000000E+00 0. -1.
         -6    2    1    2    0  503  0.63962886173E+02 -0.20295629809E+03  0.35487685685E+03  0.44777961618E+03  0.17113296410E+03 0.  0.
        -24    2    3    3    0    0  0.44103685931E+02 -0.27422106002E+02  0.15062688448E+03  0.17769299742E+03  0.78671697524E+02 0.  0.
          6    2    1    2  501    0 -0.63962886173E+02  0.20295629809E+03  0.15191811334E+04  0.15436345472E+04  0.17208657583E+03 0.  0.
         24    2    5    5    0    0 -0.43486381869E+02  0.21379298164E+03  0.11210921692E+04  0.11448443337E+04  0.78882141833E+02 0.  0.
          5    1    5    5  501    0 -0.20476504304E+02 -0.10836683551E+02  0.39808896420E+03  0.39879021347E+03  0.47000000000E+01 0. -1.
        -11    1    6    6    0    0 -0.43019511943E+02  0.59953652989E+02  0.26706930346E+03  0.27707603968E+03  0.00000000000E+00 0.  1.
         12    1    6    6    0    0 -0.46686992655E+00  0.15383932865E+03  0.85402286571E+03  0.86776829405E+03  0.00000000000E+00 0. -1.
         -5    1    3    3    0  503  0.19859200241E+02 -0.17553419209E+03  0.20424997237E+03  0.27008661877E+03  0.47000000000E+01 0.  1.
         13    1    4    4    0    0  0.46318873651E+02 -0.51162275419E+02  0.97427960837E+02  0.11939524293E+03  0.00000000000E+00 0. -1.
        -14    1    4    4    0    0 -0.22151877197E+01  0.23740169417E+02  0.53198923646E+02  0.58297754482E+02  0.00000000000E+00 0.  1.
</event>
<event>
12    1  0.8500177E-002  0.1948707E+03  0.7818608E-02  0.1154455E+00
         21   -1    0    0  503  502  0.00000000000E+00  0.00000000000E+00  0.82095107901E+02  0.82095107901E+02  0.00000000000E+00 0.  1.
         21   -1    0    0  501  503 -0.00000000000E+00 -0.00000000000E+00 -0.50080493319E+03  0.50080493319E+03  0.00000000000E+00 0.  1.
          6    2    1    2  501    0  0.86150071348E+02 -0.31630112085E+02 -0.12602288142E+03  0.23206972691E+03  0.17190780297E+03 0.  0.
         24    2    3    3    0    0 -0.53166193198E+01  0.35051460486E+02 -0.41918415316E+02  0.90973168336E+02  0.72540281853E+02 0.  0.
         -6    2    1    2    0  502 -0.86150071348E+02  0.31630112085E+02 -0.29268694387E+03  0.35083031418E+03  0.17027613883E+03 0.  0.
        -24    2    5    5    0    0 -0.69965821390E+02  0.40663313306E+02 -0.96713038709E+02  0.15392579373E+03  0.88266737265E+02 0.  0.
          5    1    3    3  501    0  0.91466690667E+02 -0.66681572570E+02 -0.84104466106E+02  0.14109655857E+03  0.47000000000E+01 0. -1.
        -11    1    4    4    0    0  0.29827588769E+02 -0.99511855514E+00 -0.10536607803E+02  0.31649572141E+02  0.00000000000E+00 0.  1.
         12    1    4    4    0    0 -0.35144208089E+02  0.36046579041E+02 -0.31381807512E+02  0.59323596195E+02  0.00000000000E+00 0. -1.
         -5    1    5    5    0  502 -0.16184249957E+02 -0.90332012214E+01 -0.19597390516E+03  0.19690452045E+03  0.47000000000E+01 0.  1.
         13    1    6    6    0    0  0.16780116880E+02  0.16283939923E+02 -0.43212426930E+02  0.49133011948E+02  0.00000000000E+00 0. -1.
        -14    1    6    6    0    0 -0.86745938270E+02  0.24379373383E+02 -0.53500611779E+02  0.10479278178E+03  0.00000000000E+00 0.  1.
</event>
<event>
12    1  0.8500177E-002  0.3026423E+03  0.7818608E-02  0.1084008E+00
         21   -1    0    0  503  502  0.00000000000E+00  0.00000000000E+00  0.44231676644E+03  0.44231676644E+03  0.00000000000E+00 0. -1.
         21   -1    0    0  501  503 -0.00000000000E+00 -0.00000000000E+00 -0.22415234311E+03  0.22415234311E+03  0.00000000000E+00 0. -1.
          6    2    1    2  501    0 -0.80543751206E+02 -0.23513546862E+03  0.15796687885E+02  0.30240175048E+03  0.17152637956E+03 0.  0.
         24    2    3    3    0    0 -0.11728235180E+03 -0.13938542273E+03  0.50661728508E+00  0.19860544842E+03  0.79122824578E+02 0.  0.
         -6    2    1    2    0  502  0.80543751206E+02  0.23513546862E+03  0.20236773545E+03  0.36406735906E+03  0.17267413564E+03 0.  0.
        -24    2    5    5    0    0  0.74802559614E+02  0.24427191479E+03  0.21754446880E+03  0.34486165250E+03  0.79622686307E+02 0.  0.
          5    1    3    3  501    0  0.36738600596E+02 -0.95750045895E+02  0.15290070600E+02  0.10379630206E+03  0.47000000000E+01 0. -1.
        -13    1    4    4    0    0  0.82154846936E+00 -0.35601054379E+02  0.18887802255E+02  0.40309540915E+02  0.00000000000E+00 0.  1.
         14    1    4    4    0    0 -0.11810390027E+03 -0.10378436835E+03 -0.18381184970E+02  0.15829590751E+03  0.00000000000E+00 0. -1.
         -5    1    5    5    0  502  0.57411915917E+01 -0.91364461681E+01 -0.15176733352E+02  0.19205706566E+02  0.47000000000E+01 0.  1.
         11    1    6    6    0    0  0.46070571531E+02  0.10688425040E+03  0.14780673447E+03  0.18813179237E+03  0.00000000000E+00 0. -1.
        -12    1    6    6    0    0  0.28731988083E+02  0.13738766439E+03  0.69737734332E+02  0.15672986013E+03  0.00000000000E+00 0.  1.
</event>
<event>
12    1  0.8500177E-002  0.1885942E+03  0.7818608E-02  0.1160920E+00
         21   -1    0    0  501  502  0.00000000000E+00  0.00000000000E+00  0.37850985157E+03  0.37850985157E+03  0.00000000000E+00 0. -1.
         21   -1    0    0  502  503 -0.00000000000E+00 -0.00000000000E+00 -0.11560438948E+03  0.11560438948E+03  0.00000000000E+00 0. -1.
         -6    2    1    2    0  503 -0.23812386393E+02  0.74979786803E+02  0.19920815408E+02  0.18964336541E+03  0.17140235991E+03 0.  0.
        -24    2    3    3    0    0  0.76501084558E+01  0.92614909681E+02  0.59144143984E+02  0.13615088327E+03  0.80018670282E+02 0.  0.
          6    2    1    2  501    0  0.23812386393E+02 -0.74979786803E+02  0.24298464668E+03  0.30447087564E+03  0.16574672671E+03 0.  0.
         24    2    5    5    0    0  0.26025684558E+01  0.19862762391E+02  0.14320858062E+03  0.16510689581E+03  0.79688686701E+02 0.  0.
          5    1    5    5  501    0  0.21209817938E+02 -0.94842549194E+02  0.99776066059E+02  0.13936397983E+03  0.47000000000E+01 0. -1.
        -11    1    6    6    0    0 -0.26567720167E+02  0.24002750852E+02  0.25992106301E+02  0.44244382619E+02  0.00000000000E+00 0.  1.
         12    1    6    6    0    0  0.29170288623E+02 -0.41399884614E+01  0.11721647432E+03  0.12086251319E+03  0.00000000000E+00 0. -1.
         -5    1    3    3    0  503 -0.31462494849E+02 -0.17635122878E+02 -0.39223328576E+02  0.53492482141E+02  0.47000000000E+01 0.  1.
         13    1    4    4    0    0 -0.21608700122E+02  0.53288619398E+02  0.65000906779E+02  0.86785544651E+02  0.00000000000E+00 0. -1.
        -14    1    4    4    0    0  0.29258808577E+02  0.39326290283E+02 -0.58567627946E+01  0.49365338622E+02  0.00000000000E+00 0.  1.
</event>
<event>
12    1  0.8500177E-002  0.1875851E+03  0.7818608E-02  0.1161430E+00
         21   -1    0    0  503  502  0.00000000000E+00  0.00000000000E+00  0.53383374890E+02  0.53383374890E+02  0.00000000000E+00 0.  1.
         21   -1    0    0  501  503 -0.00000000000E+00 -0.00000000000E+00 -0.72117678829E+03  0.72117678829E+03  0.00000000000E+00 0.  1.
          6    2    1    2  501    0  0.40077476870E+02  0.65299864954E+02 -0.46038023150E+03  0.49712990184E+03  0.17122472143E+03 0.  0.
         24    2    3    3    0    0  0.25896218587E+02  0.11041441478E+03 -0.36783514516E+03  0.39309570698E+03  0.79746998120E+02 0.  0.
         -6    2    1    2    0  502 -0.40077476870E+02 -0.65299864954E+02 -0.20741318189E+03  0.27743026134E+03  0.16756206423E+03 0.  0.
        -24    2    5    5    0    0 -0.30519878579E+02  0.18932825552E+02 -0.15482322659E+03  0.17755890792E+03  0.79164508575E+02 0.  0.
          5    1    3    3  501    0  0.14181258283E+02 -0.45114549823E+02 -0.92545086346E+02  0.10403419485E+03  0.47000000000E+01 0. -1.
        -11    1    4    4    0    0  0.43760842320E+02  0.31925481637E+02 -0.19588090769E+03  0.20323281648E+03  0.00000000000E+00 0.  1.
         12    1    4    4    0    0 -0.17864623733E+02  0.78488933139E+02 -0.17195423747E+03  0.18986289050E+03  0.00000000000E+00 0. -1.
         -5    1    5    5    0  502 -0.95575982915E+01 -0.84232690506E+02 -0.52589955306E+02  0.99871353420E+02  0.47000000000E+01 0.  1.
         11    1    6    6    0    0 -0.44847928394E+02  0.26696129629E+02 -0.15239286616E+03  0.16108260513E+03  0.00000000000E+00 0. -1.
        -12    1    6    6    0    0  0.14328049815E+02 -0.77633040776E+01 -0.24303604246E+01  0.16476302786E+02  0.00000000000E+00 0.  1.
</event>
<event>
12    1  0.8500177E-002  0.1725079E+03  0.7818608E-02  0.1175663E+00
         21   -1    0    0  503  502  0.00000000000E+00  0.00000000000E+00  0.16372770827E+03  0.16372770827E+03  0.00000000000E+00 0.  1.
         21   -1    0    0  501  503 -0.00000000000E+00 -0.00000000000E+00 -0.25858307501E+03  0.25858307501E+03  0.00000000000E+00 0.  1.
          6    2    1    2  501    0  0.44577652805E+01  0.39731453050E+01 -0.16390710129E+03  0.23795908137E+03  0.17240455040E+03 0.  0.
         24    2    3    3    0    0 -0.53085791311E+02 -0.33171279920E+02 -0.12008924093E+03  0.15651545598E+03  0.78468000633E+02 0.  0.
         -6    2    1    2    0  502 -0.44577652805E+01 -0.39731453050E+01  0.69051734546E+02  0.18435170191E+03  0.17082666770E+03 0.  0.
        -24    2    5    5    0    0 -0.59033582295E+02  0.81887074814E+01  0.79764544694E+02  0.12722653436E+03  0.79197157058E+02 0.  0.
          5    1    3    3  501    0  0.57543556591E+02  0.37144425225E+02 -0.43817860359E+02  0.81443625391E+02  0.47000000000E+01 0. -1.
        -13    1    4    4    0    0 -0.14838573033E+02 -0.28628119512E+02 -0.11279656224E+03  0.11731503283E+03  0.00000000000E+00 0.  1.
         14    1    4    4    0    0 -0.38247218278E+02 -0.45431604077E+01 -0.72926786957E+01  0.39200423149E+02  0.00000000000E+00 0. -1.
         -5    1    5    5    0  502  0.54575817014E+02 -0.12161852786E+02 -0.10712810148E+02  0.57125167547E+02  0.47000000000E+01 0.  1.
         13    1    6    6    0    0 -0.38346603911E+02  0.28726720727E+02  0.64704625250E+01  0.48348251266E+02  0.00000000000E+00 0. -1.
        -14    1    6    6    0    0 -0.20686978384E+02 -0.20538013245E+02  0.73294082169E+02  0.78878283093E+02  0.00000000000E+00 0.  1.
</event>
<event>
12    1  0.8500177E-002  0.4546928E+03  0.7818608E-02  0.1026354E+00
         21   -1    0    0  503  502  0.00000000000E+00  0.00000000000E+00  0.30700180114E+03  0.30700180114E+03  0.00000000000E+00 0. -1.
         21   -1    0    0  501  503 -0.00000000000E+00 -0.00000000000E+00 -0.69392955299E+03  0.69392955299E+03  0.00000000000E+00 0. -1.
          6    2    1    2  501    0 -0.27382609798E+03  0.31998152696E+03 -0.10643810303E+03  0.46668426645E+03  0.17057615675E+03 0.  0.
         24    2    3    3    0    0 -0.15210841033E+03  0.27636806515E+03 -0.70398483668E+02  0.33237762589E+03  0.77476859491E+02 0.  0.
         -6    2    1    2    0  502  0.27382609798E+03 -0.31998152696E+03 -0.28048964882E+03  0.53424708767E+03  0.17139602698E+03 0.  0.
        -24    2    5    5    0    0  0.41790062621E+02 -0.71570753311E+02 -0.66273305172E+02  0.13242702091E+03  0.79221100883E+02 0.  0.
          5    1    3    3  501    0 -0.12171768765E+03  0.43613461801E+02 -0.36039619365E+02  0.13430664057E+03  0.47000000000E+01 0. -1.
        -11    1    4    4    0    0 -0.28491840944E+02  0.10068662308E+03  0.48837875388E+01  0.10475415242E+03  0.00000000000E+00 0.  1.
         12    1    4    4    0    0 -0.12361656939E+03  0.17568144207E+03 -0.75282271207E+02  0.22762347347E+03  0.00000000000E+00 0. -1.
         -5    1    5    5    0  502  0.23203603536E+03 -0.24841077365E+03 -0.21421634364E+03  0.40182006676E+03  0.47000000000E+01 0.  1.
         11    1    6    6    0    0  0.50105174356E+02 -0.60568651788E+02 -0.15898805106E+02  0.80198890768E+02  0.00000000000E+00 0. -1.
        -12    1    6    6    0    0 -0.83151117350E+01 -0.11002101523E+02 -0.50374500067E+02  0.52228130141E+02  0.00000000000E+00 0.  1.
</event>
<event>
12    1  0.8500177E-002  0.1774887E+03  0.7818608E-02  0.1172821E+00
         21   -1    0    0  501  502  0.00000000000E+00  0.00000000000E+00  0.24696706958E+03  0.24696706958E+03  0.00000000000E+00 0.  1.
         21   -1    0    0  502  503 -0.00000000000E+00 -0.00000000000E+00 -0.21509103976E+03  0.21509103976E+03  0.00000000000E+00 0.  1.
         -6    2    1    2    0  503  0.35548919979E+02  0.21241549985E+02 -0.13704498045E+03  0.22423996612E+03  0.17258999560E+03 0.  0.
        -24    2    3    3    0    0 -0.43512374248E+01 -0.98875200268E+01 -0.34728021125E+01  0.81325101996E+02  0.80529594193E+02 0.  0.
          6    2    1    2  501    0 -0.35548919979E+02 -0.21241549985E+02  0.16892101027E+03  0.23781814322E+03  0.16219812691E+03 0.  0.
         24    2    5    5    0    0  0.10025735703E+02 -0.32889051756E+02  0.36065039687E+02  0.96802142501E+02  0.82992545468E+02 0.  0.
          5    1    5    5  501    0 -0.45574655682E+02  0.11647501771E+02  0.13285597058E+03  0.14101600072E+03  0.47000000000E+01 0. -1.
        -11    1    6    6    0    0  0.44534028973E+02 -0.15262627646E+02  0.53971091383E+01  0.47385191002E+02  0.00000000000E+00 0.  1.
         12    1    6    6    0    0 -0.34508293270E+02 -0.17626424110E+02  0.30667930549E+02  0.49416951499E+02  0.00000000000E+00 0. -1.
         -5    1    3    3    0  503  0.39900157403E+02  0.31129070012E+02 -0.13357217834E+03  0.14291486412E+03  0.47000000000E+01 0.  1.
         11    1    4    4    0    0  0.19251228080E+02 -0.21401572059E+02 -0.31666864609E+02  0.42795179441E+02  0.00000000000E+00 0. -1.
        -12    1    4    4    0    0 -0.23602465504E+02  0.11514052032E+02  0.28194062497E+02  0.38529922556E+02  0.00000000000E+00 0.  1.
</event>
<event>
12    1  0.8500177E-002  0.1799151E+03  0.7818608E-02  0.1168586E+00
         21   -1    0    0  503  502  0.00000000000E+00  0.00000000000E+00  0.51133989934E+02  0.51133989934E+02  0.00000000000E+00 0. -1.
         21   -1    0    0  501  503 -0.00000000000E+00 -0.00000000000E+00 -0.67376984000E+03  0.67376984000E+03  0.00000000000E+00 0. -1.
          6    2    1    2  501    0  0.35874827769E+02 -0.38387981011E+02 -0.41314764676E+03  0.45062226379E+03  0.17207209607E+03 0.  0.
         24    2    3    3    0    0  0.37262579142E+02  0.36881235147E+02 -0.15946462455E+03  0.18596296108E+03  0.80028314361E+02 0.  0.
         -6    2    1    2    0  502 -0.35874827769E+02  0.38387981011E+02 -0.20948820331E+03  0.27428156615E+03  0.16906930487E+03 0.  0.
        -24    2    5    5    0    0 -0.73679915928E+02 -0.10618251748E+02 -0.16333536568E+03  0.19693164720E+03  0.81007127503E+02 0.  0.
          5    1    3    3  501    0 -0.13877513730E+01 -0.75269216157E+02 -0.25368302221E+03  0.26465930271E+03  0.47000000000E+01 0. -1.
        -13    1    4    4    0    0  0.49270132888E+02  0.27448336459E+02 -0.16102240018E+03  0.17061409827E+03  0.00000000000E+00 0.  1.
         14    1    4    4    0    0 -0.12007553746E+02  0.94328986881E+01  0.15577756266E+01  0.15348862809E+02  0.00000000000E+00 0. -1.
         -5    1    5    5    0  502  0.37805088160E+02  0.49006232758E+02 -0.46152837629E+02  0.77349918947E+02  0.47000000000E+01 0.  1.
         13    1    6    6    0    0 -0.44333287904E+02  0.20675562639E+02 -0.31234233314E+02  0.58038751171E+02  0.00000000000E+00 0. -1.
        -14    1    6    6    0    0 -0.29346628025E+02 -0.31293814386E+02 -0.13210113237E+03  0.13889289603E+03  0.00000000000E+00 0.  1.
</event>
<event>
12    1  0.8500177E-002  0.2267081E+03  0.7818608E-02  0.1129255E+00
         21   -1    0    0  501  502  0.00000000000E+00  0.00000000000E+00  0.48231773450E+02  0.48231773450E+02  0.00000000000E+00 0.  1.
         21   -1    0    0  502  503 -0.00000000000E+00 -0.00000000000E+00 -0.10703151378E+04  0.10703151378E+04  0.00000000000E+00 0.  1.
         -6    2    1    2    0  503  0.14000569419E+03 -0.45054604248E+02 -0.56830072339E+03  0.61128440432E+03  0.17050336943E+03 0.  0.
        -24    2    3    3    0    0  0.14353738748E+03 -0.22463380283E+02 -0.30960487425E+03  0.35153747244E+03  0.81337760674E+02 0.  0.
          6    2    1    2  501    0 -0.14000569419E+03  0.45054604248E+02 -0.45378264093E+03  0.50726250690E+03  0.17252551676E+03 0.  0.
         24    2    5    5    0    0 -0.16804166522E+03  0.19244302867E+02 -0.39352010954E+03  0.43580727603E+03  0.80383834112E+02 0.  0.
          5    1    5    5  501    0  0.28035971036E+02  0.25810301380E+02 -0.60262531385E+02  0.71455230867E+02  0.47000000000E+01 0. -1.
        -11    1    6    6    0    0 -0.68673799959E+02 -0.15165888482E+02 -0.87719958839E+02  0.11243169550E+03  0.00000000000E+00 0.  1.
         12    1    6    6    0    0 -0.99367865264E+02  0.34410191350E+02 -0.30580015070E+03  0.32337558053E+03  0.00000000000E+00 0. -1.
         -5    1    3    3    0  503 -0.35316932928E+01 -0.22591223965E+02 -0.25869584914E+03  0.25974693188E+03  0.47000000000E+01 0.  1.
         11    1    4    4    0    0  0.43330909588E+02 -0.44101612709E+02 -0.90093334350E+02  0.10926723600E+03  0.00000000000E+00 0. -1.
        -12    1    4    4    0    0  0.10020647789E+03  0.21638232426E+02 -0.21951153990E+03  0.24227023644E+03  0.00000000000E+00 0.  1.
</event>
<event>
12    1  0.8500177E-002  0.1987867E+03  0.7818608E-02  0.1150948E+00
         21   -1    0    0  503  502  0.00000000000E+00  0.00000000000E+00  0.36445172481E+02  0.36445172481E+02  0.00000000000E+00 0. -1.
         21   -1    0    0  501  503 -0.00000000000E+00 -0.00000000000E+00 -0.13174024429E+04  0.13174024429E+04  0.00000000000E+00 0. -1.
          6    2    1    2  501    0  0.76014567706E+02  0.63838003941E+02 -0.92693127176E+03  0.94782968103E+03  0.17124840562E+03 0.  0.
         24    2    3    3    0    0  0.99924614425E+02 -0.29981359090E+01 -0.54549415656E+03  0.55981534782E+03  0.76389995602E+02 0.  0.
         -6    2    1    2    0  502 -0.76014567706E+02 -0.63838003941E+02 -0.35402599866E+03  0.40601793435E+03  0.17222848207E+03 0.  0.
        -24    2    5    5    0    0 -0.34406115820E+02  0.14678546147E+02 -0.26851742005E+03  0.28260837669E+03  0.79791285133E+02 0.  0.
          5    1    3    3  501    0 -0.23910046719E+02  0.66836139850E+02 -0.38143711520E+03  0.38801433321E+03  0.47000000000E+01 0. -1.
        -11    1    4    4    0    0  0.81122202976E+02  0.30225188785E+02 -0.34314614549E+03  0.35389779742E+03  0.00000000000E+00 0.  1.
         12    1    4    4    0    0  0.18802411450E+02 -0.33223324694E+02 -0.20234801107E+03  0.20591755040E+03  0.00000000000E+00 0. -1.
         -5    1    5    5    0  502 -0.41608451886E+02 -0.78516550089E+02 -0.85508578616E+02  0.12340955766E+03  0.47000000000E+01 0.  1.
         11    1    6    6    0    0 -0.55997022707E+02  0.49765347644E+01 -0.12378080326E+03  0.13594895993E+03  0.00000000000E+00 0. -1.
        -12    1    6    6    0    0  0.21590906887E+02  0.97020113830E+01 -0.14473661679E+03  0.14665941676E+03  0.00000000000E+00 0.  1.
</event>
<event>
12    1  0.8500177E-002  0.2005566E+03  0.7818608E-02  0.1149306E+00
         21   -1    0    0  501  502  0.00000000000E+00  0.00000000000E+00  0.38576855723E+02  0.38576855723E+02  0.00000000000E+00 0. -1.
         21   -1    0    0  502  503 -0.00000000000E+00 -0.00000000000E+00 -0.14037945533E+04  0.14037945533E+04  0.00000000000E+00 0. -1.
         -6    2    1    2    0  503 -0.10098136067E+03  0.19161921704E+02 -0.10486229658E+04  0.10675979093E+04  0.17201964167E+03 0.  0.
        -24    2    3    3    0    0 -0.81871053214E+02  0.48914122026E+02 -0.41726541931E+03  0.43523342677E+03  0.78881207748E+02 0.  0.
          6    2    1    2  501    0  0.10098136067E+03 -0.19161921704E+02 -0.31659473176E+03  0.37477349970E+03  0.17221654232E+03 0.  0.
         24    2    5    5    0    0 -0.15644360107E+02 -0.12210884636E+02 -0.15308567709E+03  0.17375813556E+03  0.79767245368E+02 0.  0.
          5    1    5    5  501    0  0.11662572077E+03 -0.69510370682E+01 -0.16350905467E+03  0.20101536414E+03  0.47000000000E+01 0. -1.
        -13    1    6    6    0    0  0.10622119983E+02 -0.41439345623E+02 -0.75030821889E+02  0.86369398701E+02  0.00000000000E+00 0.  1.
         14    1    6    6    0    0 -0.26266480090E+02  0.29228460987E+02 -0.78054855205E+02  0.87388736855E+02  0.00000000000E+00 0. -1.
         -5    1    3    3    0  503 -0.19110307452E+02 -0.29752200322E+02 -0.63135754649E+03  0.63236448254E+03  0.47000000000E+01 0.  1.
         13    1    4    4    0    0 -0.19852546142E+02  0.15387910085E+02 -0.27807292748E+03  0.27920505791E+03  0.00000000000E+00 0. -1.
        -14    1    4    4    0    0 -0.62018507072E+02  0.33526211941E+02 -0.13919249183E+03  0.15602836886E+03  0.00000000000E+00 0.  1.
</event>
<event>
12    1  0.8500177E-002  0.2200522E+03  0.7818608E-02  0.1134047E+00
         21   -1    0    0  501  502  0.00000000000E+00  0.00000000000E+00  0.12616453280E+03  0.12616453280E+03  0.00000000000E+00 0. -1.
         21   -1    0    0  502  503 -0.00000000000E+00 -0.00000000000E+00 -0.46842892861E+03  0.46842892861E+03  0.00000000000E+00 0.  1.
         -6    2    1    2    0  503  0.48527376134E+02  0.12713545383E+03 -0.29924462288E+03  0.37144354960E+03  0.17292957053E+03 0.  0.
        -24    2    3    3    0    0  0.11258287534E+02 -0.56492771727E+01 -0.94929416181E+02  0.12489220923E+03  0.80173602256E+02 0.  0.
          6    2    1    2  501    0 -0.48527376134E+02 -0.12713545383E+03 -0.43019772935E+02  0.22314991181E+03  0.17154256738E+03 0.  0.
         24    2    5    5    0    0  0.28689975366E+02 -0.86598625898E+02  0.98167044524E+01  0.12107377780E+03  0.78994020606E+02 0.  0.
          5    1    5    5  501    0 -0.77217351501E+02 -0.40536827935E+02 -0.52836477388E+02  0.10207613401E+03  0.47000000000E+01 0. -1.
        -11    1    6    6    0    0  0.18807032125E+02 -0.12448877133E+02 -0.29047111505E+02  0.36775177580E+02  0.00000000000E+00 0.  1.
         12    1    6    6    0    0  0.98829432412E+01 -0.74149748765E+02  0.38863815958E+02  0.84298600225E+02  0.00000000000E+00 0. -1.
         -5    1    3    3    0  503  0.37269088600E+02  0.13278473101E+03 -0.20431520670E+03  0.24655134037E+03  0.47000000000E+01 0.  1.
         13    1    4    4    0    0 -0.36233476751E+01  0.76191159944E+00  0.14144583217E+02  0.14621162472E+02  0.00000000000E+00 0. -1.
        -14    1    4    4    0    0  0.14881635209E+02 -0.64111887721E+01 -0.10907399940E+03  0.11027104676E+03  0.00000000000E+00 0.  1.
</event>
<event>
12    1  0.8500177E-002  0.1938219E+03  0.7818608E-02  0.1155333E+00
         21   -1    0    0  503  502  0.00000000000E+00  0.00000000000E+00  0.10233953280E+03  0.10233953280E+03  0.00000000000E+00 0. -1.
         21   -1    0    0  501  503 -0.00000000000E+00 -0.00000000000E+00 -0.36571036514E+03  0.36571036514E+03  0.00000000000E+00 0.  1.
          6    2    1    2  501    0 -0.30669229597E+02  0.83362426863E+02 -0.11913473857E+03  0.22644900701E+03  0.17086887073E+03 0.  0.
         24    2    3    3    0    0 -0.21382492966E+02  0.81214623279E+02 -0.15245166778E+03  0.19147810039E+03  0.79808056486E+02 0.  0.
         -6    2    1    2    0  502  0.30669229597E+02 -0.83362426863E+02 -0.14423609378E+03  0.24160089094E+03  0.17227026411E+03 0.  0.
        -24    2    5    5    0    0  0.74737307619E+02 -0.31970626394E+02 -0.47559330889E+02  0.12348400332E+03  0.79866282123E+02 0.  0.
          5    1    3    3  501    0 -0.92867366313E+01  0.21478035832E+01  0.33316929212E+02  0.34970906617E+02  0.47000000000E+01 0. -1.
        -11    1    4    4    0    0  0.15406647457E+02  0.38179692386E+02 -0.11853092663E+03  0.12547762456E+03  0.00000000000E+00 0.  1.
         12    1    4    4    0    0 -0.36789140423E+02  0.43034930893E+02 -0.33920741150E+02  0.66000475834E+02  0.00000000000E+00 0. -1.
         -5    1    5    5    0  502 -0.44068078021E+02 -0.51391800469E+02 -0.96676762891E+02  0.11811688761E+03  0.47000000000E+01 0.  1.
         13    1    6    6    0    0 -0.28738697573E+01 -0.42730665223E+01  0.17658152183E+02  0.18393709886E+02  0.00000000000E+00 0. -1.
        -14    1    6    6    0    0  0.77611177376E+02 -0.27697559872E+02 -0.65217483071E+02  0.10509029344E+03  0.00000000000E+00 0.  1.
</event>
<event>
12    1  0.8500177E-002  0.1785233E+03  0.7818608E-02  0.1169351E+00
         21   -1    0    0  501  502  0.00000000000E+00  0.00000000000E+00  0.10468084710E+04  0.10468084710E+04  0.00000000000E+00 0.  1.
         21   -1    0    0  502  503 -0.00000000000E+00 -0.00000000000E+00 -0.78524364096E+02  0.78524364096E+02  0.00000000000E+00 0.  1.
         -6    2    1    2    0  503 -0.46970027636E+02  0.13024368591E+02  0.43749277779E+02  0.18380579176E+03  0.17174036248E+03 0.  0.
        -24    2    3    3    0    0 -0.73517574547E+02 -0.37081420584E+02  0.25100945172E+01  0.11353401512E+03  0.78126861550E+02 0.  0.
          6    2    1    2  501    0  0.46970027636E+02 -0.13024368591E+02  0.92453482908E+03  0.94152704329E+03  0.17126793450E+03 0.  0.
         24    2    5    5    0    0  0.82779347955E+02 -0.42339643465E+02  0.78141004290E+03  0.79103289994E+03  0.80537741395E+02 0.  0.
          5    1    5    5  501    0 -0.35809320319E+02  0.29315274874E+02  0.14312478618E+03  0.15049414334E+03  0.47000000000E+01 0. -1.
        -13    1    6    6    0    0  0.23381245421E+01 -0.35325424657E+02  0.37578572244E+03  0.37744968095E+03  0.00000000000E+00 0.  1.
         14    1    6    6    0    0  0.80441223413E+02 -0.70142188080E+01  0.40562432046E+03  0.41358321900E+03  0.00000000000E+00 0. -1.
         -5    1    3    3    0  503  0.26547546911E+02  0.50105789175E+02  0.41239183262E+02  0.70271776638E+02  0.47000000000E+01 0.  1.
         13    1    4    4    0    0  0.13986196601E+02 -0.10771632216E+02 -0.11534314111E+02  0.21087488185E+02  0.00000000000E+00 0. -1.
        -14    1    4    4    0    0 -0.87503771148E+02 -0.26309788368E+02  0.14044408628E+02  0.92446526937E+02  0.00000000000E+00 0.  1.
</event>
<event>
12    1  0.8500177E-002  0.1906784E+03  0.7818608E-02  0.1157950E+00
         21   -1    0    0  501  502  0.00000000000E+00  0.00000000000E+00  0.10823168580E+04  0.10823168580E+04  0.00000000000E+00 0.  1.
         21   -1    0    0  502  503 -0.00000000000E+00 -0.00000000000E+00 -0.72579632698E+02  0.72579632698E+02  0.00000000000E+00 0. -1.
         -6    2    1    2    0  503 -0.62028461620E+02 -0.56838907506E+02  0.81499812180E+02  0.20736559135E+03  0.17111422393E+03 0.  0.
        -24    2    3    3    0    0 -0.37340655585E+02  0.21875766858E+02 -0.12517369797E+01  0.90423739919E+02  0.79385213739E+02 0.  0.
          6    2    1    2  501    0  0.62028461620E+02  0.56838907506E+02  0.92823741311E+03  0.94753089934E+03  0.17062215169E+03 0.  0.
         24    2    5    5    0    0 -0.11858087335E+02  0.71073801690E+02  0.48205622551E+03  0.49502499164E+03  0.86483745755E+02 0.  0.
          5    1    5    5  501    0  0.73886548955E+02 -0.14234894184E+02  0.44618118761E+03  0.45250590770E+03  0.47000000000E+01 0. -1.
        -11    1    6    6    0    0 -0.23221179649E+02 -0.10746486909E+02  0.18260593935E+03  0.18438991092E+03  0.00000000000E+00 0.  1.
         12    1    6    6    0    0  0.11363092314E+02  0.81820288599E+02  0.29945028616E+03  0.31063508072E+03  0.00000000000E+00 0. -1.
         -5    1    3    3    0  503 -0.24687806035E+02 -0.78714674364E+02  0.82751549159E+02  0.11694185143E+03  0.47000000000E+01 0.  1.
         13    1    4    4    0    0  0.20556569504E+02 -0.77467209613E+01  0.10478799171E+02  0.24339052313E+02  0.00000000000E+00 0. -1.
        -14    1    4    4    0    0 -0.57897225089E+02  0.29622487819E+02 -0.11730536150E+02  0.66084687606E+02  0.00000000000E+00 0.  1.
</event>
<event>
12    1  0.8500177E-002  0.1917196E+03  0.7818608E-02  0.1157102E+00
         21   -1    0    0  501  502  0.00000000000E+00  0.00000000000E+00  0.17700520403E+03  0.17700520403E+03  0.00000000000E+00 0.  1.
         21   -1    0    0  502  503 -0.00000000000E+00 -0.00000000000E+00 -0.22421930587E+03  0.22421930587E+03  0.00000000000E+00 0.  1.
         -6    2    1    2    0  503  0.79010390803E+02 -0.26358863603E+02 -0.79610291924E+02  0.20759144383E+03  0.17268172290E+03 0.  0.
        -24    2    3    3    0    0  0.99191408154E+02 -0.63054356560E+02 -0.36161778654E+02  0.14706297144E+03  0.80653927365E+02 0.  0.
          6    2    1    2  501    0 -0.79010390803E+02  0.26358863603E+02  0.32396190085E+02  0.19363306607E+03  0.17177549184E+03 0.  0.
         24    2    5    5    0    0 -0.69508449593E+02  0.62871311117E+02  0.68916806556E+02  0.14091408336E+03  0.79517459324E+02 0.  0.
          5    1    5    5  501    0 -0.95019412099E+01 -0.36512447514E+02 -0.36520616472E+02  0.52718982707E+02  0.47000000000E+01 0. -1.
        -11    1    6    6    0    0 -0.51297030911E+02  0.15779731978E+02  0.72606732899E+02  0.90289107780E+02  0.00000000000E+00 0.  1.
         12    1    6    6    0    0 -0.18211418682E+02  0.47091579139E+02 -0.36899263421E+01  0.50624975581E+02  0.00000000000E+00 0. -1.
         -5    1    3    3    0  503 -0.20181017352E+02  0.36695492956E+02 -0.43448513270E+02  0.60528472391E+02  0.47000000000E+01 0.  1.
         11    1    4    4    0    0  0.32131975442E+02 -0.53340368495E+02  0.12663050037E+02  0.63545350681E+02  0.00000000000E+00 0. -1.
        -12    1    4    4    0    0  0.67059432712E+02 -0.97139880650E+01 -0.48824828692E+02  0.83517620755E+02  0.00000000000E+00 0.  1.
</event>
<event>
12    1  0.8500177E-002  0.1783462E+03  0.7818608E-02  0.1170330E+00
         21   -1    0    0  503  502  0.00000000000E+00  0.00000000000E+00  0.52785911855E+02  0.52785911855E+02  0.00000000000E+00 0. -1.
         21   -1    0    0  501  503 -0.00000000000E+00 -0.00000000000E+00 -0.76121884943E+03  0.76121884943E+03  0.00000000000E+00 0. -1.
          6    2    1    2  501    0  0.33328782690E+02 -0.36366868930E+02 -0.55004370556E+03  0.57823476825E+03  0.17138848350E+03 0.  0.
         24    2    3    3    0    0  0.58034517727E+02 -0.72100561721E+02 -0.29243536625E+03  0.31694677268E+03  0.79814265851E+02 0.  0.
         -6    2    1    2    0  502 -0.33328782690E+02  0.36366868930E+02 -0.15838923201E+03  0.23576999303E+03  0.16753203838E+03 0.  0.
        -24    2    5    5    0    0  0.35921917372E+02  0.54721235239E+02 -0.10141246577E+03  0.14411311051E+03  0.78735650590E+02 0.  0.
          5    1    3    3  501    0 -0.24705735036E+02  0.35733692791E+02 -0.25760833931E+03  0.26128799557E+03  0.47000000000E+01 0. -1.
        -11    1    4    4    0    0 -0.63539157486E+01 -0.41340892665E+02 -0.17151271404E+03  0.17653909689E+03  0.00000000000E+00 0.  1.
         12    1    4    4    0    0  0.64388433475E+02 -0.30759669055E+02 -0.12092265221E+03  0.14040767580E+03  0.00000000000E+00 0. -1.
         -5    1    5    5    0  502 -0.69250700063E+02 -0.18354366310E+02 -0.56976766242E+02  0.91656882519E+02  0.47000000000E+01 0.  1.
         11    1    6    6    0    0 -0.14304446631E+02  0.45659617097E+01  0.53227741056E+01  0.15931011391E+02  0.00000000000E+00 0. -1.
        -12    1    6    6    0    0  0.50226364003E+02  0.50155273530E+02 -0.10673523987E+03  0.12818209912E+03  0.00000000000E+00 0.  1.
</event>
<event>
12    1  0.8500177E-002  0.1866334E+03  0.7818608E-02  0.1162301E+00
         21   -1    0    0  503  502  0.00000000000E+00  0.00000000000E+00  0.20067930444E+03  0.20067930444E+03  0.00000000000E+00 0.  1.
         21   -1    0    0  501  503 -0.00000000000E+00 -0.00000000000E+00 -0.18491747657E+03  0.18491747657E+03  0.00000000000E+00 0.  1.
          6    2    1    2  501    0  0.54383407806E+02 -0.40250203203E+02 -0.45845659926E+02  0.19218179496E+03  0.17393787362E+03 0.  0.
         24    2    3    3    0    0 -0.96519431511E+01  0.35185601016E+02 -0.20341055544E+02  0.89889754337E+02  0.79594113278E+02 0.  0.
         -6    2    1    2    0  502 -0.54383407806E+02  0.40250203203E+02  0.61607487797E+02  0.19341498605E+03  0.17040023584E+03 0.  0.
        -24    2    5    5    0    0 -0.45063325720E+02  0.81015017793E+02  0.40299587691E+01  0.12209951867E+03  0.79359406873E+02 0.  0.
          5    1    3    3  501    0  0.64035350957E+02 -0.75435804219E+02 -0.25504604382E+02  0.10229204062E+03  0.47000000000E+01 0. -1.
        -11    1    4    4    0    0 -0.29533231255E+02 -0.14090851587E+02 -0.16414863785E+02  0.36608900556E+02  0.00000000000E+00 0.  1.
         12    1    4    4    0    0  0.19881288104E+02  0.49276452603E+02 -0.39261917594E+01  0.53280853781E+02  0.00000000000E+00 0. -1.
         -5    1    5    5    0  502 -0.93200820859E+01 -0.40764814589E+02  0.57577529028E+02  0.71315467380E+02  0.47000000000E+01 0.  1.
         11    1    6    6    0    0 -0.62734317164E+02  0.33034349951E+02  0.20594624246E+01  0.70930277119E+02  0.00000000000E+00 0. -1.
        -12    1    6    6    0    0  0.17670991444E+02  0.47980667842E+02  0.19704963446E+01  0.51169241552E+02  0.00000000000E+00 0.  1.
</event>
<event>
12    1  0.8500177E-002  0.1922173E+03  0.7818608E-02  0.1156690E+00
         21   -1    0    0  503  502  0.00000000000E+00  0.00000000000E+00  0.72819722289E+03  0.72819722289E+03  0.00000000000E+00 0.  1.
         21   -1    0    0  501  503 -0.00000000000E+00 -0.00000000000E+00 -0.52823366459E+02  0.52823366459E+02  0.00000000000E+00 0.  1.
          6    2    1    2  501    0  0.81874938223E+02 -0.13739416837E+02  0.25634932297E+03  0.32040986398E+03  0.17336443829E+03 0.  0.
         24    2    3    3    0    0  0.85761457232E+02  0.27403302741E+02  0.25162692804E+03  0.27855034393E+03  0.78537982159E+02 0.  0.
         -6    2    1    2    0  502 -0.81874938223E+02  0.13739416837E+02  0.41902453346E+03  0.46061072537E+03  0.17230323154E+03 0.  0.
        -24    2    5    5    0    0 -0.66729109510E+01 -0.15695020273E+02  0.85569102135E+02  0.11748342294E+03  0.78672879845E+02 0.  0.
          5    1    3    3  501    0 -0.38865190095E+01 -0.41142719578E+02  0.47223949225E+01  0.41859520041E+02  0.47000000000E+01 0. -1.
        -11    1    4    4    0    0 -0.12244287887E+02  0.10483683192E+02  0.15629868025E+02  0.22452682994E+02  0.00000000000E+00 0.  1.
         12    1    4    4    0    0  0.98005745119E+02  0.16919619549E+02  0.23599706002E+03  0.25609766094E+03  0.00000000000E+00 0. -1.
         -5    1    5    5    0  502 -0.75202027272E+02  0.29434437110E+02  0.33345543133E+03  0.34312730243E+03  0.47000000000E+01 0.  1.
         13    1    6    6    0    0 -0.32954204897E+02 -0.86731071673E+01  0.83518814837E+02  0.90203075558E+02  0.00000000000E+00 0. -1.
        -14    1    6    6    0    0  0.26281293946E+02 -0.70219131062E+01  0.20502872979E+01  0.27280347380E+02  0.00000000000E+00 0.  1.
</event>
<event>
12    1  0.8500177E-002  0.1884518E+03  0.7818608E-02  0.1160276E+00
         21   -1    0    0  501  502  0.00000000000E+00  0.00000000000E+00  0.32540028429E+03  0.32540028429E+03  0.00000000000E+00 0. -1.
         21   -1    0    0  502  503 -0.00000000000E+00 -0.00000000000E+00 -0.20181295680E+03  0.20181295680E+03  0.00000000000E+00 0. -1.
         -6    2    1    2    0  503  0.65434549259E+02  0.23006341863E+02 -0.11767556396E+03  0.22217478609E+03  0.17522307273E+03 0.  0.
        -24    2    3    3    0    0 -0.25791749177E+02 -0.10813959419E+02 -0.83537944156E+02  0.11895890848E+03  0.79940463775E+02 0.  0.
          6    2    1    2  501    0 -0.65434549259E+02 -0.23006341863E+02  0.24126289145E+03  0.30503845499E+03  0.17329080827E+03 0.  0.
         24    2    5    5    0    0 -0.10162996264E+03 -0.51395556272E+02  0.17393056332E+03  0.22335744217E+03  0.81648965730E+02 0.  0.
          5    1    5    5  501    0  0.36195413383E+02  0.28389214409E+02  0.67332328128E+02  0.81681012823E+02  0.47000000000E+01 0. -1.
        -13    1    6    6    0    0 -0.90200343918E+01  0.17925709669E+02  0.92236227973E+01  0.22085454605E+02  0.00000000000E+00 0.  1.
         14    1    6    6    0    0 -0.92609928250E+02 -0.69321265941E+02  0.16470694052E+03  0.20127198757E+03  0.00000000000E+00 0. -1.
         -5    1    3    3    0  503  0.91226298436E+02  0.33820301281E+02 -0.34137619804E+02  0.10321587761E+03  0.47000000000E+01 0.  1.
         11    1    4    4    0    0  0.12417347078E+02 -0.24535899588E+02 -0.16369899275E+01  0.27547787808E+02  0.00000000000E+00 0. -1.
        -12    1    4    4    0    0 -0.38209096255E+02  0.13721940170E+02 -0.81900954228E+02  0.91411120670E+02  0.00000000000E+00 0.  1.
</event>
<event>
12    1  0.8500177E-002  0.2203965E+03  0.7818608E-02  0.1133657E+00
         21   -1    0    0  501  502  0.00000000000E+00  0.00000000000E+00  0.26769827027E+03  0.26769827027E+03  0.00000000000E+00 0. -1.
         21   -1    0    0  502  503 -0.00000000000E+00 -0.00000000000E+00 -0.18212130532E+03  0.18212130532E+03  0.00000000000E+00 0. -1.
         -6    2    1    2    0  503 -0.13540392509E+02 -0.13706600271E+03  0.26303399989E+02  0.22159171533E+03  0.17158259855E+03 0.  0.
        -24    2    3    3    0    0 -0.49984720217E+01 -0.16908922731E+03  0.59654327984E+01  0.18242317913E+03  0.68018220955E+02 0.  0.
          6    2    1    2  501    0  0.13540392509E+02  0.13706600271E+03  0.59273564965E+02  0.22822786025E+03  0.17205862188E+03 0.  0.
         24    2    5    5    0    0  0.63381258830E+02  0.55875784701E+02  0.63405782056E+02  0.13275467724E+03  0.80400397036E+02 0.  0.
          5    1    5    5  501    0 -0.49840866320E+02  0.81190218013E+02 -0.41322170910E+01  0.95473183013E+02  0.47000000000E+01 0. -1.
        -13    1    6    6    0    0  0.32880270297E+02  0.34032432339E+02 -0.11747596484E+02  0.48757816285E+02  0.00000000000E+00 0.  1.
         14    1    6    6    0    0  0.30500988533E+02  0.21843352361E+02  0.75153378540E+02  0.83996860953E+02  0.00000000000E+00 0. -1.
         -5    1    3    3    0  503 -0.85419204877E+01  0.32023224592E+02  0.20337967190E+02  0.39168536204E+02  0.47000000000E+01 0.  1.
         11    1    4    4    0    0  0.14720226735E+02 -0.12853960204E+03 -0.19183257826E+02  0.13079415793E+03  0.00000000000E+00 0. -1.
        -12    1    4    4    0    0 -0.19718698757E+02 -0.40549625262E+02  0.25148690624E+02  0.51629021196E+02  0.00000000000E+00 0.  1.
</event>
<event>
12    1  0.8500177E-002  0.1869390E+03  0.7818608E-02  0.1161548E+00
         21   -1    0    0  503  502  0.00000000000E+00  0.00000000000E+00  0.12383272445E+03  0.12383272445E+03  0.00000000000E+00 0.  1.
         21   -1    0    0  501  503 -0.00000000000E+00 -0.00000000000E+00 -0.28108327381E+03  0.28108327381E+03  0.00000000000E+00 0.  1.
          6    2    1    2  501    0 -0.54536947973E+02  0.43479632614E+02 -0.89220015312E+02  0.20598299289E+03  0.17205820260E+03 0.  0.
         24    2    3    3    0    0 -0.97932962390E+01  0.84566655081E+02 -0.26187507258E+02  0.11831700828E+03  0.77882611087E+02 0.  0.
         -6    2    1    2    0  502  0.54536947973E+02 -0.43479632614E+02 -0.68030534048E+02  0.19893300537E+03  0.17343998938E+03 0.  0.
        -24    2    5    5    0    0 -0.33628231406E+02  0.33485986095E+01 -0.31900857428E+02  0.92662474993E+02  0.80166068303E+02 0.  0.
          5    1    3    3  501    0 -0.44743651734E+02 -0.41087022468E+02 -0.63032508054E+02  0.87665984608E+02  0.47000000000E+01 0. -1.
        -13    1    4    4    0    0 -0.33385226530E+02  0.55586417491E+02 -0.42515112284E+02  0.77536816626E+02  0.00000000000E+00 0.  1.
         14    1    4    4    0    0  0.23591930291E+02  0.28980237591E+02  0.16327605026E+02  0.40780191657E+02  0.00000000000E+00 0. -1.
         -5    1    5    5    0  502  0.88165179379E+02 -0.46828231223E+02 -0.36129676620E+02  0.10627053038E+03  0.47000000000E+01 0.  1.
         13    1    6    6    0    0 -0.14425370495E+02 -0.29930420424E+01  0.26796311862E+02  0.30579273111E+02  0.00000000000E+00 0. -1.
        -14    1    6    6    0    0 -0.19202860910E+02  0.63416406519E+01 -0.58697169290E+02  0.62083201882E+02  0.00000000000E+00 0.  1.
</event>
<event>
12    1  0.8500177E-002  0.1792843E+03  0.7818608E-02  0.1168818E+00
         21   -1    0    0  503  502  0.00000000000E+00  0.00000000000E+00  0.11405252671E+03  0.11405252671E+03  0.00000000000E+00 0.  1.
         21   -1    0    0  501  503 -0.00000000000E+00 -0.00000000000E+00 -0.43009828541E+03  0.43009828541E+03  0.00000000000E+00 0. -1.
          6    2    1    2  501    0  0.28100946055E+02 -0.40395533299E+02 -0.31849893275E+03  0.36484975646E+03  0.17103307384E+03 0.  0.
         24    2    3    3    0    0  0.37180164624E+02 -0.90751547270E+02 -0.23366886582E+03  0.26567117708E+03  0.79761065080E+02 0.  0.
         -6    2    1    2    0  502 -0.28100946055E+02  0.40395533299E+02  0.24531740567E+01  0.17930105566E+03  0.17239892175E+03 0.  0.
        -24    2    5    5    0    0 -0.18573846824E+02 -0.39651312479E+02 -0.31985744996E+01  0.98354805592E+02  0.88012627146E+02 0.  0.
          5    1    3    3  501    0 -0.90792185691E+01  0.50356013971E+02 -0.84830066931E+02  0.99178579383E+02  0.47000000000E+01 0. -1.
        -13    1    4    4    0    0  0.24317334229E+02  0.78252984104E+01 -0.33045248123E+02  0.41767887937E+02  0.00000000000E+00 0.  1.
         14    1    4    4    0    0  0.12862830395E+02 -0.98576845681E+02 -0.20062361769E+03  0.22390328914E+03  0.00000000000E+00 0. -1.
         -5    1    5    5    0  502 -0.95270992309E+01  0.80046845778E+02  0.56517485563E+01  0.80946250071E+02  0.47000000000E+01 0.  1.
         11    1    6    6    0    0  0.27118972369E+02  0.10541035340E+02 -0.83894772149E+01  0.30280941471E+02  0.00000000000E+00 0. -1.
        -12    1    6    6    0    0 -0.45692819193E+02 -0.50192347819E+02  0.51909027153E+01  0.68073864122E+02  0.00000000000E+00 0.  1.
</event>
<event>
12    1  0.8500177E-002  0.2054834E+03  0.7818608E-02  0.1145896E+00
         21   -1    0    0  501  502  0.00000000000E+00  0.00000000000E+00  0.37770372241E+02  0.37770372241E+02  0.00000000000E+00 0.  1.
         21   -1    0    0  502  503 -0.00000000000E+00 -0.00000000000E+00 -0.11359181052E+04  0.11359181052E+04  0.00000000000E+00 0.  1.
         -6    2    1    2    0  503 -0.68110233108E+02 -0.81037227983E+02 -0.64988410893E+03  0.68057217864E+03  0.17211362273E+03 0.  0.
        -24    2    3    3    0    0 -0.10111488411E+02 -0.15432831127E+02 -0.14142780529E+03  0.16460929821E+03  0.82182616612E+02 0.  0.
          6    2    1    2  501    0  0.68110233108E+02  0.81037227983E+02 -0.44826362398E+03  0.49311629875E+03  0.17611749299E+03 0.  0.
         24    2    5    5    0    0  0.98543468995E+02  0.46284515311E+02 -0.41332998919E+03  0.43500965779E+03  0.80861924070E+02 0.  0.
          5    1    5    5  501    0 -0.30433235887E+02  0.34752712671E+02 -0.34933634791E+02  0.58106640966E+02  0.47000000000E+01 0. -1.
        -13    1    6    6    0    0  0.73229424889E+02  0.65323258167E+02 -0.24869414536E+03  0.26735454861E+03  0.00000000000E+00 0.  1.
         14    1    6    6    0    0  0.25314044106E+02 -0.19038742856E+02 -0.16463584383E+03  0.16765510918E+03  0.00000000000E+00 0. -1.
         -5    1    3    3    0  503 -0.57998744697E+02 -0.65604396856E+02 -0.50845630364E+03  0.51596288043E+03  0.47000000000E+01 0.  1.
         11    1    4    4    0    0  0.26141338047E+01  0.30026073051E+02 -0.89464887392E+02  0.94405322066E+02  0.00000000000E+00 0. -1.
        -12    1    4    4    0    0 -0.12725622216E+02 -0.45458904178E+02 -0.51962917902E+02  0.70203976146E+02  0.00000000000E+00 0.  1.
</event>
<event>
12    1  0.8500177E-002  0.1811422E+03  0.7818608E-02  0.1167012E+00
         21   -1    0    0  503  502  0.00000000000E+00  0.00000000000E+00  0.58850166073E+02  0.58850166073E+02  0.00000000000E+00 0.  1.
         21   -1    0    0  501  503 -0.00000000000E+00 -0.00000000000E+00 -0.68343183897E+03  0.68343183897E+03  0.00000000000E+00 0.  1.
          6    2    1    2  501    0  0.20210417277E+02 -0.50519800498E+02 -0.47495546111E+03  0.50832588021E+03  0.17277673237E+03 0.  0.
         24    2    3    3    0    0  0.59398550752E+02 -0.89689056883E+02 -0.31518614680E+03  0.33915654421E+03  0.64129085337E+02 0.  0.
         -6    2    1    2    0  502 -0.20210417277E+02  0.50519800498E+02 -0.14962621179E+03  0.23395612483E+03  0.17142565118E+03 0.  0.
        -24    2    5    5    0    0  0.34297514107E+02  0.22738768680E+02 -0.21978397011E+02  0.92326484817E+02  0.79672823400E+02 0.  0.
          5    1    3    3  501    0 -0.39188133474E+02  0.39169256384E+02 -0.15976931431E+03  0.16916933601E+03  0.47000000000E+01 0. -1.
        -11    1    4    4    0    0  0.11659267758E+02 -0.43966481284E+02 -0.21041414562E+03  0.21527448218E+03  0.00000000000E+00 0.  1.
         12    1    4    4    0    0  0.47739282993E+02 -0.45722575599E+02 -0.10477200118E+03  0.12388206203E+03  0.00000000000E+00 0. -1.
         -5    1    5    5    0  502 -0.54507931384E+02  0.27781031818E+02 -0.12764781478E+03  0.14162964002E+03  0.47000000000E+01 0.  1.
         11    1    6    6    0    0  0.21917335447E+01 -0.84647190373E+01 -0.42274925021E+02  0.43169716814E+02  0.00000000000E+00 0. -1.
        -12    1    6    6    0    0  0.32105780562E+02  0.31203487717E+02  0.20296528010E+02  0.49156768003E+02  0.00000000000E+00 0.  1.
</event>
<event>
12    1  0.8500177E-002  0.2062801E+03  0.7818608E-02  0.1146073E+00
         21   -1    0    0  501  502  0.00000000000E+00  0.00000000000E+00  0.64906410419E+02  0.64906410419E+02  0.00000000000E+00 0. -1.
         21   -1    0    0  502  503 -0.00000000000E+00 -0.00000000000E+00 -0.21947399092E+04  0.21947399092E+04  0.00000000000E+00 0. -1.
         -6    2    1    2    0  503 -0.52243909270E+02 -0.10311703785E+03 -0.20125541151E+04  0.20223576402E+04  0.16184501559E+03 0.  0.
        -24    2    3    3    0    0  0.31814094626E+02 -0.41582724471E+02 -0.10917129014E+04  0.10956306844E+04  0.76343158942E+02 0.  0.
          6    2    1    2  501    0  0.52243909270E+02  0.10311703785E+03 -0.11727938368E+03  0.23728867943E+03  0.17084763387E+03 0.  0.
         24    2    5    5    0    0 -0.48066442886E+01  0.80904349660E+02 -0.13187992991E+03  0.17417421890E+03  0.79848137062E+02 0.  0.
          5    1    5    5  501    0  0.57050553559E+02  0.22212688189E+02  0.14600546231E+02  0.63114460532E+02  0.47000000000E+01 0. -1.
        -11    1    6    6    0    0  0.30736362666E+02  0.16840356696E+02 -0.69966152766E+02  0.78253333069E+02  0.00000000000E+00 0.  1.
         12    1    6    6    0    0 -0.35543006954E+02  0.64063992964E+02 -0.61913777146E+02  0.95920885829E+02  0.00000000000E+00 0. -1.
         -5    1    3    3    0  503 -0.84058003897E+02 -0.61534313379E+02 -0.92084121374E+03  0.92672695583E+03  0.47000000000E+01 0.  1.
         13    1    4    4    0    0  0.46415359264E+02 -0.66256585576E+00 -0.69425674119E+03  0.69580690371E+03  0.00000000000E+00 0. -1.
        -14    1    4    4    0    0 -0.14601264638E+02 -0.40920158615E+02 -0.39745616019E+03  0.39982378066E+03  0.00000000000E+00 0.  1.
</event>
<event>
12    1  0.8500177E-002  0.3513563E+03  0.7818608E-02  0.1062107E+00
         21   -1    0    0  503  502  0.00000000000E+00  0.00000000000E+00  0.11004011581E+04  0.11004011581E+04  0.00000000000E+00 0.  1.
         21   -1    0    0  501  503 -0.00000000000E+00 -0.00000000000E+00 -0.13006219770E+03  0.13006219770E+03  0.00000000000E+00 0.  1.
          6    2    1    2  501    0  0.14940392503E+03  0.26558078528E+03  0.25588260527E+03  0.43428553528E+03  0.17399233359E+03 0.  0.
         24    2    3    3    0    0  0.12021551637E+03  0.21559138656E+03  0.27047536441E+03  0.37440280150E+03  0.78032805178E+02 0.  0.
         -6    2    1    2    0  502 -0.14940392503E+03 -0.26558078528E+03  0.71445635513E+03  0.79617782052E+03  0.17491870164E+03 0.  0.
        -24    2    5    5    0    0 -0.66843358995E+02 -0.10850467584E+03  0.20048142870E+03  0.25241181733E+03  0.85308985211E+02 0.  0.
          5    1    3    3  501    0  0.29188408669E+02  0.49989398717E+02 -0.14592759148E+02  0.59882733775E+02  0.47000000000E+01 0. -1.
        -13    1    4    4    0    0  0.84000542341E+02  0.12473171325E+03  0.10942924013E+03  0.18598077858E+03  0.00000000000E+00 0.  1.
         14    1    4    4    0    0  0.36214974025E+02  0.90859673311E+02  0.16104612428E+03  0.18842202293E+03  0.00000000000E+00 0. -1.
         -5    1    5    5    0  502 -0.82560566040E+02 -0.15707610944E+03  0.51397492643E+03  0.54376600319E+03  0.47000000000E+01 0.  1.
         13    1    6    6    0    0  0.29081840737E+01  0.82563585059E+01 -0.15251929175E+01  0.88854489938E+01  0.00000000000E+00 0. -1.
        -14    1    6    6    0    0 -0.69751543068E+02 -0.11676103434E+03  0.20200662161E+03  0.24352636834E+03  0.00000000000E+00 0.  1.
</event>
<event>
12    1  0.8500177E-002  0.1745515E+03  0.7818608E-02  0.1173498E+00
         21   -1    0    0  501  502  0.00000000000E+00  0.00000000000E+00  0.17998508477E+02  0.17998508477E+02  0.00000000000E+00 0. -1.
         21   -1    0    0  502  503 -0.00000000000E+00 -0.00000000000E+00 -0.17917926936E+04  0.17917926936E+04  0.00000000000E+00 0. -1.
         -6    2    1    2    0  503  0.22450083987E+02 -0.12261368350E+02 -0.11091704563E+04  0.11226282461E+04  0.17140808116E+03 0.  0.
        -24    2    3    3    0    0  0.56570371864E+02 -0.57739174148E+02 -0.66888656060E+03  0.67866380640E+03  0.81494244968E+02 0.  0.
          6    2    1    2  501    0 -0.22450083987E+02  0.12261368350E+02 -0.66462372878E+03  0.68716295598E+03  0.17266696206E+03 0.  0.
         24    2    5    5    0    0 -0.43550871449E+01 -0.56220787187E+02 -0.29040055119E+03  0.30626623614E+03  0.79289239952E+02 0.  0.
          5    1    5    5  501    0 -0.18094996842E+02  0.68482155537E+02 -0.37422317758E+03  0.38089671983E+03  0.47000000000E+01 0. -1.
        -11    1    6    6    0    0  0.32635180602E+02 -0.20021804763E+02 -0.18405663657E+03  0.18799673706E+03  0.00000000000E+00 0.  1.
         12    1    6    6    0    0 -0.36990267747E+02 -0.36198982424E+02 -0.10634391462E+03  0.11826949908E+03  0.00000000000E+00 0. -1.
         -5    1    3    3    0  503 -0.34120287877E+02  0.45477805798E+02 -0.44028389572E+03  0.44396443968E+03  0.47000000000E+01 0.  1.
         11    1    4    4    0    0 -0.14126438286E+02 -0.38544518144E+02 -0.21136749037E+03  0.21531709668E+03  0.00000000000E+00 0. -1.
        -12    1    4    4    0    0  0.70696810150E+02 -0.19194656004E+02 -0.45751907023E+03  0.46334670972E+03  0.00000000000E+00 0.  1.
</event>
<event>
12    1  0.8500177E-002  0.2304559E+03  0.7818608E-02  0.1127306E+00
         21   -1    0    0  503  502  0.00000000000E+00  0.00000000000E+00  0.10901251700E+04  0.10901251700E+04  0.00000000000E+00 0.  1.
         21   -1    0    0  501  503 -0.00000000000E+00 -0.00000000000E+00 -0.47552703172E+02  0.47552703172E+02  0.00000000000E+00 0.  1.
          6    2    1    2  501    0 -0.12562066589E+03  0.75794634853E+02  0.51586067220E+03  0.56275593581E+03  0.17046005924E+03 0.  0.
         24    2    3    3    0    0 -0.10175708186E+03  0.92584401450E+02  0.25837467788E+03  0.30357936632E+03  0.80477216537E+02 0.  0.
         -6    2    1    2    0  502  0.12562066589E+03 -0.75794634853E+02  0.52671179464E+03  0.57492193737E+03  0.17772040144E+03 0.  0.
        -24    2    5    5    0    0  0.12505375065E+03 -0.39096451048E+02  0.51310522440E+03  0.53549723901E+03  0.79456583384E+02 0.  0.
          5    1    3    3  501    0 -0.23863584034E+02 -0.16789766597E+02  0.25748599432E+03  0.25917656949E+03  0.47000000000E+01 0. -1.
        -11    1    4    4    0    0 -0.25929822334E+02 -0.33595697629E+01  0.12519853900E+02  0.28989465965E+02  0.00000000000E+00 0.  1.
         12    1    4    4    0    0 -0.75827259524E+02  0.95943971213E+02  0.24585482398E+03  0.27458990035E+03  0.00000000000E+00 0. -1.
         -5    1    5    5    0  502  0.56691523753E+00 -0.36698183805E+02  0.13606570242E+02  0.39424698365E+02  0.47000000000E+01 0.  1.
         11    1    6    6    0    0 -0.32556190529E+01 -0.59394632183E+01  0.12890926169E+03  0.12908707924E+03  0.00000000000E+00 0. -1.
        -12    1    6    6    0    0  0.12830936971E+03 -0.33156987830E+02  0.38419596271E+03  0.40641015976E+03  0.00000000000E+00 0.  1.
</event>
<event>
12    1  0.8500177E-002  0.2018601E+03  0.7818608E-02  0.1148699E+00
         21   -1    0    0  501  502  0.00000000000E+00  0.00000000000E+00  0.82432728534E+02  0.82432728534E+02  0.00000000000E+00 0.  1.
         21   -1    0    0  502  503 -0.00000000000E+00 -0.00000000000E+00 -0.54101355622E+03  0.54101355622E+03  0.00000000000E+00 0.  1.
         -6    2    1    2    0  503  0.56099079795E+02 -0.89097645227E+02 -0.32790513693E+03  0.38505750336E+03  0.17222660925E+03 0.  0.
        -24    2    3    3    0    0 -0.10961876386E+02 -0.75111480926E+02 -0.28140118612E+03  0.30212685718E+03  0.79574574944E+02 0.  0.
          6    2    1    2  501    0 -0.56099079795E+02  0.89097645227E+02 -0.13067569076E+03  0.23838878139E+03  0.16931502532E+03 0.  0.
         24    2    5    5    0    0 -0.21538424214E+02  0.40074373304E+02 -0.14920877121E+03  0.17543415348E+03  0.80274688968E+02 0.  0.
          5    1    5    5  501    0 -0.34560655582E+02  0.49023271923E+02  0.18533080451E+02  0.62954627910E+02  0.47000000000E+01 0. -1.
        -11    1    6    6    0    0 -0.79344783522E+01  0.49065616821E+02 -0.36786922601E+02  0.61835817899E+02  0.00000000000E+00 0.  1.
         12    1    6    6    0    0 -0.13603945861E+02 -0.89912435168E+01 -0.11242184861E+03  0.11359833558E+03  0.00000000000E+00 0. -1.
         -5    1    3    3    0  503  0.67060956181E+02 -0.13986164301E+02 -0.46503950808E+02  0.82930646185E+02  0.47000000000E+01 0.  1.
         11    1    4    4    0    0 -0.18458329496E+02 -0.45610690733E+00 -0.10963198779E+02  0.21473464760E+02  0.00000000000E+00 0. -1.
        -12    1    4    4    0    0  0.74964531101E+01 -0.74655374018E+02 -0.27043798734E+03  0.28065339242E+03  0.00000000000E+00 0.  1.
</event>
<event>
12    1  0.8500177E-002  0.2034614E+03  0.7818608E-02  0.1146986E+00
         21   -1    0    0  501  502  0.00000000000E+00  0.00000000000E+00  0.42510028040E+03  0.42510028040E+03  0.00000000000E+00 0. -1.
         21   -1    0    0  502  503 -0.00000000000E+00 -0.00000000000E+00 -0.10859044842E+03  0.10859044842E+03  0.00000000000E+00 0. -1.
         -6    2    1    2    0  503 -0.84009776676E+02  0.67148750556E+02  0.24540692142E+03  0.31878062181E+03  0.17271343457E+03 0.  0.
        -24    2    3    3    0    0 -0.56448576690E+02 -0.14063306684E+02  0.19732792516E+03  0.22034943840E+03  0.78938878569E+02 0.  0.
          6    2    1    2  501    0  0.84009776676E+02 -0.67148750556E+02  0.71102910566E+02  0.21491010701E+03  0.17194223718E+03 0.  0.
         24    2    5    5    0    0  0.58974871265E+02  0.22422224904E+02  0.64767626700E+01  0.10155961021E+03  0.79319697182E+02 0.  0.
          5    1    5    5  501    0  0.25034905410E+02 -0.89570975460E+02  0.64626147896E+02  0.11335049680E+03  0.47000000000E+01 0. -1.
        -11    1    6    6    0    0 -0.17850862958E+01 -0.23575378577E+02 -0.58648755674E+01  0.24359428843E+02  0.00000000000E+00 0.  1.
         12    1    6    6    0    0  0.60759957561E+02  0.45997603481E+02  0.12341638237E+02  0.77200181368E+02  0.00000000000E+00 0. -1.
         -5    1    3    3    0  503 -0.27561199985E+02  0.81212057240E+02  0.48078996258E+02  0.98431183407E+02  0.47000000000E+01 0.  1.
         13    1    4    4    0    0 -0.54767757978E+02  0.16839753452E+02  0.76251634531E+02  0.95380272483E+02  0.00000000000E+00 0. -1.
        -14    1    4    4    0    0 -0.16808187120E+01 -0.30903060136E+02  0.12107629063E+03  0.12496916592E+03  0.00000000000E+00 0.  1.
</event>
<event>
12    1  0.8500177E-002  0.1828023E+03  0.7818608E-02  0.1166430E+00
         21   -1    0    0  503  502  0.00000000000E+00  0.00000000000E+00  0.13187117331E+02  0.13187117331E+02  0.00000000000E+00 0. -1.
         21   -1    0    0  501  503 -0.00000000000E+00 -0.00000000000E+00 -0.28123255343E+04  0.28123255343E+04  0.00000000000E+00 0. -1.
          6    2    1    2  501    0  0.49337753762E+02 -0.15863738378E+02 -0.18816692605E+04  0.18900094051E+04  0.16961861085E+03 0.  0.
         24    2    3    3    0    0  0.35426002071E+01  0.28350412562E+01 -0.41833206871E+03  0.42582886041E+03  0.79422359382E+02 0.  0.
         -6    2    1    2    0  502 -0.49337753762E+02  0.15863738378E+02 -0.91746915646E+03  0.93550324656E+03  0.17530202263E+03 0.  0.
        -24    2    5    5    0    0 -0.45444712341E+02 -0.57406176072E+02 -0.61371441108E+03  0.62297697331E+03  0.78065613272E+02 0.  0.
          5    1    3    3  501    0  0.45795153555E+02 -0.18698779634E+02 -0.14633371918E+04  0.14641805447E+04  0.47000000000E+01 0. -1.
        -13    1    4    4    0    0 -0.21204668356E+02 -0.28791619447E+02 -0.26166314376E+03  0.26409505129E+03  0.00000000000E+00 0.  1.
         14    1    4    4    0    0  0.24747268564E+02  0.31626660703E+02 -0.15666892495E+03  0.16173380912E+03  0.00000000000E+00 0. -1.
         -5    1    5    5    0  502 -0.38930414204E+01  0.73269914450E+02 -0.30375474537E+03  0.31252627325E+03  0.47000000000E+01 0.  1.
         13    1    6    6    0    0 -0.13007482835E+02  0.19092591048E+02 -0.10407015870E+03  0.10660356267E+03  0.00000000000E+00 0. -1.
        -14    1    6    6    0    0 -0.32437229506E+02 -0.76498767120E+02 -0.50964425239E+03  0.51637341064E+03  0.00000000000E+00 0.  1.
</event>
<event>
12    1  0.8500177E-002  0.1835795E+03  0.7818608E-02  0.1165284E+00
         21   -1    0    0  503  502  0.00000000000E+00  0.00000000000E+00  0.43723234471E+02  0.43723234471E+02  0.00000000000E+00 0.  1.
         21   -1    0    0  501  503 -0.00000000000E+00 -0.00000000000E+00 -0.29784929782E+04  0.29784929782E+04  0.00000000000E+00 0.  1.
          6    2    1    2  501    0  0.55036279844E+02 -0.46204582257E+01 -0.27691120655E+04  0.27749432522E+04  0.17110838888E+03 0.  0.
         24    2    3    3    0    0 -0.18084411364E+02 -0.15338422033E+02 -0.21379760915E+04  0.21394778968E+04  0.76561020399E+02 0.  0.
         -6    2    1    2    0  502 -0.55036279844E+02  0.46204582257E+01 -0.16565767816E+03  0.24727296043E+03  0.17507458380E+03 0.  0.
        -24    2    5    5    0    0 -0.16973042585E+02 -0.14469334375E+02 -0.18204470407E+03  0.20140516312E+03  0.83224513448E+02 0.  0.
          5    1    3    3  501    0  0.73120691209E+02  0.10717963807E+02 -0.63113597401E+03  0.63546535540E+03  0.47000000000E+01 0. -1.
        -11    1    4    4    0    0 -0.10942299376E+02 -0.42803985095E+02 -0.81431482400E+03  0.81551244481E+03  0.00000000000E+00 0.  1.
         12    1    4    4    0    0 -0.71421119882E+01  0.27465563062E+02 -0.13236612675E+04  0.13239654520E+04  0.00000000000E+00 0. -1.
         -5    1    5    5    0  502 -0.38063237260E+02  0.19089792601E+02  0.16387025909E+02  0.45867797313E+02  0.47000000000E+01 0.  1.
         13    1    6    6    0    0 -0.20774193357E+02  0.22077687380E+02 -0.14879068251E+03  0.15184748464E+03  0.00000000000E+00 0. -1.
        -14    1    6    6    0    0  0.38011507728E+01 -0.36547021755E+02 -0.33254021567E+02  0.49557678484E+02  0.00000000000E+00 0.  1.
</event>
<event>
12    1  0.8500177E-002  0.2038216E+03  0.7818608E-02  0.1148278E+00
         21   -1    0    0  503  502  0.00000000000E+00  0.00000000000E+00  0.29376890466E+02  0.29376890466E+02  0.00000000000E+00 0. -1.
         21   -1    0    0  501  503 -0.00000000000E+00 -0.00000000000E+00 -0.13814805353E+04  0.13814805353E+04  0.00000000000E+00 0. -1.
          6    2    1    2  501    0 -0.91869273444E+02 -0.66227933965E-01 -0.78192666149E+03  0.80805479775E+03  0.18194308022E+03 0.  0.
         24    2    3    3    0    0 -0.76449234192E+02  0.70834603980E+02 -0.41742092456E+03  0.43636779525E+03  0.72901289036E+02 0.  0.
         -6    2    1    2    0  502  0.91869273444E+02  0.66227933965E-01 -0.57017698330E+03  0.60280262797E+03  0.17271145940E+03 0.  0.
        -24    2    5    5    0    0  0.11275804093E+03  0.30863615787E+02 -0.30465444275E+03  0.33464385178E+03  0.74197300972E+02 0.  0.
          5    1    3    3  501    0 -0.15420039252E+02 -0.70900831914E+02 -0.36450573693E+03  0.37168700250E+03  0.47000000000E+01 0. -1.
        -13    1    4    4    0    0 -0.74864820006E+01  0.55824633028E+02 -0.17085220307E+03  0.17989694928E+03  0.00000000000E+00 0.  1.
         14    1    4    4    0    0 -0.68962752191E+02  0.15009970952E+02 -0.24656872149E+03  0.25647084597E+03  0.00000000000E+00 0. -1.
         -5    1    5    5    0  502 -0.20888767489E+02 -0.30797387853E+02 -0.26552254055E+03  0.26815877619E+03  0.47000000000E+01 0.  1.
         11    1    6    6    0    0  0.68690839713E+01  0.31063390362E+02 -0.56485265431E+02  0.64828263483E+02  0.00000000000E+00 0. -1.
        -12    1    6    6    0    0  0.10588895696E+03 -0.19977457484E+00 -0.24816917732E+03  0.26981558830E+03  0.00000000000E+00 0.  1.
</event>
<event>
12    1  0.8500177E-002  0.2015259E+03  0.7818608E-02  0.1148654E+00
         21   -1    0    0  501  502  0.00000000000E+00  0.00000000000E+00  0.83099224945E+02  0.83099224945E+02  0.00000000000E+00 0.  1.
         21   -1    0    0  502  503 -0.00000000000E+00 -0.00000000000E+00 -0.78204898815E+03  0.78204898815E+03  0.00000000000E+00 0.  1.
         -6    2    1    2    0  503 -0.96900817742E+02  0.36554219464E+02 -0.61592167862E+03  0.64805263471E+03  0.17287777104E+03 0.  0.
        -24    2    3    3    0    0 -0.38948692732E+02 -0.49120720415E+01 -0.13625219907E+03  0.16309614003E+03  0.80588833112E+02 0.  0.
          6    2    1    2  501    0  0.96900817742E+02 -0.36554219464E+02 -0.83028084583E+02  0.21709557838E+03  0.17178721688E+03 0.  0.
         24    2    5    5    0    0  0.85887566833E+02 -0.88431025108E+02 -0.72881220990E+02  0.16289646861E+03  0.77632897507E+02 0.  0.
          5    1    5    5  501    0  0.11013250910E+02  0.51876805643E+02 -0.10146863593E+02  0.54199109772E+02  0.47000000000E+01 0. -1.
        -13    1    6    6    0    0  0.22966705302E+02 -0.36472800369E+02  0.12414681990E+02  0.44853751773E+02  0.00000000000E+00 0.  1.
         14    1    6    6    0    0  0.62920861531E+02 -0.51958224738E+02 -0.85295902980E+02  0.11804271684E+03  0.00000000000E+00 0. -1.
         -5    1    3    3    0  503 -0.57952125010E+02  0.41466291506E+02 -0.47966947954E+03  0.48495649468E+03  0.47000000000E+01 0.  1.
         13    1    4    4    0    0  0.71624823043E+01  0.15672785100E+02 -0.98631730019E+02  0.10012569856E+03  0.00000000000E+00 0. -1.
        -14    1    4    4    0    0 -0.46111175036E+02 -0.20584857142E+02 -0.37620469055E+02  0.62970441468E+02  0.00000000000E+00 0.  1.
</event>
<event>
12    1  0.8500177E-002  0.2513133E+03  0.7818608E-02  0.1113276E+00
         21   -1    0    0  503  502  0.00000000000E+00  0.00000000000E+00  0.14709040624E+03  0.14709040624E+03  0.00000000000E+00 0. -1.
         21   -1    0    0  501  503 -0.00000000000E+00 -0.00000000000E+00 -0.47417040804E+03  0.47417040804E+03  0.00000000000E+00 0.  1.
          6    2    1    2  501    0  0.14828467566E+03  0.95490734204E+02 -0.26625296174E+03  0.36269105542E+03  0.17189338757E+03 0.  0.
         24    2    3    3    0    0  0.10924030069E+02  0.17664447227E+02 -0.75662435796E+02  0.11515981197E+03  0.84294786164E+02 0.  0.
         -6    2    1    2    0  502 -0.14828467566E+03 -0.95490734204E+02 -0.60827040060E+02  0.25856975886E+03  0.17902951165E+03 0.  0.
        -24    2    5    5    0    0 -0.15648146694E+03 -0.29336765781E+02 -0.17655568896E+02  0.17901222718E+03  0.79915974902E+02 0.  0.
          5    1    3    3  501    0  0.13736064559E+03  0.77826286977E+02 -0.19059052594E+03  0.24753124344E+03  0.47000000000E+01 0. -1.
        -13    1    4    4    0    0  0.25372330677E+02  0.27169791480E+02 -0.86911850132E+02  0.94528421262E+02  0.00000000000E+00 0.  1.
         14    1    4    4    0    0 -0.14448300607E+02 -0.95053442536E+01  0.11249414335E+02  0.20631390712E+02  0.00000000000E+00 0. -1.
         -5    1    5    5    0  502  0.81967912812E+01 -0.66153968423E+02 -0.43171471163E+02  0.79557531685E+02  0.47000000000E+01 0.  1.
         11    1    6    6    0    0 -0.38259225800E+02 -0.44559750151E+02 -0.17475704039E+01  0.58757073571E+02  0.00000000000E+00 0. -1.
        -12    1    6    6    0    0 -0.11822224114E+03  0.15222984370E+02 -0.15907998492E+02  0.12025515361E+03  0.00000000000E+00 0.  1.
</event>
<event>
12    1  0.8500177E-002  0.1796480E+03  0.7818608E-02  0.1168514E+00
         21   -1    0    0  501  502  0.00000000000E+00  0.00000000000E+00  0.59953416292E+02  0.59953416292E+02  0.00000000000E+00 0. -1.
         21   -1    0    0  502  503 -0.00000000000E+00 -0.00000000000E+00 -0.61213193867E+03  0.61213193867E+03  0.00000000000E+00 0. -1.
         -6    2    1    2    0  503  0.45147770377E+02 -0.59735353004E+00 -0.39734381613E+03  0.43606826170E+03  0.17388140398E+03 0.  0.
        -24    2    3    3    0    0  0.73135116484E+01 -0.33699142731E+01 -0.38612187658E+03  0.39622933409E+03  0.88559233500E+02 0.  0.
          6    2    1    2  501    0 -0.45147770377E+02  0.59735353004E+00 -0.15483470624E+03  0.23601709325E+03  0.17231251855E+03 0.  0.
         24    2    5    5    0    0 -0.90562897912E+02 -0.17608672965E+02 -0.14184103290E+03  0.18517499695E+03  0.75227634813E+02 0.  0.
          5    1    5    5  501    0  0.45415127535E+02  0.18206026495E+02 -0.12993673348E+02  0.50842096306E+02  0.47000000000E+01 0. -1.
        -11    1    6    6    0    0 -0.69758820803E+02 -0.12098439622E+02 -0.14689608316E+03  0.16306785265E+03  0.00000000000E+00 0.  1.
         12    1    6    6    0    0 -0.20804077110E+02 -0.55102333438E+01  0.50550502600E+01  0.22107144298E+02  0.00000000000E+00 0. -1.
         -5    1    3    3    0  503  0.37834258729E+02  0.27725607430E+01 -0.11221939545E+02  0.39838927618E+02  0.47000000000E+01 0.  1.
         13    1    4    4    0    0  0.33642578676E+02 -0.33543473408E+02 -0.24354450767E+03  0.24813487245E+03  0.00000000000E+00 0. -1.
        -14    1    4    4    0    0 -0.26329067027E+02  0.30173559135E+02 -0.14257736891E+03  0.14809446164E+03  0.00000000000E+00 0.  1.
</event>
<event>
12    1  0.8500177E-002  0.1960836E+03  0.7818608E-02  0.1153312E+00
         21   -1    0    0  503  502  0.00000000000E+00  0.00000000000E+00  0.41879613391E+02  0.41879613391E+02  0.00000000000E+00 0.  1.
         21   -1    0    0  501  503 -0.00000000000E+00 -0.00000000000E+00 -0.10121750942E+04  0.10121750942E+04  0.00000000000E+00 0. -1.
          6    2    1    2  501    0 -0.87623065080E+02  0.32927259481E+02 -0.64877398328E+03  0.67745831972E+03  0.17111425313E+03 0.  0.
         24    2    3    3    0    0 -0.79503374346E+02 -0.40716402669E+02 -0.34909189094E+03  0.36871770881E+03  0.78160018520E+02 0.  0.
         -6    2    1    2    0  502  0.87623065080E+02 -0.32927259481E+02 -0.32152149753E+03  0.37659638787E+03  0.17229846208E+03 0.  0.
        -24    2    5    5    0    0 -0.55534960428E+01 -0.44572424339E+02 -0.21891389425E+03  0.23742781507E+03  0.80194338574E+02 0.  0.
          5    1    3    3  501    0 -0.81196907336E+01  0.73643662149E+02 -0.29968209234E+03  0.30874061091E+03  0.47000000000E+01 0. -1.
        -11    1    4    4    0    0 -0.71063276066E+02 -0.56432992964E+02 -0.33137503699E+03  0.34357544592E+03  0.00000000000E+00 0.  1.
         12    1    4    4    0    0 -0.84400982803E+01  0.15716590296E+02 -0.17716853949E+02  0.25142262892E+02  0.00000000000E+00 0. -1.
         -5    1    5    5    0  502  0.93176561123E+02  0.11645164859E+02 -0.10260760327E+03  0.13916857281E+03  0.47000000000E+01 0.  1.
         11    1    6    6    0    0 -0.20133683061E+02  0.11319659864E+02 -0.20861375093E+02  0.31123895383E+02  0.00000000000E+00 0. -1.
        -12    1    6    6    0    0  0.14580187018E+02 -0.55892084203E+02 -0.19805251916E+03  0.20630391968E+03  0.00000000000E+00 0.  1.
</event>
<event>
12    1  0.8500177E-002  0.2558751E+03  0.7818608E-02  0.1109962E+00
         21   -1    0    0  503  502  0.00000000000E+00  0.00000000000E+00  0.17547377040E+03  0.17547377040E+03  0.00000000000E+00 0.  1.
         21   -1    0    0  501  503 -0.00000000000E+00 -0.00000000000E+00 -0.58352763659E+03  0.58352763659E+03  0.00000000000E+00 0. -1.
          6    2    1    2  501    0  0.18393270959E+03  0.31736797745E+02 -0.43299677196E+03  0.50191346945E+03  0.17202459213E+03 0.  0.
         24    2    3    3    0    0  0.41610172154E+02 -0.35320223730E+02 -0.16594840754E+03  0.19193078004E+03  0.79496073686E+02 0.  0.
         -6    2    1    2    0  502 -0.18393270959E+03 -0.31736797745E+02  0.24942905771E+02  0.25708793754E+03  0.17502454997E+03 0.  0.
        -24    2    5    5    0    0 -0.20100233311E+02 -0.32354710877E+02 -0.14808267131E+02  0.88435312751E+02  0.78426226932E+02 0.  0.
          5    1    3    3  501    0  0.14232253744E+03  0.67057021475E+02 -0.26704836443E+03  0.30998268941E+03  0.47000000000E+01 0. -1.
        -13    1    4    4    0    0  0.84342915140E+01 -0.40236818693E+01 -0.13826060515E+03  0.13857605213E+03  0.00000000000E+00 0.  1.
         14    1    4    4    0    0  0.33175880640E+02 -0.31296541861E+02 -0.27687802387E+02  0.53354727904E+02  0.00000000000E+00 0. -1.
         -5    1    5    5    0  502 -0.16383247628E+03  0.61791313220E+00  0.39751172902E+02  0.16865262479E+03  0.47000000000E+01 0.  1.
         11    1    6    6    0    0 -0.30984648097E+02 -0.23938569204E+02 -0.42332345747E+02  0.57663948960E+02  0.00000000000E+00 0. -1.
        -12    1    6    6    0    0  0.10884414786E+02 -0.84161416732E+01  0.27524078615E+02  0.30771363790E+02  0.00000000000E+00 0.  1.
</event>
<event>
12    1  0.8500177E-002  0.1726799E+03  0.7818608E-02  0.1176528E+00
         21   -1    0    0  503  502  0.00000000000E+00  0.00000000000E+00  0.13420119670E+03  0.13420119670E+03  0.00000000000E+00 0. -1.
         21   -1    0    0  501  503 -0.00000000000E+00 -0.00000000000E+00 -0.32017874191E+03  0.32017874191E+03  0.00000000000E+00 0. -1.
          6    2    1    2  501    0 -0.71846374465E+01  0.81435665427E+01 -0.22211284376E+03  0.27795968900E+03  0.16676191608E+03 0.  0.
         24    2    3    3    0    0 -0.27409502163E+02  0.28250692773E+02 -0.78659691351E+02  0.13162364213E+03  0.97918607384E+02 0.  0.
         -6    2    1    2    0  502  0.71846374465E+01 -0.81435665427E+01  0.36135298549E+02  0.17642024961E+03  0.17233806306E+03 0.  0.
        -24    2    5    5    0    0  0.45366284082E+01 -0.30887329912E+02  0.85440046824E+02  0.12185525234E+03  0.81080779322E+02 0.  0.
          5    1    3    3  501    0  0.20224864717E+02 -0.20107126230E+02 -0.14345315241E+03  0.14633604688E+03  0.47000000000E+01 0. -1.
        -13    1    4    4    0    0  0.14851584464E+02 -0.43748633300E+01  0.16427186031E+02  0.22573467416E+02  0.00000000000E+00 0.  1.
         14    1    4    4    0    0 -0.42261086627E+02  0.32625556103E+02 -0.95086877382E+02  0.10905017471E+03  0.00000000000E+00 0. -1.
         -5    1    5    5    0  502  0.26480090383E+01  0.22743763369E+02 -0.49304748275E+02  0.54564997265E+02  0.47000000000E+01 0.  1.
         11    1    6    6    0    0  0.12828080301E+02 -0.51013071054E+02  0.26245137915E+02  0.58785204999E+02  0.00000000000E+00 0. -1.
        -12    1    6    6    0    0 -0.82914518924E+01  0.20125741142E+02  0.59194908909E+02  0.63070047343E+02  0.00000000000E+00 0.  1.
</event>
<event>
12    1  0.8500177E-002  0.2010612E+03  0.7818608E-02  0.1148857E+00
         21   -1    0    0  503  502  0.00000000000E+00  0.00000000000E+00  0.54264753039E+03  0.54264753039E+03  0.00000000000E+00 0. -1.
         21   -1    0    0  501  503 -0.00000000000E+00 -0.00000000000E+00 -0.76727327652E+02  0.76727327652E+02  0.00000000000E+00 0. -1.
          6    2    1    2  501    0  0.10285291049E+03  0.57260848501E+01  0.17997165601E+03  0.26984329737E+03  0.17266759663E+03 0.  0.
         24    2    3    3    0    0  0.61960381813E+02  0.68528943700E+02  0.13955449897E+03  0.18456707229E+03  0.77809003018E+02 0.  0.
         -6    2    1    2    0  502 -0.10285291049E+03 -0.57260848501E+01  0.28594854673E+03  0.34953156067E+03  0.17261005557E+03 0.  0.
        -24    2    5    5    0    0 -0.13076661272E+03 -0.77414023664E+01  0.16361416724E+03  0.22394881233E+03  0.78890040607E+02 0.  0.
          5    1    3    3  501    0  0.40892528679E+02 -0.62802858850E+02  0.40417157036E+02  0.85276225082E+02  0.47000000000E+01 0. -1.
        -13    1    4    4    0    0  0.28357326864E+02  0.32050219313E+02  0.74223830757E+01  0.43433239753E+02  0.00000000000E+00 0.  1.
         14    1    4    4    0    0  0.33603054949E+02  0.36478724386E+02  0.13213211590E+03  0.14113383254E+03  0.00000000000E+00 0. -1.
         -5    1    5    5    0  502  0.27913702230E+02  0.20153175163E+01  0.12233437949E+03  0.12558274835E+03  0.47000000000E+01 0.  1.
         11    1    6    6    0    0 -0.79381172418E+02  0.26945412076E+02  0.12630019360E+03  0.15158880127E+03  0.00000000000E+00 0. -1.
        -12    1    6    6    0    0 -0.51385440304E+02 -0.34686814443E+02  0.37313973639E+02  0.72360011056E+02  0.00000000000E+00 0.  1.
</event>
<event>
12    1  0.8500177E-002  0.3515537E+03  0.7818608E-02  0.1061999E+00
         21   -1    0    0  503  502  0.00000000000E+00  0.00000000000E+00  0.72435072121E+03  0.72435072121E+03  0.00000000000E+00 0. -1.
         21   -1    0    0  501  503 -0.00000000000E+00 -0.00000000000E+00 -0.17101513930E+03  0.17101513930E+03  0.00000000000E+00 0. -1.
          6    2    1    2  501    0  0.33584399453E+01  0.30661715382E+03  0.25283232484E+03  0.43302909131E+03  0.17194374459E+03 0.  0.
         24    2    3    3    0    0 -0.33398704107E+02  0.28653095698E+03  0.17999984114E+03  0.34887920347E+03  0.78110774286E+02 0.  0.
         -6    2    1    2    0  502 -0.33584399453E+01 -0.30661715382E+03  0.30050325707E+03  0.46233676920E+03  0.17154510343E+03 0.  0.
        -24    2    5    5    0    0 -0.63028100837E+02 -0.18833579122E+03  0.14807049386E+03  0.26032492186E+03  0.80008012332E+02 0.  0.
          5    1    3    3  501    0  0.36757144053E+02  0.20086196842E+02  0.72832483692E+02  0.84149887839E+02  0.47000000000E+01 0. -1.
        -13    1    4    4    0    0 -0.39722321905E+02  0.10475945217E+03  0.38603245347E+02  0.11850154525E+03  0.00000000000E+00 0.  1.
         14    1    4    4    0    0  0.63236177972E+01  0.18177150481E+03  0.14139659580E+03  0.23037765822E+03  0.00000000000E+00 0. -1.
         -5    1    5    5    0  502  0.59669660892E+02 -0.11828136260E+03  0.15243276321E+03  0.20201184735E+03  0.47000000000E+01 0.  1.
         13    1    6    6    0    0 -0.55585137102E+02 -0.15860458618E+03  0.15530552543E+03  0.22883384464E+03  0.00000000000E+00 0. -1.
        -14    1    6    6    0    0 -0.74429637353E+01 -0.29731205039E+02 -0.72350315702E+01  0.31491077213E+02  0.00000000000E+00 0.  1.
</event>
<event>
12    1  0.8500177E-002  0.2019924E+03  0.7818608E-02  0.1148158E+00
         21   -1    0    0  501  502  0.00000000000E+00  0.00000000000E+00  0.39128579867E+03  0.39128579867E+03  0.00000000000E+00 0.  1.
         21   -1    0    0  502  503 -0.00000000000E+00 -0.00000000000E+00 -0.17991076420E+03  0.17991076420E+03  0.00000000000E+00 0. -1.
         -6    2    1    2    0  503 -0.39321118085E+02  0.96885013498E+02 -0.79826097599E+02  0.21679701985E+03  0.17232494245E+03 0.  0.
        -24    2    3    3    0    0 -0.71984548109E+02  0.36419536473E+02 -0.23381462931E+01  0.11311748393E+03  0.79258693140E+02 0.  0.
          6    2    1    2  501    0  0.39321118085E+02 -0.96885013498E+02  0.29120113207E+03  0.35439954302E+03  0.17282384269E+03 0.  0.
         24    2    5    5    0    0  0.66159273686E+02 -0.12553427897E+03  0.23054374073E+03  0.28199459753E+03  0.78959685611E+02 0.  0.
          5    1    5    5  501    0 -0.26838155601E+02  0.28649265467E+02  0.60657391338E+02  0.72404945493E+02  0.47000000000E+01 0. -1.
        -13    1    6    6    0    0  0.32454596503E+02 -0.10255179924E+03  0.21083463007E+03  0.23668843148E+03  0.00000000000E+00 0.  1.
         14    1    6    6    0    0  0.33704677183E+02 -0.22982479722E+02  0.19709110667E+02  0.45306166043E+02  0.00000000000E+00 0. -1.
         -5    1    3    3    0  503  0.32663430024E+02  0.60465477025E+02 -0.77487951306E+02  0.10367953593E+03  0.47000000000E+01 0.  1.
         11    1    4    4    0    0 -0.69786007184E+02 -0.49017176415E+01 -0.11064912521E+02  0.70827578835E+02  0.00000000000E+00 0. -1.
        -12    1    4    4    0    0 -0.21985409247E+01  0.41321254114E+02  0.87267662280E+01  0.42289905091E+02  0.00000000000E+00 0.  1.
</event>
<event>
12    1  0.8500177E-002  0.1878113E+03  0.7818608E-02  0.1160964E+00
         21   -1    0    0  503  502  0.00000000000E+00  0.00000000000E+00  0.26925448036E+03  0.26925448036E+03  0.00000000000E+00 0.  1.
         21   -1    0    0  501  503 -0.00000000000E+00 -0.00000000000E+00 -0.17900704860E+03  0.17900704860E+03  0.00000000000E+00 0. -1.
          6    2    1    2  501    0  0.69571984296E+02  0.82347975818E+01 -0.72996427922E+02  0.19942093617E+03  0.17184923161E+03 0.  0.
         24    2    3    3    0    0  0.10628647647E+03 -0.25451864839E+02 -0.56403195732E+02  0.14669361389E+03  0.79956759336E+02 0.  0.
         -6    2    1    2    0  502 -0.69571984296E+02 -0.82347975818E+01  0.16324385968E+03  0.24884059278E+03  0.17425558815E+03 0.  0.
        -24    2    5    5    0    0 -0.71985587715E+01  0.18421141346E+02  0.26446459685E+02  0.96077370974E+02  0.90223546187E+02 0.  0.
          5    1    3    3  501    0 -0.36714492174E+02  0.33686662421E+02 -0.16593232190E+02  0.52727322283E+02  0.47000000000E+01 0. -1.
        -11    1    4    4    0    0  0.30580700798E+02  0.22709870417E+02  0.43429102721E+01  0.38337688315E+02  0.00000000000E+00 0.  1.
         12    1    4    4    0    0  0.75705775671E+02 -0.48161735256E+02 -0.60746106004E+02  0.10835592558E+03  0.00000000000E+00 0. -1.
         -5    1    5    5    0  502 -0.62373425525E+02 -0.26655938928E+02  0.13679739999E+03  0.15276322181E+03  0.47000000000E+01 0.  1.
         13    1    6    6    0    0 -0.22473580327E+02 -0.29500532748E+02 -0.39713370722E+01  0.37297650908E+02  0.00000000000E+00 0. -1.
        -14    1    6    6    0    0  0.15275021556E+02  0.47921674094E+02  0.30417796757E+02  0.58779720066E+02  0.00000000000E+00 0.  1.
</event>
<event>
12    1  0.8500177E-002  0.2192445E+03  0.7818608E-02  0.1135967E+00
         21   -1    0    0  501  502  0.00000000000E+00  0.00000000000E+00  0.15881256582E+04  0.15881256582E+04  0.00000000000E+00 0.  1.
         21   -1    0    0  502  503 -0.00000000000E+00 -0.00000000000E+00 -0.34929134565E+02  0.34929134565E+02  0.00000000000E+00 0.  1.
         -6    2    1    2    0  503 -0.71490789551E+02 -0.11657843227E+03  0.43537725977E+03  0.48393755994E+03  0.16106129185E+03 0.  0.
        -24    2    3    3    0    0  0.14291372812E+02 -0.82988743012E+02  0.21723454008E+03  0.24709334371E+03  0.82297632420E+02 0.  0.
          6    2    1    2  501    0  0.71490789551E+02  0.11657843227E+03  0.11178192638E+04  0.11391172328E+04  0.17136714851E+03 0.  0.
         24    2    5    5    0    0  0.10385868122E+03  0.12679161444E+03  0.90120711554E+03  0.91981173289E+03  0.83765265479E+02 0.  0.
          5    1    5    5  501    0 -0.32367891669E+02 -0.10213182165E+02  0.21661214827E+03  0.21930549989E+03  0.47000000000E+01 0. -1.
        -13    1    6    6    0    0  0.61075538674E+02  0.25654049306E+02  0.47891709862E+03  0.48347692708E+03  0.00000000000E+00 0.  1.
         14    1    6    6    0    0  0.42783142546E+02  0.10113756513E+03  0.42229001692E+03  0.43633480580E+03  0.00000000000E+00 0. -1.
         -5    1    3    3    0  503 -0.85782162363E+02 -0.33589689260E+02  0.21814271970E+03  0.23684421623E+03  0.47000000000E+01 0.  1.
         13    1    4    4    0    0  0.20620841965E+02  0.48334838440E+01  0.13422006286E+02  0.25074527755E+02  0.00000000000E+00 0. -1.
        -14    1    4    4    0    0 -0.63294691528E+01 -0.87822226856E+02  0.20381253379E+03  0.22201881596E+03  0.00000000000E+00 0.  1.
</event>
<event>
12    1  0.8500177E-002  0.2319902E+03  0.7818608E-02  0.1125828E+00
         21   -1    0    0  501  502  0.00000000000E+00  0.00000000000E+00  0.27001983990E+03  0.27001983990E+03  0.00000000000E+00 0.  1.
         21   -1    0    0  502  503 -0.00000000000E+00 -0.00000000000E+00 -0.21424278512E+03  0.21424278512E+03  0.00000000000E+00 0. -1.
         -6    2    1    2    0  503  0.55609155510E+02  0.14598716727E+03 -0.41649662959E+02  0.23569923602E+03  0.17150744664E+03 0.  0.
        -24    2    3    3    0    0  0.35550454519E+02  0.23716041463E+01 -0.18452113478E+02  0.88770689586E+02  0.79185197575E+02 0.  0.
          6    2    1    2  501    0 -0.55609155510E+02 -0.14598716727E+03  0.97426717742E+02  0.24856338900E+03  0.16699449643E+03 0.  0.
         24    2    5    5    0    0 -0.14079480039E+00 -0.86532243540E+02  0.11530390545E+03  0.16517687429E+03  0.80626051584E+02 0.  0.
          5    1    5    5  501    0 -0.55468360710E+02 -0.59454923725E+02 -0.17877187706E+02  0.83386514709E+02  0.47000000000E+01 0. -1.
        -13    1    6    6    0    0  0.27212340072E+02 -0.47149543320E+02  0.19111943696E+02  0.57696250132E+02  0.00000000000E+00 0.  1.
         14    1    6    6    0    0 -0.27353134873E+02 -0.39382700220E+02  0.96191961753E+02  0.10748062416E+03  0.00000000000E+00 0. -1.
         -5    1    3    3    0  503  0.20058700991E+02  0.14361556312E+03 -0.23197549481E+02  0.14692854643E+03  0.47000000000E+01 0.  1.
         11    1    4    4    0    0  0.30179576913E+02 -0.35904766621E+02 -0.25410663881E+01  0.46972504161E+02  0.00000000000E+00 0. -1.
        -12    1    4    4    0    0  0.53708776066E+01  0.38276370767E+02 -0.15911047090E+02  0.41798185425E+02  0.00000000000E+00 0.  1.
</event>
<event>
12    1  0.8500177E-002  0.2053813E+03  0.7818608E-02  0.1145465E+00
         21   -1    0    0  503  502  0.00000000000E+00  0.00000000000E+00  0.32485417878E+03  0.32485417878E+03  0.00000000000E+00 0. -1.
         21   -1    0    0  501  503 -0.00000000000E+00 -0.00000000000E+00 -0.17887017176E+03  0.17887017176E+03  0.00000000000E+00 0.  1.
          6    2    1    2  501    0 -0.28029642933E+02 -0.10809982961E+03 -0.59522847149E+02  0.21383272670E+03  0.17236656181E+03 0.  0.
         24    2    3    3    0    0 -0.43107065626E+02 -0.73596005335E+02 -0.10317652959E+03  0.15599176755E+03  0.80083982033E+02 0.  0.
         -6    2    1    2    0  502  0.28029642933E+02  0.10809982961E+03  0.20550685416E+03  0.28989162384E+03  0.17126836374E+03 0.  0.
        -24    2    5    5    0    0 -0.45856565426E+02  0.72643487411E+02  0.12264401658E+03  0.17325259161E+03  0.87149324949E+02 0.  0.
          5    1    3    3  501    0  0.15077422693E+02 -0.34503824274E+02  0.43653682440E+02  0.57840959148E+02  0.47000000000E+01 0. -1.
        -13    1    4    4    0    0  0.21011665614E+02 -0.13402066904E+02 -0.42079629728E+02  0.48906039783E+02  0.00000000000E+00 0.  1.
         14    1    4    4    0    0 -0.64118731239E+02 -0.60193938431E+02 -0.61096899861E+02  0.10708572777E+03  0.00000000000E+00 0. -1.
         -5    1    5    5    0  502  0.73886208359E+02  0.35456342197E+02  0.82862837579E+02  0.11663903223E+03  0.47000000000E+01 0.  1.
         13    1    6    6    0    0  0.22484980715E+02  0.89286563489E+01  0.47663244483E+02  0.53451661682E+02  0.00000000000E+00 0. -1.
        -14    1    6    6    0    0 -0.68341546140E+02  0.63714831062E+02  0.74980772100E+02  0.11980092992E+03  0.00000000000E+00 0.  1.
</event>
<event>
12    1  0.8500177E-002  0.2556493E+03  0.7818608E-02  0.1111639E+00
         21   -1    0    0  503  502  0.00000000000E+00  0.00000000000E+00  0.43442878612E+03  0.43442878612E+03  0.00000000000E+00 0. -1.
         21   -1    0    0  501  503 -0.00000000000E+00 -0.00000000000E+00 -0.16505581581E+03  0.16505581581E+03  0.00000000000E+00 0.  1.
          6    2    1    2  501    0  0.16987646499E+03  0.22213782111E+02  0.29386798206E+02  0.25733276597E+03  0.18975010687E+03 0.  0.
         24    2    3    3    0    0  0.27340457917E+02 -0.47738311315E+02  0.97017654245E+01  0.97272154937E+02  0.79632285334E+02 0.  0.
         -6    2    1    2    0  502 -0.16987646499E+03 -0.22213782111E+02  0.23998617211E+03  0.34215183596E+03  0.17355993366E+03 0.  0.
        -24    2    5    5    0    0 -0.49200911950E+02  0.20256670090E+01  0.30850128143E+02  0.99437776041E+02  0.80692675220E+02 0.  0.
          5    1    3    3  501    0  0.14253600708E+03  0.69952093426E+02  0.19685032781E+02  0.16006061103E+03  0.47000000000E+01 0. -1.
        -11    1    4    4    0    0  0.55107704037E+02 -0.24196838504E+02  0.90515225019E+01  0.60862764458E+02  0.00000000000E+00 0.  1.
         12    1    4    4    0    0 -0.27767246120E+02 -0.23541472811E+02  0.65024292258E+00  0.36409390479E+02  0.00000000000E+00 0. -1.
         -5    1    5    5    0  502 -0.12067555304E+03 -0.24239449120E+02  0.20913604397E+03  0.24271405992E+03  0.47000000000E+01 0.  1.
         11    1    6    6    0    0 -0.13821012355E+02 -0.17664827141E+02  0.49885892207E+02  0.54696149241E+02  0.00000000000E+00 0. -1.
        -12    1    6    6    0    0 -0.35379899595E+02  0.19690494150E+02 -0.19035764065E+02  0.44741626801E+02  0.00000000000E+00 0.  1.
</event>
<event>
12    1  0.8500177E-002  0.1824844E+03  0.7818608E-02  0.1166311E+00
         21   -1    0    0  501  502  0.00000000000E+00  0.00000000000E+00  0.13842441257E+03  0.13842441257E+03  0.00000000000E+00 0. -1.
         21   -1    0    0  502  503 -0.00000000000E+00 -0.00000000000E+00 -0.31768224762E+03  0.31768224762E+03  0.00000000000E+00 0. -1.
         -6    2    1    2    0  503 -0.20200235337E+02  0.48870362631E+02  0.26896405256E+02  0.18078841024E+03  0.17077666940E+03 0.  0.
        -24    2    3    3    0    0  0.13307127775E+02 -0.30179217839E+02 -0.89326638190E+01  0.87635891507E+02  0.80699393792E+02 0.  0.
          6    2    1    2  501    0  0.20200235337E+02 -0.48870362631E+02 -0.20615424031E+03  0.27531824995E+03  0.17465453360E+03 0.  0.
         24    2    5    5    0    0 -0.31439455442E+02 -0.66578258547E+02 -0.74371557221E+02  0.13259826956E+03  0.81425233784E+02 0.  0.
          5    1    5    5  501    0  0.51639690780E+02  0.17707895916E+02 -0.13178268309E+03  0.14271998039E+03  0.47000000000E+01 0. -1.
        -13    1    6    6    0    0 -0.50163060830E+02 -0.39671967340E+02 -0.16437185955E+02  0.66033163990E+02  0.00000000000E+00 0.  1.
         14    1    6    6    0    0  0.18723605388E+02 -0.26906291207E+02 -0.57934371266E+02  0.66565105568E+02  0.00000000000E+00 0. -1.
         -5    1    3    3    0  503 -0.33507363113E+02  0.79049580471E+02  0.35829069075E+02  0.93152518732E+02  0.47000000000E+01 0.  1.
         11    1    4    4    0    0 -0.16648676114E+02 -0.38899397333E+02 -0.28309248912E+02  0.50909283075E+02  0.00000000000E+00 0. -1.
        -12    1    4    4    0    0  0.29955803890E+02  0.87201794931E+01  0.19376585094E+02  0.36726608433E+02  0.00000000000E+00 0.  1.
</event>
<event>
12    1  0.8500177E-002  0.2113964E+03  0.7818608E-02  0.1140890E+00
         21   -1    0    0  501  502  0.00000000000E+00  0.00000000000E+00  0.58689087396E+03  0.58689087396E+03  0.00000000000E+00 0.  1.
         21   -1    0    0  502  503 -0.00000000000E+00 -0.00000000000E+00 -0.15003583696E+03  0.15003583696E+03  0.00000000000E+00 0.  1.
         -6    2    1    2    0  503 -0.53272492099E+02  0.10515085575E+03 -0.42061718790E+02  0.21342915988E+03  0.17288191699E+03 0.  0.
        -24    2    3    3    0    0 -0.68238430530E+02  0.20650475061E+02  0.19579879635E+02  0.10766493954E+03  0.78265202983E+02 0.  0.
          6    2    1    2  501    0  0.53272492099E+02 -0.10515085575E+03  0.47891675579E+03  0.52349755103E+03  0.17548152632E+03 0.  0.
         24    2    5    5    0    0  0.98639099685E+02 -0.40269676311E+02  0.27221696278E+03  0.30210515965E+03  0.76250467855E+02 0.  0.
          5    1    5    5  501    0 -0.45366607586E+02 -0.64881179435E+02  0.20669979301E+03  0.22139239138E+03  0.47000000000E+01 0. -1.
        -13    1    6    6    0    0  0.16600580710E+02 -0.27644447645E+01  0.14600444196E+03  0.14697114855E+03  0.00000000000E+00 0.  1.
         14    1    6    6    0    0  0.82038518975E+02 -0.37505231546E+02  0.12621252082E+03  0.15513401110E+03  0.00000000000E+00 0. -1.
         -5    1    3    3    0  503  0.14965938431E+02  0.84500380685E+02 -0.61641598424E+02  0.10576422035E+03  0.47000000000E+01 0.  1.
         11    1    4    4    0    0 -0.23102216160E+02 -0.10020034872E+02 -0.26269787776E+02  0.36389768344E+02  0.00000000000E+00 0. -1.
        -12    1    4    4    0    0 -0.45136214369E+02  0.30670509933E+02  0.45849667410E+02  0.71275171194E+02  0.00000000000E+00 0.  1.
</event>
<event>
12    1  0.8500177E-002  0.1756712E+03  0.7818608E-02  0.1172119E+00
         21   -1    0    0  501  502  0.00000000000E+00  0.00000000000E+00  0.18244573132E+03  0.18244573132E+03  0.00000000000E+00 0.  1.
         21   -1    0    0  502  503 -0.00000000000E+00 -0.00000000000E+00 -0.24375298473E+03  0.24375298473E+03  0.00000000000E+00 0.  1.
         -6    2    1    2    0  503 -0.12510775176E+02 -0.36132338196E+02 -0.14874380482E+03  0.23018486997E+03  0.17145929409E+03 0.  0.
        -24    2    3    3    0    0  0.23244732445E+02  0.37183326201E+02 -0.10141818892E+03  0.13576322578E+03  0.78886545727E+02 0.  0.
          6    2    1    2  501    0  0.12510775176E+02  0.36132338196E+02  0.87436551408E+02  0.19601384608E+03  0.17121393627E+03 0.  0.
         24    2    5    5    0    0 -0.76743325763E+01  0.12339420647E+02 -0.20015599383E+02  0.84024577796E+02  0.80301611271E+02 0.  0.
          5    1    5    5  501    0  0.20185107752E+02  0.23792917549E+02  0.10745215079E+03  0.11198926828E+03  0.47000000000E+01 0. -1.
        -13    1    6    6    0    0 -0.64138434221E+01  0.46032744923E+02 -0.38613046836E+01  0.46637545674E+02  0.00000000000E+00 0.  1.
         14    1    6    6    0    0 -0.12604891542E+01 -0.33693324276E+02 -0.16154294700E+02  0.37387032123E+02  0.00000000000E+00 0. -1.
         -5    1    3    3    0  503 -0.35755507620E+02 -0.73315664397E+02 -0.47325615906E+02  0.94421644193E+02  0.47000000000E+01 0.  1.
         13    1    4    4    0    0  0.43927498820E+02  0.22710074740E+01 -0.28798389151E+02  0.52574992585E+02  0.00000000000E+00 0. -1.
        -14    1    4    4    0    0 -0.20682766376E+02  0.34912318727E+02 -0.72619799768E+02  0.83188233195E+02  0.00000000000E+00 0.  1.
</event>
<event>
12    1  0.8500177E-002  0.1764089E+03  0.7818608E-02  0.1171560E+00
         21   -1    0    0  501  502  0.00000000000E+00  0.00000000000E+00  0.10268921385E+03  0.10268921385E+03  0.00000000000E+00 0.  1.
         21   -1    0    0  502  503 -0.00000000000E+00 -0.00000000000E+00 -0.35413887340E+03  0.35413887340E+03  0.00000000000E+00 0.  1.
         -6    2    1    2    0  503 -0.28021420551E+02 -0.22396190328E+02 -0.21413330871E+03  0.27744041031E+03  0.17272324112E+03 0.  0.
        -24    2    3    3    0    0  0.32511716244E+02 -0.31312362939E+02 -0.19223205754E+03  0.21228280456E+03  0.77931697014E+02 0.  0.
          6    2    1    2  501    0  0.28021420551E+02  0.22396190328E+02 -0.37316350837E+02  0.17938767694E+03  0.17175750128E+03 0.  0.
         24    2    5    5    0    0  0.60628880336E+02  0.32476575344E+02  0.25337553357E+02  0.10788619230E+03  0.79163437274E+02 0.  0.
          5    1    5    5  501    0 -0.32607459785E+02 -0.10080385016E+02 -0.62653904194E+02  0.71501484646E+02  0.47000000000E+01 0. -1.
        -11    1    6    6    0    0  0.62283827651E+02  0.70996672062E+01 -0.10887710368E+02  0.63625644974E+02  0.00000000000E+00 0.  1.
         12    1    6    6    0    0 -0.16549473145E+01  0.25376908138E+02  0.36225263725E+02  0.44260547322E+02  0.00000000000E+00 0. -1.
         -5    1    3    3    0  503 -0.60533136795E+02  0.89161726109E+01 -0.21901251168E+02  0.65157605749E+02  0.47000000000E+01 0.  1.
         13    1    4    4    0    0  0.38649516257E+02  0.16372413301E+02 -0.90983334569E+02  0.10019884327E+03  0.00000000000E+00 0. -1.
        -14    1    4    4    0    0 -0.61378000128E+01 -0.47684776240E+02 -0.10124872297E+03  0.11208396129E+03  0.00000000000E+00 0.  1.
</event>
<event>
12    1  0.8500177E-002  0.2224920E+03  0.7818608E-02  0.1132063E+00
         21   -1    0    0  501  502  0.00000000000E+00  0.00000000000E+00  0.87022873948E+02  0.87022873948E+02  0.00000000000E+00 0.  1.
         21   -1    0    0  502  503 -0.00000000000E+00 -0.00000000000E+00 -0.58955589811E+03  0.58955589811E+03  0.00000000000E+00 0. -1.
         -6    2    1    2    0  503  0.14882265638E+02 -0.13934776128E+03 -0.31510801878E+03  0.38566499019E+03  0.17264165416E+03 0.  0.
        -24    2    3    3    0    0  0.39967367940E+02 -0.11138490909E+03 -0.11831540787E+03  0.18526387948E+03  0.79499564969E+02 0.  0.
          6    2    1    2  501    0 -0.14882265638E+02  0.13934776128E+03 -0.18742500538E+03  0.29091378188E+03  0.17281034528E+03 0.  0.
         24    2    5    5    0    0 -0.12823681692E+02  0.16667045358E+03 -0.13248171566E+03  0.22933763091E+03  0.84266583293E+02 0.  0.
          5    1    5    5  501    0 -0.20585839457E+01 -0.27322692293E+02 -0.54943289723E+02  0.61576150964E+02  0.47000000000E+01 0. -1.
        -11    1    6    6    0    0  0.45232596061E+01  0.12473457818E+03 -0.13503367762E+03  0.18388384639E+03  0.00000000000E+00 0.  1.
         12    1    6    6    0    0 -0.17346941298E+02  0.41935875395E+02  0.25519619577E+01  0.45453784522E+02  0.00000000000E+00 0. -1.
         -5    1    3    3    0  503 -0.25085102303E+02 -0.27962852198E+02 -0.19679261091E+03  0.20040111070E+03  0.47000000000E+01 0.  1.
         11    1    4    4    0    0 -0.67581269403E+01 -0.90132748128E+02 -0.84956134048E+02  0.12404486800E+03  0.00000000000E+00 0. -1.
        -12    1    4    4    0    0  0.46725494881E+02 -0.21252160958E+02 -0.33359273821E+02  0.61219011484E+02  0.00000000000E+00 0.  1.
</event>
<event>
12    1  0.8500177E-002  0.2040673E+03  0.7818608E-02  0.1146707E+00
         21   -1    0    0  503  502  0.00000000000E+00  0.00000000000E+00  0.51390017754E+02  0.51390017754E+02  0.00000000000E+00 0.  1.
         21   -1    0    0  501  503 -0.00000000000E+00 -0.00000000000E+00 -0.90785657080E+03  0.90785657080E+03  0.00000000000E+00 0.  1.
          6    2    1    2  501    0  0.10388692431E+03 -0.24801918382E+02 -0.59243411276E+03  0.62659526372E+03  0.17388449719E+03 0.  0.
         24    2    3    3    0    0 -0.14734518536E+02 -0.25050851528E+02 -0.22899275293E+03  0.24425664326E+03  0.79868489907E+02 0.  0.
         -6    2    1    2    0  502 -0.10388692431E+03  0.24801918382E+02 -0.26403244029E+03  0.33265132483E+03  0.17186083378E+03 0.  0.
        -24    2    5    5    0    0 -0.95790734579E+02  0.20434763777E+02 -0.28486176484E+03  0.30940114012E+03  0.70635656983E+02 0.  0.
          5    1    3    3  501    0  0.11862144284E+03  0.24893314635E+00 -0.36344135982E+03  0.38233862047E+03  0.47000000000E+01 0. -1.
        -11    1    4    4    0    0  0.29180555496E+02  0.68263656631E+00 -0.47407991172E+02  0.55673049482E+02  0.00000000000E+00 0.  1.
         12    1    4    4    0    0 -0.43915074032E+02 -0.25733488095E+02 -0.18158476176E+03  0.18858359377E+03  0.00000000000E+00 0. -1.
         -5    1    5    5    0  502 -0.80961897277E+01  0.43671546048E+01  0.20829324556E+02  0.23250184707E+02  0.47000000000E+01 0.  1.
         13    1    6    6    0    0 -0.33474897299E+02  0.26827192915E+02 -0.19624500510E+03  0.20087899108E+03  0.00000000000E+00 0. -1.
        -14    1    6    6    0    0 -0.62315837280E+02 -0.63924291373E+01 -0.88616759740E+02  0.10852214904E+03  0.00000000000E+00 0.  1.
</event>
<event>
12    1  0.8500177E-002  0.2047243E+03  0.7818608E-02  0.1148256E+00
         21   -1    0    0  503  502  0.00000000000E+00  0.00000000000E+00  0.55132670525E+03  0.55132670525E+03  0.00000000000E+00 0.  1.
         21   -1    0    0  501  503 -0.00000000000E+00 -0.00000000000E+00 -0.10454920830E+03  0.10454920830E+03  0.00000000000E+00 0. -1.
          6    2    1    2  501    0  0.37163278552E+02 -0.78818625882E+02  0.35397479007E+02  0.19637015182E+03  0.17237972604E+03 0.  0.
         24    2    3    3    0    0 -0.38902899960E+02 -0.56688732171E+02  0.45181451446E+02  0.11641008788E+03  0.82358345206E+02 0.  0.
         -6    2    1    2    0  502 -0.37163278552E+02  0.78818625882E+02  0.41138001794E+03  0.45950576172E+03  0.18525264055E+03 0.  0.
        -24    2    5    5    0    0 -0.28794531069E+02  0.44446267647E+02  0.41313058709E+03  0.42377553030E+03  0.78129522955E+02 0.  0.
          5    1    3    3  501    0  0.76066178512E+02 -0.22129893712E+02 -0.97839724382E+01  0.79960063943E+02  0.47000000000E+01 0. -1.
        -11    1    4    4    0    0 -0.24515015231E+02 -0.75332578582E+02  0.19540568089E+02  0.81595448212E+02  0.00000000000E+00 0.  1.
         12    1    4    4    0    0 -0.14387884729E+02  0.18643846411E+02  0.25640883356E+02  0.34814639669E+02  0.00000000000E+00 0. -1.
         -5    1    5    5    0  502 -0.83687474827E+01  0.34372358236E+02 -0.17505691514E+01  0.35730231422E+02  0.47000000000E+01 0.  1.
         13    1    6    6    0    0 -0.28880296230E+02  0.14283440786E+02  0.50565747185E+02  0.59958176918E+02  0.00000000000E+00 0. -1.
        -14    1    6    6    0    0  0.85765160617E-01  0.30162826861E+02  0.36256483991E+03  0.36381735338E+03  0.00000000000E+00 0.  1.
</event>
<event>
12    1  0.8500177E-002  0.1842603E+03  0.7818608E-02  0.1163915E+00
         21   -1    0    0  503  502  0.00000000000E+00  0.00000000000E+00  0.94635693656E+02  0.94635693656E+02  0.00000000000E+00 0.  1.
         21   -1    0    0  501  503 -0.00000000000E+00 -0.00000000000E+00 -0.36480440168E+03  0.36480440168E+03  0.00000000000E+00 0.  1.
          6    2    1    2  501    0 -0.35702063451E+02 -0.54505920793E+02 -0.10195900544E+03  0.20994789664E+03  0.17157199006E+03 0.  0.
         24    2    3    3    0    0 -0.56774894533E+01 -0.70599193052E+02 -0.12787369825E+03  0.16688828959E+03  0.80520423208E+02 0.  0.
         -6    2    1    2    0  502  0.35702063451E+02  0.54505920793E+02 -0.16820970258E+03  0.24949219870E+03  0.17235521586E+03 0.  0.
        -24    2    5    5    0    0 -0.10663155107E+02  0.87311866856E+02 -0.14597626811E+03  0.18831721037E+03  0.80107651940E+02 0.  0.
          5    1    3    3  501    0 -0.30024573998E+02  0.16093272259E+02  0.25914692803E+02  0.43059607045E+02  0.47000000000E+01 0. -1.
        -13    1    4    4    0    0 -0.27298121109E+02 -0.17037952332E+02 -0.95278052766E+02  0.10056533486E+03  0.00000000000E+00 0.  1.
         14    1    4    4    0    0  0.21620631656E+02 -0.53561240720E+02 -0.32595645480E+02  0.66322954736E+02  0.00000000000E+00 0. -1.
         -5    1    5    5    0  502  0.46365218559E+02 -0.32805946063E+02 -0.22233434476E+02  0.61174988334E+02  0.47000000000E+01 0.  1.
         13    1    6    6    0    0  0.93024302691E+01  0.84277066562E+02 -0.14515630268E+03  0.16810565537E+03  0.00000000000E+00 0. -1.
        -14    1    6    6    0    0 -0.19965585376E+02  0.30348002935E+01 -0.81996542266E+00  0.20211555000E+02  0.00000000000E+00 0.  1.
</event>
<event>
12    1  0.8500177E-002  0.1799425E+03  0.7818608E-02  0.1168232E+00
         21   -1    0    0  501  502  0.00000000000E+00  0.00000000000E+00  0.15365938841E+03  0.15365938841E+03  0.00000000000E+00 0. -1.
         21   -1    0    0  502  503 -0.00000000000E+00 -0.00000000000E+00 -0.25354721018E+03  0.25354721018E+03  0.00000000000E+00 0.  1.
         -6    2    1    2    0  503 -0.12788100314E+02  0.51365339918E+02 -0.13518036918E+03  0.22383575781E+03  0.17037247609E+03 0.  0.
        -24    2    3    3    0    0  0.32092385397E+02 -0.30165948748E+02 -0.91364919528E+02  0.12086249595E+03  0.65728903409E+02 0.  0.
          6    2    1    2  501    0  0.12788100314E+02 -0.51365339918E+02  0.35292547412E+02  0.18337084078E+03  0.17198071895E+03 0.  0.
         24    2    5    5    0    0 -0.57926713840E+02 -0.43105313345E+02  0.10806382384E+02  0.10793560195E+03  0.79496817877E+02 0.  0.
          5    1    5    5  501    0  0.70714814154E+02 -0.82600265734E+01  0.24486165028E+02  0.75435238832E+02  0.47000000000E+01 0. -1.
        -11    1    6    6    0    0  0.89990842721E+01 -0.24768591787E+02 -0.18923019193E+02  0.32442985563E+02  0.00000000000E+00 0.  1.
         12    1    6    6    0    0 -0.66925798112E+02 -0.18336721558E+02  0.29729401577E+02  0.75492616384E+02  0.00000000000E+00 0. -1.
         -5    1    3    3    0  503 -0.44880485712E+02  0.81531288667E+02 -0.43815449651E+02  0.10297326186E+03  0.47000000000E+01 0.  1.
         13    1    4    4    0    0  0.45824237586E+02 -0.82231142551E+01 -0.80067876222E+02  0.92619356298E+02  0.00000000000E+00 0. -1.
        -14    1    4    4    0    0 -0.13731852189E+02 -0.21942834493E+02 -0.11297043306E+02  0.28243139655E+02  0.00000000000E+00 0.  1.
</event>
<event>
12    1  0.8500177E-002  0.1972215E+03  0.7818608E-02  0.1152583E+00
         21   -1    0    0  503  502  0.00000000000E+00  0.00000000000E+00  0.82157116688E+02  0.82157116688E+02  0.00000000000E+00 0.  1.
         21   -1    0    0  501  503 -0.00000000000E+00 -0.00000000000E+00 -0.84323356397E+03  0.84323356397E+03  0.00000000000E+00 0. -1.
          6    2    1    2  501    0 -0.87072180233E+02 -0.36302611764E+02 -0.68794020470E+03  0.71504520878E+03  0.17067068045E+03 0.  0.
         24    2    3    3    0    0  0.23007696672E+01  0.14317613003E+02 -0.41711668980E+03  0.42536021166E+03  0.82065152021E+02 0.  0.
         -6    2    1    2    0  502  0.87072180233E+02  0.36302611764E+02 -0.73136242589E+02  0.21034547189E+03  0.17319602585E+03 0.  0.
        -24    2    5    5    0    0  0.11001451881E+03 -0.17148327877E+02 -0.68383055214E+02  0.15179603433E+03  0.77256289717E+02 0.  0.
          5    1    3    3  501    0 -0.89372949900E+02 -0.50620224768E+02 -0.27082351490E+03  0.28968499711E+03  0.47000000000E+01 0. -1.
        -13    1    4    4    0    0 -0.16177432041E+02  0.44830851483E+02 -0.24061502844E+03  0.24528984175E+03  0.00000000000E+00 0.  1.
         14    1    4    4    0    0  0.18478201709E+02 -0.30513238479E+02 -0.17650166135E+03  0.18007036991E+03  0.00000000000E+00 0. -1.
         -5    1    5    5    0  502 -0.22942338575E+02  0.53450939641E+02 -0.47531873746E+01  0.58549437555E+02  0.47000000000E+01 0.  1.
         11    1    6    6    0    0  0.58508345066E+02 -0.47244663780E+02 -0.30639205260E+02  0.81203728960E+02  0.00000000000E+00 0. -1.
        -12    1    6    6    0    0  0.51506173741E+02  0.30096335903E+02 -0.37743849954E+02  0.70592305371E+02  0.00000000000E+00 0.  1.
</event>
<event>
12    1  0.8500177E-002  0.1859979E+03  0.7818608E-02  0.1163573E+00
         21   -1    0    0  503  502  0.00000000000E+00  0.00000000000E+00  0.10231634150E+03  0.10231634150E+03  0.00000000000E+00 0.  1.
         21   -1    0    0  501  503 -0.00000000000E+00 -0.00000000000E+00 -0.14806425315E+04  0.14806425315E+04  0.00000000000E+00 0.  1.
          6    2    1    2  501    0  0.40677265683E+02 -0.52642677396E+02 -0.13852075069E+04  0.13968336928E+04  0.16708870916E+03 0.  0.
         24    2    3    3    0    0  0.34733187146E+02 -0.98013796770E+02 -0.11040125413E+04  0.11119011232E+04  0.81653645090E+02 0.  0.
         -6    2    1    2    0  502 -0.40677265683E+02  0.52642677396E+02  0.68813168809E+01  0.18612518022E+03  0.17369323178E+03 0.  0.
        -24    2    5    5    0    0  0.43847329978E+02  0.26151154119E+02  0.15159327278E+02  0.97036328322E+02  0.81115797492E+02 0.  0.
          5    1    3    3  501    0  0.59440785365E+01  0.45371119374E+02 -0.28119496558E+03  0.28493256958E+03  0.47000000000E+01 0. -1.
        -13    1    4    4    0    0  0.33856783047E+02 -0.78556374160E+02 -0.10636571595E+04  0.10670913450E+04  0.00000000000E+00 0.  1.
         14    1    4    4    0    0  0.87640409954E+00 -0.19457422610E+02 -0.40355381818E+02  0.44809778179E+02  0.00000000000E+00 0. -1.
         -5    1    5    5    0  502 -0.84524595661E+02  0.26491523276E+02 -0.82780103972E+01  0.89088851902E+02  0.47000000000E+01 0.  1.
         11    1    6    6    0    0  0.41726324355E+01  0.16903516868E+02 -0.30948377003E+02  0.35509742086E+02  0.00000000000E+00 0. -1.
        -12    1    6    6    0    0  0.39674697543E+02  0.92476372518E+01  0.46107704281E+02  0.61526586236E+02  0.00000000000E+00 0.  1.
</event>
<event>
12    1  0.8500177E-002  0.1919241E+03  0.7818608E-02  0.1157532E+00
         21   -1    0    0  503  502  0.00000000000E+00  0.00000000000E+00  0.76158784124E+02  0.76158784124E+02  0.00000000000E+00 0. -1.
         21   -1    0    0  501  503 -0.00000000000E+00 -0.00000000000E+00 -0.74813816370E+03  0.74813816370E+03  0.00000000000E+00 0. -1.
          6    2    1    2  501    0  0.75040097339E+02  0.19332210925E+02 -0.88852516895E+02  0.21149379797E+03  0.17558503990E+03 0.  0.
         24    2    3    3    0    0  0.96703816751E+02  0.54124466807E+02 -0.98841261399E+02  0.16904756345E+03  0.80786123027E+02 0.  0.
         -6    2    1    2    0  502 -0.75040097339E+02 -0.19332210925E+02 -0.58312686268E+03  0.61280314985E+03  0.17171491460E+03 0.  0.
        -24    2    5    5    0    0 -0.11718314488E+03 -0.30472410019E+02 -0.45542034043E+03  0.47778023951E+03  0.78776986302E+02 0.  0.
          5    1    3    3  501    0 -0.21663719412E+02 -0.34792255882E+02  0.99887445042E+01  0.42446234520E+02  0.47000000000E+01 0. -1.
        -11    1    4    4    0    0  0.12589224993E+01  0.14996715034E+02 -0.54898798718E+02  0.56924199145E+02  0.00000000000E+00 0.  1.
         12    1    4    4    0    0  0.95444894252E+02  0.39127751773E+02 -0.43942462681E+02  0.11212336431E+03  0.00000000000E+00 0. -1.
         -5    1    5    5    0  502  0.42143047539E+02  0.11140199094E+02 -0.12770652225E+03  0.13502291034E+03  0.47000000000E+01 0.  1.
         13    1    6    6    0    0 -0.59806250528E+02  0.15241478853E+02 -0.29491993585E+03  0.30130857744E+03  0.00000000000E+00 0. -1.
        -14    1    6    6    0    0 -0.57376894350E+02 -0.45713888872E+02 -0.16050040458E+03  0.17647166207E+03  0.00000000000E+00 0.  1.
</event>
<event>
12    1  0.8500177E-002  0.1726922E+03  0.7818608E-02  0.1175151E+00
         21   -1    0    0  503  502  0.00000000000E+00  0.00000000000E+00  0.65370190905E+02  0.65370190905E+02  0.00000000000E+00 0.  1.
         21   -1    0    0  501  503 -0.00000000000E+00 -0.00000000000E+00 -0.70347561025E+03  0.70347561025E+03  0.00000000000E+00 0.  1.
          6    2    1    2  501    0 -0.14231337377E+02  0.35280906443E+01 -0.54716165673E+03  0.57367054626E+03  0.17174701937E+03 0.  0.
         24    2    3    3    0    0  0.32969749973E+02  0.45088854371E+02 -0.22864094405E+03  0.24896641303E+03  0.81163934846E+02 0.  0.
         -6    2    1    2    0  502  0.14231337377E+02 -0.35280906443E+01 -0.90943762611E+02  0.19517525489E+03  0.17206868913E+03 0.  0.
        -24    2    5    5    0    0  0.74290704101E+02  0.13410574400E+02 -0.49879413880E+02  0.12032596203E+03  0.79318528661E+02 0.  0.
          5    1    3    3  501    0 -0.47201087351E+02 -0.41560763726E+02 -0.31852071268E+03  0.32470413322E+03  0.47000000000E+01 0. -1.
        -11    1    4    4    0    0  0.15690656714E+02  0.49114352243E+02 -0.22502951125E+03  0.23086077458E+03  0.00000000000E+00 0.  1.
         12    1    4    4    0    0  0.17279093259E+02 -0.40254978727E+01 -0.36114328002E+01  0.18105638455E+02  0.00000000000E+00 0. -1.
         -5    1    5    5    0  502 -0.60059366724E+02 -0.16938665044E+02 -0.41064348731E+02  0.74849292859E+02  0.47000000000E+01 0.  1.
         13    1    6    6    0    0  0.42832850160E+02  0.46895163652E+02 -0.27242455386E+02  0.69108326577E+02  0.00000000000E+00 0. -1.
        -14    1    6    6    0    0  0.31457853941E+02 -0.33484589253E+02 -0.22636958494E+02  0.51217635458E+02  0.00000000000E+00 0.  1.
</event>
<event>
12    1  0.8500177E-002  0.1792423E+03  0.7818608E-02  0.1168603E+00
         21   -1    0    0  501  502  0.00000000000E+00  0.00000000000E+00  0.42383741726E+03  0.42383741726E+03  0.00000000000E+00 0.  1.
         21   -1    0    0  502  503 -0.00000000000E+00 -0.00000000000E+00 -0.11484495689E+03  0.11484495689E+03  0.00000000000E+00 0.  1.
         -6    2    1    2    0  503  0.46392396023E+02 -0.18166840380E+02 -0.26968916790E+01  0.17926258296E+03  0.17217872089E+03 0.  0.
        -24    2    3    3    0    0 -0.21516068276E+02 -0.44507420885E+02  0.31762173015E+02  0.98547634878E+02  0.79113519689E+02 0.  0.
          6    2    1    2  501    0 -0.46392396023E+02  0.18166840380E+02  0.31168935205E+03  0.35941979118E+03  0.17190126705E+03 0.  0.
         24    2    5    5    0    0 -0.57069365988E+01 -0.14600987605E+02  0.29252164396E+03  0.30357600735E+03  0.79647486386E+02 0.  0.
          5    1    5    5  501    0 -0.40685459424E+02  0.32767827985E+02  0.19167708088E+02  0.55843783833E+02  0.47000000000E+01 0. -1.
        -13    1    6    6    0    0  0.10933013752E+02  0.23258198599E+02  0.39017454805E+02  0.46720834445E+02  0.00000000000E+00 0.  1.
         14    1    6    6    0    0 -0.16639950350E+02 -0.37859186204E+02  0.25350418915E+03  0.25685517290E+03  0.00000000000E+00 0. -1.
         -5    1    3    3    0  503  0.67908464299E+02  0.26340580505E+02 -0.34459064694E+02  0.80714948085E+02  0.47000000000E+01 0.  1.
         11    1    4    4    0    0  0.37854462332E+01 -0.56015554676E+02 -0.26080433408E+00  0.56143922091E+02  0.00000000000E+00 0. -1.
        -12    1    4    4    0    0 -0.25301514509E+02  0.11508133791E+02  0.32022977349E+02  0.42403712787E+02  0.00000000000E+00 0.  1.
</event>
<event>
12    1  0.8500177E-002  0.1828404E+03  0.7818608E-02  0.1165087E+00
         21   -1    0    0  501  502  0.00000000000E+00  0.00000000000E+00  0.10039654777E+03  0.10039654777E+03  0.00000000000E+00 0.  1.
         21   -1    0    0  502  503 -0.00000000000E+00 -0.00000000000E+00 -0.50862889629E+03  0.50862889629E+03  0.00000000000E+00 0.  1.
         -6    2    1    2    0  503  0.56584369674E+02 -0.24776480434E+02 -0.38308781561E+03  0.42448425738E+03  0.17208993411E+03 0.  0.
        -24    2    3    3    0    0  0.91956785114E+02 -0.28539592172E+01 -0.18059376006E+03  0.21770481632E+03  0.79480094783E+02 0.  0.
          6    2    1    2  501    0 -0.56584369674E+02  0.24776480434E+02 -0.25144532910E+02  0.18454118667E+03  0.17206840840E+03 0.  0.
         24    2    5    5    0    0  0.32362738674E+02 -0.31160450885E+01 -0.28038139609E+02  0.91160010717E+02  0.80417371816E+02 0.  0.
          5    1    5    5  501    0 -0.88947108348E+02  0.27892525523E+02  0.28936066983E+01  0.93381175957E+02  0.47000000000E+01 0. -1.
        -13    1    6    6    0    0  0.33134183109E+02 -0.37332991227E+02 -0.55872698571E+01  0.50227919613E+02  0.00000000000E+00 0.  1.
         14    1    6    6    0    0 -0.77144443549E+00  0.34216946138E+02 -0.22450869752E+02  0.40932091104E+02  0.00000000000E+00 0. -1.
         -5    1    3    3    0  503 -0.35372415440E+02 -0.21922521217E+02 -0.20249405555E+03  0.20677944106E+03  0.47000000000E+01 0.  1.
         11    1    4    4    0    0  0.35057729739E+02 -0.25860721809E+02 -0.13325417367E+03  0.14019449400E+03  0.00000000000E+00 0. -1.
        -12    1    4    4    0    0  0.56899055375E+02  0.23006762592E+02 -0.47339586387E+02  0.77510322324E+02  0.00000000000E+00 0.  1.
</event>
<event>
12    1  0.8500177E-002  0.2586202E+03  0.7818608E-02  0.1108266E+00
         21   -1    0    0  501  502  0.00000000000E+00  0.00000000000E+00  0.40681174956E+03  0.40681174956E+03  0.00000000000E+00 0.  1.
         21   -1    0    0  502  503 -0.00000000000E+00 -0.00000000000E+00 -0.25396657288E+03  0.25396657288E+03  0.00000000000E+00 0.  1.
         -6    2    1    2    0  503 -0.15764114724E+03  0.10906793681E+03  0.27412520000E+03  0.37686739184E+03  0.17360259104E+03 0.  0.
        -24    2    3    3    0    0 -0.84366230762E+02  0.36200865633E+02  0.23688527741E+03  0.26692320017E+03  0.81885264665E+02 0.  0.
          6    2    1    2  501    0  0.15764114724E+03 -0.10906793681E+03 -0.12128002331E+03  0.28391093060E+03  0.17073378786E+03 0.  0.
         24    2    5    5    0    0  0.10638748892E+03 -0.23680767378E+02 -0.13598632538E+02  0.13716189955E+03  0.82154655010E+02 0.  0.
          5    1    5    5  501    0  0.51253658323E+02 -0.85387169431E+02 -0.10768139077E+03  0.14674903105E+03  0.47000000000E+01 0. -1.
        -11    1    6    6    0    0  0.10943839055E+03 -0.39638296716E+01 -0.27419774252E+02  0.11289073165E+03  0.00000000000E+00 0.  1.
         12    1    6    6    0    0 -0.30509016292E+01 -0.19716937706E+02  0.13821141714E+02  0.24271167906E+02  0.00000000000E+00 0. -1.
         -5    1    3    3    0  503 -0.73274916482E+02  0.72867071176E+02  0.37239922583E+02  0.10994419167E+03  0.47000000000E+01 0.  1.
         11    1    4    4    0    0 -0.49382871089E+02 -0.22111192732E+02  0.12126139718E+03  0.13278516200E+03  0.00000000000E+00 0. -1.
        -12    1    4    4    0    0 -0.34983359673E+02  0.58312058364E+02  0.11562388023E+03  0.13413803817E+03  0.00000000000E+00 0.  1.
</event>
<event>
12    1  0.8500177E-002  0.2839375E+03  0.7818608E-02  0.1093566E+00
         21   -1    0    0  501  502  0.00000000000E+00  0.00000000000E+00  0.62734674850E+03  0.62734674850E+03  0.00000000000E+00 0. -1.
         21   -1    0    0  502  503 -0.00000000000E+00 -0.00000000000E+00 -0.30639851417E+03  0.30639851417E+03  0.00000000000E+00 0.  1.
         -6    2    1    2    0  503  0.19583352292E+03 -0.11154175934E+03 -0.19530022375E+03  0.34456536461E+03  0.17260005885E+03 0.  0.
        -24    2    3    3    0    0  0.84777628769E+02  0.12777207944E+02 -0.79765460153E+02  0.14168858217E+03  0.79766047302E+02 0.  0.
          6    2    1    2  501    0 -0.19583352292E+03  0.11154175934E+03  0.51624845807E+03  0.58917989806E+03  0.17270827725E+03 0.  0.
         24    2    5    5    0    0 -0.76617321920E+02  0.35622419932E+02  0.11466237837E+03  0.16342208182E+03  0.80125807276E+02 0.  0.
          5    1    5    5  501    0 -0.11921620100E+03  0.75919339411E+02  0.40158607970E+03  0.42575781624E+03  0.47000000000E+01 0. -1.
        -13    1    6    6    0    0 -0.13043565761E+01 -0.21683236533E+02  0.19010790461E+02  0.28866490029E+02  0.00000000000E+00 0.  1.
         14    1    6    6    0    0 -0.75312965344E+02  0.57305656464E+02  0.95651587911E+02  0.13455559179E+03  0.00000000000E+00 0. -1.
         -5    1    3    3    0  503  0.11105589415E+03 -0.12431896729E+03 -0.11553476360E+03  0.20287678244E+03  0.47000000000E+01 0.  1.
         13    1    4    4    0    0  0.51493825299E+02  0.18083277953E+02 -0.91042613760E+02  0.10614789920E+03  0.00000000000E+00 0. -1.
        -14    1    4    4    0    0  0.33283803470E+02 -0.53060700090E+01  0.11277153606E+02  0.35540682968E+02  0.00000000000E+00 0.  1.
</event>
<event>
12    1  0.8500177E-002  0.2116543E+03  0.7818608E-02  0.1140527E+00
         21   -1    0    0  501  502  0.00000000000E+00  0.00000000000E+00  0.53973388589E+02  0.53973388589E+02  0.00000000000E+00 0.  1.
         21   -1    0    0  502  503 -0.00000000000E+00 -0.00000000000E+00 -0.10922389426E+04  0.10922389426E+04  0.00000000000E+00 0.  1.
         -6    2    1    2    0  503  0.56200698719E+02  0.11222537350E+03 -0.80150629172E+03  0.82863950077E+03  0.16875435871E+03 0.  0.
        -24    2    3    3    0    0 -0.27808045945E+02  0.88454486687E+02 -0.48895206662E+03  0.50408633430E+03  0.80196167881E+02 0.  0.
          6    2    1    2  501    0 -0.56200698719E+02 -0.11222537350E+03 -0.23675926228E+03  0.31757283041E+03  0.17042447401E+03 0.  0.
         24    2    5    5    0    0  0.25476413419E+02 -0.74338590946E+02 -0.17620722358E+03  0.20896712922E+03  0.80268310731E+02 0.  0.
          5    1    5    5  501    0 -0.81677112138E+02 -0.37886782554E+02 -0.60552038702E+02  0.10860570119E+03  0.47000000000E+01 0. -1.
        -11    1    6    6    0    0  0.43753537528E+02 -0.97470422443E+01 -0.79057682453E+02  0.90881758530E+02  0.00000000000E+00 0.  1.
         12    1    6    6    0    0 -0.18277124109E+02 -0.64591548701E+02 -0.97149541128E+02  0.11808537069E+03  0.00000000000E+00 0. -1.
         -5    1    3    3    0  503  0.84008744664E+02  0.23770886813E+02 -0.31255422510E+03  0.32455316647E+03  0.47000000000E+01 0.  1.
         13    1    4    4    0    0  0.15031166237E+02  0.20069211669E+02 -0.35216378737E+02  0.43230805531E+02  0.00000000000E+00 0. -1.
        -14    1    4    4    0    0 -0.42839212183E+02  0.68385275018E+02 -0.45373568788E+03  0.46085552877E+03  0.00000000000E+00 0.  1.
</event>
<event>
12    1  0.8500177E-002  0.1812942E+03  0.7818608E-02  0.1166676E+00
         21   -1    0    0  501  502  0.00000000000E+00  0.00000000000E+00  0.10083839616E+03  0.10083839616E+03  0.00000000000E+00 0. -1.
         21   -1    0    0  502  503 -0.00000000000E+00 -0.00000000000E+00 -0.34308353373E+03  0.34308353373E+03  0.00000000000E+00 0. -1.
         -6    2    1    2    0  503 -0.15152272338E+02  0.55892315777E+02 -0.70074983396E+02  0.19390162161E+03  0.17127111036E+03 0.  0.
        -24    2    3    3    0    0  0.38231735670E+02  0.16957679035E+02  0.88398000804E+01  0.90870600548E+02  0.80187876190E+02 0.  0.
          6    2    1    2  501    0  0.15152272338E+02 -0.55892315777E+02 -0.17217015417E+03  0.25002030828E+03  0.17179653735E+03 0.  0.
         24    2    5    5    0    0 -0.36880084501E+02 -0.84220090456E+02 -0.10724002867E+03  0.16199849181E+03  0.79309036882E+02 0.  0.
          5    1    5    5  501    0  0.52032356840E+02  0.28327774678E+02 -0.64930125506E+02  0.88021816471E+02  0.47000000000E+01 0. -1.
        -13    1    6    6    0    0 -0.33905312733E+02 -0.33277262256E+02 -0.50489613640E+01  0.47774872325E+02  0.00000000000E+00 0.  1.
         14    1    6    6    0    0 -0.29747717687E+01 -0.50942828200E+02 -0.10219106730E+03  0.11422361949E+03  0.00000000000E+00 0. -1.
         -5    1    3    3    0  503 -0.53384008009E+02  0.38934636742E+02 -0.78914783476E+02  0.10303102106E+03  0.47000000000E+01 0.  1.
         11    1    4    4    0    0  0.14734207473E+01  0.37845583779E+02 -0.16791154559E+02  0.41429482880E+02  0.00000000000E+00 0. -1.
        -12    1    4    4    0    0  0.36758314923E+02 -0.20887904744E+02  0.25630954639E+02  0.49441117668E+02  0.00000000000E+00 0.  1.
</event>
<event>
12    1  0.8500177E-002  0.1856604E+03  0.7818608E-02  0.1162749E+00
         21   -1    0    0  503  502  0.00000000000E+00  0.00000000000E+00  0.92372980226E+02  0.92372980226E+02  0.00000000000E+00 0.  1.
         21   -1    0    0  501  503 -0.00000000000E+00 -0.00000000000E+00 -0.10517498186E+04  0.10517498186E+04  0.00000000000E+00 0.  1.
          6    2    1    2  501    0  0.67973341451E+02  0.23415664680E+02 -0.93949151172E+03  0.95740047142E+03  0.16971356335E+03 0.  0.
         24    2    3    3    0    0  0.98331159904E+02  0.36471970801E+02 -0.87678962791E+03  0.88636751777E+03  0.76733977420E+02 0.  0.
         -6    2    1    2    0  502 -0.67973341451E+02 -0.23415664680E+02 -0.19885326688E+02  0.18672232744E+03  0.17117573673E+03 0.  0.
        -24    2    5    5    0    0 -0.27534748677E+02  0.26547649152E+02  0.39449935675E+02  0.99118812244E+02  0.82494251047E+02 0.  0.
          5    1    3    3  501    0 -0.30357818453E+02 -0.13056306121E+02 -0.62701883813E+02  0.71032953651E+02  0.47000000000E+01 0. -1.
        -11    1    4    4    0    0  0.50068678818E+02 -0.21212433667E+02 -0.40097857230E+03  0.40464880499E+03  0.00000000000E+00 0.  1.
         12    1    4    4    0    0  0.48262481085E+02  0.57684404468E+02 -0.47581105561E+03  0.48171871278E+03  0.00000000000E+00 0. -1.
         -5    1    5    5    0  502 -0.40438592774E+02 -0.49963313831E+02 -0.59335262363E+02  0.87603515193E+02  0.47000000000E+01 0.  1.
         11    1    6    6    0    0  0.67281473003E+01  0.45616686382E+02  0.40435813179E+01  0.46287153644E+02  0.00000000000E+00 0. -1.
        -12    1    6    6    0    0 -0.34262895977E+02 -0.19069037230E+02  0.35406354357E+02  0.52831658601E+02  0.00000000000E+00 0.  1.
</event>
<event>
12    1  0.8500177E-002  0.2341947E+03  0.7818608E-02  0.1123827E+00
         21   -1    0    0  503  502  0.00000000000E+00  0.00000000000E+00  0.71706661468E+02  0.71706661468E+02  0.00000000000E+00 0.  1.
         21   -1    0    0  501  503 -0.00000000000E+00 -0.00000000000E+00 -0.24557233020E+04  0.24557233020E+04  0.00000000000E+00 0.  1.
          6    2    1    2  501    0  0.15318242769E+03 -0.40208772499E+02 -0.22407455691E+04  0.22528871704E+04  0.17169244503E+03 0.  0.
         24    2    3    3    0    0  0.10432767317E+02 -0.40238172657E+02 -0.91176591357E+03  0.91625465502E+03  0.80483281117E+02 0.  0.
         -6    2    1    2    0  502 -0.15318242769E+03  0.40208772499E+02 -0.14327107148E+03  0.27454279309E+03  0.17252693638E+03 0.  0.
        -24    2    5    5    0    0 -0.29772497053E+02  0.27213539823E+02 -0.11826000439E+03  0.14786789215E+03  0.79072792793E+02 0.  0.
          5    1    3    3  501    0  0.14274966037E+03  0.29400158597E-01 -0.13289796555E+04  0.13366325154E+04  0.47000000000E+01 0. -1.
        -11    1    4    4    0    0 -0.18777885712E+02  0.12056974042E+02 -0.45919116894E+03  0.45973308478E+03  0.00000000000E+00 0.  1.
         12    1    4    4    0    0  0.29210653029E+02 -0.52295146699E+02 -0.45257474463E+03  0.45652157024E+03  0.00000000000E+00 0. -1.
         -5    1    5    5    0  502 -0.12340993064E+03  0.12995232676E+02 -0.25011067089E+02  0.12667490094E+03  0.47000000000E+01 0.  1.
         13    1    6    6    0    0 -0.56584557685E+02  0.14903863094E+02 -0.87351799473E+02  0.10513930842E+03  0.00000000000E+00 0. -1.
        -14    1    6    6    0    0  0.26812060632E+02  0.12309676729E+02 -0.30908204915E+02  0.42728583730E+02  0.00000000000E+00 0.  1.
</event>
<event>
12    1  0.8500177E-002  0.1995012E+03  0.7818608E-02  0.1150881E+00
         21   -1    0    0  501  502  0.00000000000E+00  0.00000000000E+00  0.15835777738E+03  0.15835777738E+03  0.00000000000E+00 0.  1.
         21   -1    0    0  502  503 -0.00000000000E+00 -0.00000000000E+00 -0.24810888944E+03  0.24810888944E+03  0.00000000000E+00 0.  1.
         -6    2    1    2    0  503 -0.38478860701E+02  0.93665934754E+02 -0.31537748464E+02  0.19864580696E+03  0.16796308223E+03 0.  0.
        -24    2    3    3    0    0 -0.40040807850E+02 -0.80013570912E+01 -0.36324480823E+02  0.96745459972E+02  0.79830621378E+02 0.  0.
          6    2    1    2  501    0  0.38478860701E+02 -0.93665934754E+02 -0.58213363597E+02  0.20782085986E+03  0.17189178002E+03 0.  0.
         24    2    5    5    0    0  0.45489520072E+01 -0.11495948979E+03 -0.36566819759E+01  0.13997415251E+03  0.79643046093E+02 0.  0.
          5    1    5    5  501    0  0.33929908694E+02  0.21293555031E+02 -0.54556681621E+02  0.67846707358E+02  0.47000000000E+01 0. -1.
        -11    1    6    6    0    0  0.12799170423E+01 -0.12095476397E+03 -0.19684100649E+02  0.12255267004E+03  0.00000000000E+00 0.  1.
         12    1    6    6    0    0  0.32690349649E+01  0.59952741848E+01  0.16027418673E+02  0.17421482471E+02  0.00000000000E+00 0. -1.
         -5    1    3    3    0  503  0.15619471492E+01  0.10166729185E+03  0.47867323592E+01  0.10190034699E+03  0.47000000000E+01 0.  1.
         11    1    4    4    0    0 -0.62381853347E+02  0.11604063861E+01 -0.14183551400E+02  0.63984492654E+02  0.00000000000E+00 0. -1.
        -12    1    4    4    0    0  0.22341045496E+02 -0.91617634773E+01 -0.22140929423E+02  0.32760967318E+02  0.00000000000E+00 0.  1.
</event>
<event>
12    1  0.8500177E-002  0.2157508E+03  0.7818608E-02  0.1137303E+00
         21   -1    0    0  501  502  0.00000000000E+00  0.00000000000E+00  0.12383139921E+04  0.12383139921E+04  0.00000000000E+00 0. -1.
         21   -1    0    0  502  503 -0.00000000000E+00 -0.00000000000E+00 -0.43308459166E+02  0.43308459166E+02  0.00000000000E+00 0.  1.
         -6    2    1    2    0  503  0.12952498053E+03  0.65564136283E+01  0.36209361987E+03  0.42149755017E+03  0.17242009195E+03 0.  0.
        -24    2    3    3    0    0  0.15022758652E+03 -0.30604264418E+02  0.30870858633E+03  0.35307558226E+03  0.76527294193E+02 0.  0.
          6    2    1    2  501    0 -0.12952498053E+03 -0.65564136283E+01  0.83291191305E+03  0.86012490108E+03  0.17103474331E+03 0.  0.
         24    2    5    5    0    0 -0.39419446437E+02  0.15576093618E+02  0.19050256932E+03  0.21103268109E+03  0.80293562121E+02 0.  0.
          5    1    5    5  501    0 -0.90105534089E+02 -0.22132507246E+02  0.64240934372E+03  0.64909221999E+03  0.47000000000E+01 0. -1.
        -13    1    6    6    0    0 -0.55368091790E+02 -0.99677616453E+01  0.90192612611E+02  0.10629999638E+03  0.00000000000E+00 0.  1.
         14    1    6    6    0    0  0.15948645353E+02  0.25543855263E+02  0.10030995671E+03  0.10473268471E+03  0.00000000000E+00 0. -1.
         -5    1    3    3    0  503 -0.20702605993E+02  0.37160678046E+02  0.53385033533E+02  0.68421967913E+02  0.47000000000E+01 0.  1.
         13    1    4    4    0    0 -0.77535128772E-01 -0.74147209128E+01  0.67626422323E+02  0.68031735934E+02  0.00000000000E+00 0. -1.
        -14    1    4    4    0    0  0.15030512165E+03 -0.23189543505E+02  0.24108216401E+03  0.28504384632E+03  0.00000000000E+00 0.  1.
</event>
<event>
12    1  0.8500177E-002  0.2497256E+03  0.7818608E-02  0.1113565E+00
         21   -1    0    0  501  502  0.00000000000E+00  0.00000000000E+00  0.23026529273E+03  0.23026529273E+03  0.00000000000E+00 0.  1.
         21   -1    0    0  502  503 -0.00000000000E+00 -0.00000000000E+00 -0.58898404848E+03  0.58898404848E+03  0.00000000000E+00 0.  1.
         -6    2    1    2    0  503 -0.35344057042E+02  0.17702089155E+03 -0.48060953923E+03  0.54136403189E+03  0.17176695671E+03 0.  0.
        -24    2    3    3    0    0 -0.60621949537E+02  0.88935281574E+02 -0.16798223440E+03  0.21554818167E+03  0.81599524953E+02 0.  0.
          6    2    1    2  501    0  0.35344057042E+02 -0.17702089155E+03  0.12189078347E+03  0.27788530932E+03  0.17256095627E+03 0.  0.
         24    2    5    5    0    0  0.83280475600E+02 -0.81660326890E+02  0.89151577039E+02  0.16614685062E+03  0.77799265277E+02 0.  0.
          5    1    5    5  501    0 -0.47936418558E+02 -0.95360564657E+02  0.32739206432E+02  0.11173845870E+03  0.47000000000E+01 0. -1.
        -11    1    6    6    0    0  0.46131451150E+02 -0.90648949538E+02  0.60132614468E+02  0.11815783580E+03  0.00000000000E+00 0.  1.
         12    1    6    6    0    0  0.37149024450E+02  0.89886226484E+01  0.29018962571E+02  0.47989014820E+02  0.00000000000E+00 0. -1.
         -5    1    3    3    0  503  0.25277892495E+02  0.88085609972E+02 -0.31262730483E+03  0.32581585023E+03  0.47000000000E+01 0.  1.
         11    1    4    4    0    0  0.51784028683E+01 -0.47369490368E+01  0.46438991738E+01  0.84154822785E+01  0.00000000000E+00 0. -1.
        -12    1    4    4    0    0 -0.65800352405E+02  0.93672230611E+02 -0.17262613357E+03  0.20713269939E+03  0.00000000000E+00 0.  1.
</event>
<event>
12    1  0.8500177E-002  0.2359670E+03  0.7818608E-02  0.1123490E+00
         21   -1    0    0  501  502  0.00000000000E+00  0.00000000000E+00  0.11235613692E+04  0.11235613692E+04  0.00000000000E+00 0.  1.
         21   -1    0    0  502  503 -0.00000000000E+00 -0.00000000000E+00 -0.54962395228E+02  0.54962395228E+02  0.00000000000E+00 0.  1.
         -6    2    1    2    0  503 -0.13550795704E+03  0.71518800788E+02  0.33596295902E+03  0.41055031129E+03  0.17945223035E+03 0.  0.
        -24    2    3    3    0    0 -0.11530421198E+03  0.68223104054E+02  0.35203370454E+03  0.38410391658E+03  0.75223908275E+02 0.  0.
          6    2    1    2  501    0  0.13550795704E+03 -0.71518800788E+02  0.73263601494E+03  0.76797345312E+03  0.17190214959E+03 0.  0.
         24    2    5    5    0    0  0.43739966282E+02  0.26103745793E+02  0.32786095967E+03  0.34157403815E+03  0.81150628242E+02 0.  0.
          5    1    5    5  501    0  0.91767990758E+02 -0.97622546581E+02  0.40477505526E+03  0.42639941498E+03  0.47000000000E+01 0. -1.
        -13    1    6    6    0    0  0.21540295763E+02 -0.53228284536E+01  0.27655297417E+03  0.27744164137E+03  0.00000000000E+00 0.  1.
         14    1    6    6    0    0  0.22199670519E+02  0.31426574247E+02  0.51307985506E+02  0.64132396779E+02  0.00000000000E+00 0. -1.
         -5    1    3    3    0  503 -0.20203745061E+02  0.32956967340E+01 -0.16070745518E+02  0.26446394706E+02  0.47000000000E+01 0.  1.
         11    1    4    4    0    0 -0.23827380544E+02  0.47110204611E+02  0.18620562659E+03  0.19354495812E+03  0.00000000000E+00 0. -1.
        -12    1    4    4    0    0 -0.91476831435E+02  0.21112899443E+02  0.16582807795E+03  0.19055895846E+03  0.00000000000E+00 0.  1.
</event>
<event>
12    1  0.8500177E-002  0.1972203E+03  0.7818608E-02  0.1152300E+00
         21   -1    0    0  503  502  0.00000000000E+00  0.00000000000E+00  0.51546285268E+02  0.51546285268E+02  0.00000000000E+00 0.  1.
         21   -1    0    0  501  503 -0.00000000000E+00 -0.00000000000E+00 -0.87836789842E+03  0.87836789842E+03  0.00000000000E+00 0.  1.
          6    2    1    2  501    0 -0.82470243384E+02 -0.50585720961E+02 -0.59118497702E+03  0.62321385561E+03  0.17185917655E+03 0.  0.
         24    2    3    3    0    0 -0.12172250187E+03 -0.35731925684E+02 -0.39739352553E+03  0.42487426879E+03  0.80643612113E+02 0.  0.
         -6    2    1    2    0  502  0.82470243384E+02  0.50585720961E+02 -0.23563663613E+03  0.30670032808E+03  0.17082216116E+03 0.  0.
        -24    2    5    5    0    0  0.15646152450E+02  0.58518168160E+02 -0.56341915005E+02  0.11513553519E+03  0.80078723680E+02 0.  0.
          5    1    3    3  501    0  0.39252258482E+02 -0.14853795278E+02 -0.19379145149E+03  0.19833958683E+03  0.47000000000E+01 0. -1.
        -13    1    4    4    0    0 -0.30955635357E+02  0.23482378879E+02 -0.14670613344E+03  0.15176416925E+03  0.00000000000E+00 0.  1.
         14    1    4    4    0    0 -0.90766866508E+02 -0.59214304563E+02 -0.25068739209E+03  0.27311009954E+03  0.00000000000E+00 0. -1.
         -5    1    5    5    0  502  0.66824090934E+02 -0.79324471990E+01 -0.17929472113E+03  0.19156479288E+03  0.47000000000E+01 0.  1.
         13    1    6    6    0    0 -0.17483157973E+02  0.31190832211E+02 -0.62246826368E+02  0.71785766135E+02  0.00000000000E+00 0. -1.
        -14    1    6    6    0    0  0.33129310423E+02  0.27327335949E+02  0.59049113622E+01  0.43349769058E+02  0.00000000000E+00 0.  1.
</event>
<event>
12    1  0.8500177E-002  0.1797324E+03  0.7818608E-02  0.1168323E+00
         21   -1    0    0  501  502  0.00000000000E+00  0.00000000000E+00  0.31077015683E+03  0.31077015683E+03  0.00000000000E+00 0. -1.
         21   -1    0    0  502  503 -0.00000000000E+00 -0.00000000000E+00 -0.22489368042E+03  0.22489368042E+03  0.00000000000E+00 0. -1.
         -6    2    1    2    0  503  0.32029953253E+02 -0.34490811251E+02 -0.15391714934E+03  0.23663098068E+03  0.17345950014E+03 0.  0.
        -24    2    3    3    0    0  0.44217348910E+02 -0.69483285350E+02 -0.16108037718E+03  0.19859931375E+03  0.81924957254E+02 0.  0.
          6    2    1    2  501    0 -0.32029953253E+02  0.34490811251E+02  0.23979362576E+03  0.29903285657E+03  0.17234886826E+03 0.  0.
         24    2    5    5    0    0  0.25939137682E+02 -0.24520057252E+02  0.79410523500E+02  0.11851269816E+03  0.80406195725E+02 0.  0.
          5    1    5    5  501    0 -0.57969090935E+02  0.59010868503E+02  0.16038310226E+03  0.18052015842E+03  0.47000000000E+01 0. -1.
        -13    1    6    6    0    0  0.51819057421E+01 -0.47594925883E+02  0.72229031408E+02  0.86655421614E+02  0.00000000000E+00 0.  1.
         14    1    6    6    0    0  0.20757231939E+02  0.23074868632E+02  0.71814920918E+01  0.31857276544E+02  0.00000000000E+00 0. -1.
         -5    1    3    3    0  503 -0.12187395657E+02  0.34992474099E+02  0.71632278398E+01  0.38031666931E+02  0.47000000000E+01 0.  1.
         11    1    4    4    0    0  0.44225551674E+02 -0.59169831364E+01 -0.10399370205E+03  0.11316183180E+03  0.00000000000E+00 0. -1.
        -12    1    4    4    0    0 -0.82027643439E-02 -0.63566302213E+02 -0.57086675135E+02  0.85437481952E+02  0.00000000000E+00 0.  1.
</event>
<event>
12    1  0.8500177E-002  0.1719046E+03  0.7818608E-02  0.1176169E+00
         21   -1    0    0  501  502  0.00000000000E+00  0.00000000000E+00  0.30023434244E+03  0.30023434244E+03  0.00000000000E+00 0. -1.
         21   -1    0    0  502  503 -0.00000000000E+00 -0.00000000000E+00 -0.12268434322E+03  0.12268434322E+03  0.00000000000E+00 0. -1.
         -6    2    1    2    0  503 -0.41181687916E+01 -0.91170130232E+00 -0.62681365220E+01  0.17201886726E+03  0.17185287500E+03 0.  0.
        -24    2    3    3    0    0  0.48232047113E+02 -0.22206376719E+02  0.36859656720E+02  0.10077207887E+03  0.77310568810E+02 0.  0.
          6    2    1    2  501    0  0.41181687916E+01  0.91170130232E+00  0.18381813574E+03  0.25089981840E+03  0.17071561538E+03 0.  0.
         24    2    5    5    0    0  0.56929658321E+02 -0.35103291673E+02  0.87372566583E+02  0.13509838941E+03  0.78386110685E+02 0.  0.
          5    1    5    5  501    0 -0.52811489529E+02  0.36014992975E+02  0.96445569156E+02  0.11580142899E+03  0.47000000000E+01 0. -1.
        -11    1    6    6    0    0  0.24097267665E+02 -0.32962441106E+02 -0.95421303467E+00  0.40842518961E+02  0.00000000000E+00 0.  1.
         12    1    6    6    0    0  0.32832390656E+02 -0.21408505674E+01  0.88326779618E+02  0.94255870454E+02  0.00000000000E+00 0. -1.
         -5    1    3    3    0  503 -0.52350215905E+02  0.21294675417E+02 -0.43127793242E+02  0.71246788393E+02  0.47000000000E+01 0.  1.
         11    1    4    4    0    0  0.44919663458E+02 -0.34338856074E+01 -0.13414320287E+02  0.47005443560E+02  0.00000000000E+00 0. -1.
        -12    1    4    4    0    0  0.33123836557E+01 -0.18772491112E+02  0.50273977007E+02  0.53766635306E+02  0.00000000000E+00 0.  1.
</event>
<event>
12    1  0.8500177E-002  0.2673454E+03  0.7818608E-02  0.1103176E+00
         21   -1    0    0  503  502  0.00000000000E+00  0.00000000000E+00  0.41008765141E+03  0.41008765141E+03  0.00000000000E+00 0.  1.
         21   -1    0    0  501  503 -0.00000000000E+00 -0.00000000000E+00 -0.20026987470E+03  0.20026987470E+03  0.00000000000E+00 0. -1.
          6    2    1    2  501    0 -0.18906782688E+03  0.74033452669E+02 -0.80029315909E+01  0.26746513633E+03  0.17391364802E+03 0.  0.
         24    2    3    3    0    0 -0.63947266250E+02 -0.23887335977E+02  0.18094388424E+02  0.10638504553E+03  0.79564523122E+02 0.  0.
         -6    2    1    2    0  502  0.18906782688E+03 -0.74033452669E+02  0.21782070830E+03  0.34289238977E+03  0.17000510206E+03 0.  0.
        -24    2    5    5    0    0  0.21072638394E+03 -0.56743196987E+02  0.21116547201E+03  0.31400591879E+03  0.79896565499E+02 0.  0.
          5    1    3    3  501    0 -0.12512056062E+03  0.97920788646E+02 -0.26097320015E+02  0.16108009080E+03  0.47000000000E+01 0. -1.
        -13    1    4    4    0    0 -0.35631301084E+02 -0.30601412395E+02 -0.25900415653E+02  0.53636438999E+02  0.00000000000E+00 0.  1.
         14    1    4    4    0    0 -0.28315965167E+02  0.67140764179E+01  0.43994804078E+02  0.52748606534E+02  0.00000000000E+00 0. -1.
         -5    1    5    5    0  502 -0.21658557060E+02 -0.17290255682E+02  0.66552362920E+01  0.28886470978E+02  0.47000000000E+01 0.  1.
         11    1    6    6    0    0  0.18989769501E+02 -0.22489317659E+02  0.40792954264E+01  0.29715676093E+02  0.00000000000E+00 0. -1.
        -12    1    6    6    0    0  0.19173661443E+03 -0.34253879328E+02  0.20708617658E+03  0.28429024270E+03  0.00000000000E+00 0.  1.
</event>
<event>
12    1  0.8500177E-002  0.2021615E+03  0.7818608E-02  0.1149035E+00
         21   -1    0    0  501  502  0.00000000000E+00  0.00000000000E+00  0.53389959162E+02  0.53389959162E+02  0.00000000000E+00 0.  1.
         21   -1    0    0  502  503 -0.00000000000E+00 -0.00000000000E+00 -0.77099833998E+03  0.77099833998E+03  0.00000000000E+00 0.  1.
         -6    2    1    2    0  503 -0.38216565068E+02  0.86058210781E+02 -0.42882920414E+03  0.47187919578E+03  0.17294209320E+03 0.  0.
        -24    2    3    3    0    0 -0.26834056720E+02 -0.17309037143E+02 -0.25280391212E+03  0.26737652374E+03  0.80998259858E+02 0.  0.
          6    2    1    2  501    0  0.38216565068E+02 -0.86058210781E+02 -0.28877917668E+03  0.35250910336E+03  0.17889307863E+03 0.  0.
         24    2    5    5    0    0  0.31014720429E+02 -0.12903062643E+03 -0.24935993060E+03  0.29356453589E+03  0.79930884539E+02 0.  0.
          5    1    5    5  501    0  0.72018446385E+01  0.42972415650E+02 -0.39419246085E+02  0.58944567476E+02  0.47000000000E+01 0. -1.
        -11    1    6    6    0    0  0.51959156863E+02 -0.49018052855E+02 -0.13030507699E+03  0.14859992119E+03  0.00000000000E+00 0.  1.
         12    1    6    6    0    0 -0.20944436434E+02 -0.80012573576E+02 -0.11905485361E+03  0.14496461470E+03  0.00000000000E+00 0. -1.
         -5    1    3    3    0  503 -0.11382508348E+02  0.10336724792E+03 -0.17602529202E+03  0.20450267204E+03  0.47000000000E+01 0.  1.
         11    1    4    4    0    0 -0.54669863152E+02 -0.15790860133E+01 -0.14688000690E+03  0.15673233195E+03  0.00000000000E+00 0. -1.
        -12    1    4    4    0    0  0.27835806432E+02 -0.15729951130E+02 -0.10592390522E+03  0.11064419180E+03  0.00000000000E+00 0.  1.
</event>
<event>
12    1  0.8500177E-002  0.2154763E+03  0.7818608E-02  0.1137352E+00
         21   -1    0    0  501  502  0.00000000000E+00  0.00000000000E+00  0.69035113794E+02  0.69035113794E+02  0.00000000000E+00 0. -1.
         21   -1    0    0  502  503 -0.00000000000E+00 -0.00000000000E+00 -0.71387897936E+03  0.71387897936E+03  0.00000000000E+00 0.  1.
         -6    2    1    2    0  503  0.11083599097E+03 -0.69273308010E+02 -0.41773094594E+03  0.47003106008E+03  0.17130862834E+03 0.  0.
        -24    2    3    3    0    0  0.12397620390E+03 -0.90405562357E+02 -0.27136176468E+03  0.32148724637E+03  0.78572115973E+02 0.  0.
          6    2    1    2  501    0 -0.11083599097E+03  0.69273308010E+02 -0.22711291963E+03  0.31288303308E+03  0.17097399226E+03 0.  0.
         24    2    5    5    0    0 -0.20403824729E+02  0.43465350668E+02 -0.18991447834E+03  0.21164153275E+03  0.80119139594E+02 0.  0.
          5    1    5    5  501    0 -0.90432166245E+02  0.25807957342E+02 -0.37198441282E+02  0.10124150032E+03  0.47000000000E+01 0. -1.
        -13    1    6    6    0    0 -0.28819523165E+02 -0.15739128445E+02 -0.80745436448E+02  0.87167141670E+02  0.00000000000E+00 0.  1.
         14    1    6    6    0    0  0.84156984362E+01  0.59204479113E+02 -0.10916904190E+03  0.12447439108E+03  0.00000000000E+00 0. -1.
         -5    1    3    3    0  503 -0.13140212922E+02  0.21132254347E+02 -0.14636918126E+03  0.14854381371E+03  0.47000000000E+01 0.  1.
         11    1    4    4    0    0 -0.28652559633E+01 -0.28678044214E+02 -0.27912431708E+02  0.40121612076E+02  0.00000000000E+00 0. -1.
        -12    1    4    4    0    0  0.12684145986E+03 -0.61727518143E+02 -0.24344933298E+03  0.28136563429E+03  0.00000000000E+00 0.  1.
</event>
<event>
12    1  0.8500177E-002  0.1862081E+03  0.7818608E-02  0.1162129E+00
         21   -1    0    0  503  502  0.00000000000E+00  0.00000000000E+00  0.79878880087E+03  0.79878880087E+03  0.00000000000E+00 0.  1.
         21   -1    0    0  501  503 -0.00000000000E+00 -0.00000000000E+00 -0.44347591654E+02  0.44347591654E+02  0.00000000000E+00 0.  1.
          6    2    1    2  501    0  0.38991943445E+02 -0.60592609690E+02  0.31041109229E+03  0.36197857948E+03  0.17170209603E+03 0.  0.
         24    2    3    3    0    0  0.36051932540E+02 -0.10495380004E+03  0.25116337918E+03  0.28775634304E+03  0.86055958148E+02 0.  0.
         -6    2    1    2    0  502 -0.38991943445E+02  0.60592609690E+02  0.44403011692E+03  0.48115781304E+03  0.17075789972E+03 0.  0.
        -24    2    5    5    0    0 -0.89375917016E+02  0.19804851773E+02  0.28563028409E+03  0.30994220911E+03  0.78097548636E+02 0.  0.
          5    1    3    3  501    0  0.29400109049E+01  0.44361190353E+02  0.59247713106E+02  0.74222236439E+02  0.47000000000E+01 0. -1.
        -11    1    4    4    0    0  0.53308052591E+01 -0.69374173421E+02  0.22150213980E+03  0.23217319259E+03  0.00000000000E+00 0.  1.
         12    1    4    4    0    0  0.30721127281E+02 -0.35579626622E+02  0.29661239388E+02  0.55583150450E+02  0.00000000000E+00 0. -1.
         -5    1    5    5    0  502  0.50383973571E+02  0.40787757917E+02  0.15839983283E+03  0.17121560393E+03  0.47000000000E+01 0.  1.
         11    1    6    6    0    0 -0.23335101221E+02 -0.15577181671E+02  0.21375187325E+02  0.35271435624E+02  0.00000000000E+00 0. -1.
        -12    1    6    6    0    0 -0.66040815795E+02  0.35382033444E+02  0.26425509677E+03  0.27467077349E+03  0.00000000000E+00 0.  1.
</event>
<event>
12    1  0.8500177E-002  0.2013721E+03  0.7818608E-02  0.1149223E+00
         21   -1    0    0  501  502  0.00000000000E+00  0.00000000000E+00  0.26948703132E+03  0.26948703132E+03  0.00000000000E+00 0.  1.
         21   -1    0    0  502  503 -0.00000000000E+00 -0.00000000000E+00 -0.14954678509E+03  0.14954678509E+03  0.00000000000E+00 0.  1.
         -6    2    1    2    0  503 -0.89027457707E+02  0.49260538580E+02  0.40724727020E+02  0.20544886120E+03  0.17377641466E+03 0.  0.
        -24    2    3    3    0    0 -0.11691490329E+03  0.79737879934E+02  0.19549671992E+02  0.15878998303E+03  0.69316988727E+02 0.  0.
          6    2    1    2  501    0  0.89027457707E+02 -0.49260538580E+02  0.79215519210E+02  0.21358495521E+03  0.17026727731E+03 0.  0.
         24    2    5    5    0    0 -0.27755340569E+01 -0.36961676738E+02  0.82125499806E+02  0.12079697492E+03  0.80457705009E+02 0.  0.
          5    1    5    5  501    0  0.91802991764E+02 -0.12298861842E+02 -0.29099805968E+01  0.92787980291E+02  0.47000000000E+01 0. -1.
        -11    1    6    6    0    0  0.25284313300E+02 -0.21273067375E+01  0.69993502352E+02  0.74450737435E+02  0.00000000000E+00 0.  1.
         12    1    6    6    0    0 -0.28059847357E+02 -0.34834370000E+02  0.12131997454E+02  0.46346237487E+02  0.00000000000E+00 0. -1.
         -5    1    3    3    0  503  0.27887445585E+02 -0.30477341354E+02  0.21175055028E+02  0.46658878177E+02  0.47000000000E+01 0.  1.
         11    1    4    4    0    0  0.14077839524E+01  0.36310979653E+01 -0.13687965128E+02  0.14231202249E+02  0.00000000000E+00 0. -1.
        -12    1    4    4    0    0 -0.11832268724E+03  0.76106781969E+02  0.33237637120E+02  0.14455878078E+03  0.00000000000E+00 0.  1.
</event>
<event>
12    1  0.8500177E-002  0.2146084E+03  0.7818608E-02  0.1138260E+00
         21   -1    0    0  503  502  0.00000000000E+00  0.00000000000E+00  0.23703853135E+03  0.23703853135E+03  0.00000000000E+00 0.  1.
         21   -1    0    0  501  503 -0.00000000000E+00 -0.00000000000E+00 -0.19294020407E+03  0.19294020407E+03  0.00000000000E+00 0. -1.
          6    2    1    2  501    0  0.43600614856E+01  0.12542447081E+03  0.20803304869E+02  0.21410974359E+03  0.17222048888E+03 0.  0.
         24    2    3    3    0    0  0.10000489478E+02  0.84996372562E+02 -0.54047794094E+02  0.12872225872E+03  0.79522718172E+02 0.  0.
         -6    2    1    2    0  502 -0.43600614856E+01 -0.12542447081E+03  0.23295022411E+02  0.21586899183E+03  0.17408749395E+03 0.  0.
        -24    2    5    5    0    0  0.35302107724E+02 -0.13223295493E+03  0.50829511525E+02  0.16688245069E+03  0.80835140407E+02 0.  0.
          5    1    3    3  501    0 -0.56404279928E+01  0.40428098250E+02  0.74851098962E+02  0.85387484867E+02  0.47000000000E+01 0. -1.
        -11    1    4    4    0    0  0.37600265700E+02  0.43554129189E+02 -0.33101654297E+01  0.57634185561E+02  0.00000000000E+00 0.  1.
         12    1    4    4    0    0 -0.27599776221E+02  0.41442243373E+02 -0.50737628664E+02  0.71088073161E+02  0.00000000000E+00 0. -1.
         -5    1    5    5    0  502 -0.39662169210E+02  0.68084841227E+01 -0.27534489114E+02  0.48986541144E+02  0.47000000000E+01 0.  1.
         11    1    6    6    0    0  0.51057440416E+02 -0.42008065652E+02  0.11084030381E+02  0.67040253066E+02  0.00000000000E+00 0. -1.
        -12    1    6    6    0    0 -0.15755332692E+02 -0.90224889283E+02  0.39745481143E+02  0.99842197621E+02  0.00000000000E+00 0.  1.
</event>
<event>
12    1  0.8500177E-002  0.2176382E+03  0.7818608E-02  0.1136244E+00
         21   -1    0    0  501  502  0.00000000000E+00  0.00000000000E+00  0.19792346303E+03  0.19792346303E+03  0.00000000000E+00 0.  1.
         21   -1    0    0  502  503 -0.00000000000E+00 -0.00000000000E+00 -0.88949507701E+03  0.88949507701E+03  0.00000000000E+00 0.  1.
         -6    2    1    2    0  503  0.53075771559E+02  0.12212920189E+03 -0.81118368266E+03  0.83907716330E+03  0.16822288634E+03 0.  0.
        -24    2    3    3    0    0  0.78320852343E+02  0.36082289063E+02 -0.34537202128E+03  0.36468915841E+03  0.79248102083E+02 0.  0.
          6    2    1    2  501    0 -0.53075771559E+02 -0.12212920189E+03  0.11961206867E+03  0.24834137674E+03  0.17214474418E+03 0.  0.
         24    2    5    5    0    0  0.22055011841E+02 -0.27862069702E+02  0.78248836388E+02  0.12081124771E+03  0.84910297976E+02 0.  0.
          5    1    5    5  501    0 -0.75130783400E+02 -0.94267132188E+02  0.41363232286E+02  0.12753012903E+03  0.47000000000E+01 0. -1.
        -13    1    6    6    0    0 -0.38176894540E+01 -0.49442288397E+02  0.70578297705E+02  0.86257815540E+02  0.00000000000E+00 0.  1.
         14    1    6    6    0    0  0.25872701295E+02  0.21580218695E+02  0.76705386825E+01  0.34553432173E+02  0.00000000000E+00 0. -1.
         -5    1    3    3    0  503 -0.25245080783E+02  0.86046912827E+02 -0.46581166138E+03  0.47438800489E+03  0.47000000000E+01 0.  1.
         11    1    4    4    0    0 -0.10752337110E+01 -0.19492272515E+02 -0.73976726078E+02  0.76509220467E+02  0.00000000000E+00 0. -1.
        -12    1    4    4    0    0  0.79396086053E+02  0.55574561578E+02 -0.27139529520E+03  0.28817993794E+03  0.00000000000E+00 0.  1.
</event>
<event>
12    1  0.8500177E-002  0.1809626E+03  0.7818608E-02  0.1167169E+00
         21   -1    0    0  501  502  0.00000000000E+00  0.00000000000E+00  0.12982173585E+03  0.12982173585E+03  0.00000000000E+00 0. -1.
         21   -1    0    0  502  503 -0.00000000000E+00 -0.00000000000E+00 -0.27370187932E+03  0.27370187932E+03  0.00000000000E+00 0. -1.
         -6    2    1    2    0  503 -0.52503334146E+02  0.18333382968E+02 -0.13084529729E+03  0.22331134804E+03  0.17220555541E+03 0.  0.
        -24    2    3    3    0    0 -0.67572673629E+02  0.55061609951E+02 -0.13769154530E+03  0.18275264045E+03  0.82714683291E+02 0.  0.
          6    2    1    2  501    0  0.52503334146E+02 -0.18333382968E+02 -0.13034846180E+02  0.18021226713E+03  0.17092056921E+03 0.  0.
         24    2    5    5    0    0  0.35335911782E+02  0.54651998218E+02  0.34280283208E+01  0.10330516411E+03  0.80154463275E+02 0.  0.
          5    1    5    5  501    0  0.17167422364E+02 -0.72985381185E+02 -0.16462874501E+02  0.76907103015E+02  0.47000000000E+01 0. -1.
        -13    1    6    6    0    0  0.38678269259E+02 -0.13612335701E+01 -0.18704566941E+02  0.42985140388E+02  0.00000000000E+00 0.  1.
         14    1    6    6    0    0 -0.33423574766E+01  0.56013231788E+02  0.22132595262E+02  0.60320023722E+02  0.00000000000E+00 0. -1.
         -5    1    3    3    0  503  0.15069339483E+02 -0.36728226984E+02  0.68462480100E+01  0.40558707593E+02  0.47000000000E+01 0.  1.
         11    1    4    4    0    0 -0.26731002967E+02  0.19726838413E+01 -0.10472044375E+03  0.10809629661E+03  0.00000000000E+00 0. -1.
        -12    1    4    4    0    0 -0.40841670662E+02  0.53088926110E+02 -0.32971101547E+02  0.74656343838E+02  0.00000000000E+00 0.  1.
</event>
<event>
12    1  0.8500177E-002  0.1752761E+03  0.7818608E-02  0.1172657E+00
         21   -1    0    0  501  502  0.00000000000E+00  0.00000000000E+00  0.53214192245E+02  0.53214192245E+02  0.00000000000E+00 0.  1.
         21   -1    0    0  502  503 -0.00000000000E+00 -0.00000000000E+00 -0.68084829585E+03  0.68084829585E+03  0.00000000000E+00 0. -1.
         -6    2    1    2    0  503 -0.13138375823E+02  0.29863563242E+02 -0.45936593431E+03  0.49166936087E+03  0.17221280290E+03 0.  0.
        -24    2    3    3    0    0  0.12136190297E+02  0.30630194978E+02 -0.45837071579E+03  0.46593083184E+03  0.76826629559E+02 0.  0.
          6    2    1    2  501    0  0.13138375823E+02 -0.29863563242E+02 -0.16826816929E+03  0.24239312722E+03  0.17139370466E+03 0.  0.
         24    2    5    5    0    0 -0.58254865844E+02 -0.64638123029E+01 -0.90267767905E+02  0.13399250030E+03  0.79814221483E+02 0.  0.
          5    1    5    5  501    0  0.71393241668E+02 -0.23399750939E+02 -0.78000401382E+02  0.10840062692E+03  0.47000000000E+01 0. -1.
        -11    1    6    6    0    0 -0.20027283190E+02 -0.41354572355E+02 -0.31643454075E+02  0.55790688403E+02  0.00000000000E+00 0.  1.
         12    1    6    6    0    0 -0.38227582654E+02  0.34890760052E+02 -0.58624313829E+02  0.78201811901E+02  0.00000000000E+00 0. -1.
         -5    1    3    3    0  503 -0.25274566121E+02 -0.76663173528E+00 -0.99521852726E+00  0.25738529032E+02  0.47000000000E+01 0.  1.
         11    1    4    4    0    0  0.13964973027E+02 -0.13849338340E+02 -0.34369889977E+02  0.39599418950E+02  0.00000000000E+00 0. -1.
        -12    1    4    4    0    0 -0.18287827294E+01  0.44479533318E+02 -0.42400082581E+03  0.42633141289E+03  0.00000000000E+00 0.  1.
</event>
<event>
12    1  0.8500177E-002  0.3229998E+03  0.7818608E-02  0.1074292E+00
         21   -1    0    0  501  502  0.00000000000E+00  0.00000000000E+00  0.95517479889E+02  0.95517479889E+02  0.00000000000E+00 0.  1.
         21   -1    0    0  502  503 -0.00000000000E+00 -0.00000000000E+00 -0.10933965994E+04  0.10933965994E+04  0.00000000000E+00 0. -1.
         -6    2    1    2    0  503  0.34841815242E+02  0.27092804517E+03 -0.47602978097E+03  0.57519134000E+03  0.17211846936E+03 0.  0.
        -24    2    3    3    0    0  0.55611448675E+02  0.77296291710E+02 -0.23390750164E+03  0.26443432597E+03  0.78392879103E+02 0.  0.
          6    2    1    2  501    0 -0.34841815242E+02 -0.27092804517E+03 -0.52184933851E+03  0.61372273925E+03  0.17237433344E+03 0.  0.
         24    2    5    5    0    0 -0.27190842847E+02 -0.64119784862E+02 -0.10913561840E+03  0.15200540291E+03  0.79651557213E+02 0.  0.
          5    1    5    5  501    0 -0.76509723949E+01 -0.20680826031E+03 -0.41271372011E+03  0.46171733634E+03  0.47000000000E+01 0. -1.
        -11    1    6    6    0    0 -0.29179849002E+02  0.35443408212E+01 -0.64607135702E+02  0.70979630340E+02  0.00000000000E+00 0.  1.
         12    1    6    6    0    0  0.19890061543E+01 -0.67664125684E+02 -0.44528482695E+02  0.81025772573E+02  0.00000000000E+00 0. -1.
         -5    1    3    3    0  503 -0.20769633433E+02  0.19363175346E+03 -0.24212227933E+03  0.31075701403E+03  0.47000000000E+01 0.  1.
         13    1    4    4    0    0  0.56265506597E+01  0.83193868565E+01  0.46915295312E+01  0.11085157614E+02  0.00000000000E+00 0. -1.
        -14    1    4    4    0    0  0.49984898015E+02  0.68976904854E+02 -0.23859903117E+03  0.25334916836E+03  0.00000000000E+00 0.  1.
</event>
<event>
12    1  0.8500177E-002  0.1999744E+03  0.7818608E-02  0.1150286E+00
         21   -1    0    0  503  502  0.00000000000E+00  0.00000000000E+00  0.79492528177E+02  0.79492528177E+02  0.00000000000E+00 0. -1.
         21   -1    0    0  501  503 -0.00000000000E+00 -0.00000000000E+00 -0.55772803456E+03  0.55772803456E+03  0.00000000000E+00 0. -1.
          6    2    1    2  501    0 -0.76196221253E+02  0.68992226490E+02 -0.34570309235E+03  0.39937502261E+03  0.17153422158E+03 0.  0.
         24    2    3    3    0    0 -0.69072899524E+01 -0.25714832916E+02 -0.14745038490E+03  0.16894800789E+03  0.78056710639E+02 0.  0.
         -6    2    1    2    0  502  0.76196221253E+02 -0.68992226490E+02 -0.13253241403E+03  0.23784554013E+03  0.16864124270E+03 0.  0.
        -24    2    5    5    0    0 -0.56758489399E+01 -0.59519113105E+02 -0.33829584070E+02  0.10917108891E+03  0.84847780221E+02 0.  0.
          5    1    3    3  501    0 -0.69288931300E+02  0.94707059407E+02 -0.19825270745E+03  0.23042701472E+03  0.47000000000E+01 0. -1.
        -13    1    4    4    0    0 -0.11623465952E+02 -0.28772163187E+02 -0.11827817283E+02  0.33209028846E+02  0.00000000000E+00 0.  1.
         14    1    4    4    0    0  0.47161759998E+01  0.30573302702E+01 -0.13562256762E+03  0.13573897904E+03  0.00000000000E+00 0. -1.
         -5    1    5    5    0  502  0.81872070193E+02 -0.94731133847E+01 -0.98702829964E+02  0.12867445122E+03  0.47000000000E+01 0.  1.
         13    1    6    6    0    0  0.92389902005E+01 -0.44338812861E+02 -0.60168192694E+02  0.75309366469E+02  0.00000000000E+00 0. -1.
        -14    1    6    6    0    0 -0.14914839140E+02 -0.15180300244E+02  0.26338608625E+02  0.33861722437E+02  0.00000000000E+00 0.  1.
</event>
<event>
12    1  0.8500177E-002  0.1830498E+03  0.7818608E-02  0.1164899E+00
         21   -1    0    0  503  502  0.00000000000E+00  0.00000000000E+00  0.27023901378E+03  0.27023901378E+03  0.00000000000E+00 0.  1.
         21   -1    0    0  501  503 -0.00000000000E+00 -0.00000000000E+00 -0.12559298878E+03  0.12559298878E+03  0.00000000000E+00 0. -1.
          6    2    1    2  501    0 -0.41282466844E+02 -0.45599555758E+02  0.49671345325E+02  0.18966939208E+03  0.17240555151E+03 0.  0.
         24    2    3    3    0    0 -0.46263632895E+02 -0.71472411536E+02 -0.17132316495E+02  0.11770387315E+03  0.79448449625E+02 0.  0.
         -6    2    1    2    0  502  0.41282466844E+02  0.45599555758E+02  0.94974679676E+02  0.20616261049E+03  0.17233476327E+03 0.  0.
        -24    2    5    5    0    0 -0.19320156695E+02  0.68145074191E+02  0.94289724916E+02  0.14132791650E+03  0.77884582348E+02 0.  0.
          5    1    3    3  501    0  0.49811660502E+01  0.25872855778E+02  0.66803661820E+02  0.71965518923E+02  0.47000000000E+01 0. -1.
        -11    1    4    4    0    0  0.11324200810E+01 -0.15589027998E+02  0.27696884856E+02  0.31802792329E+02  0.00000000000E+00 0.  1.
         12    1    4    4    0    0 -0.47396052976E+02 -0.55883383539E+02 -0.44829201351E+02  0.85901080826E+02  0.00000000000E+00 0. -1.
         -5    1    5    5    0  502  0.60602623540E+02 -0.22545518433E+02  0.68495476018E+00  0.64834693986E+02  0.47000000000E+01 0.  1.
         11    1    6    6    0    0  0.13453619585E+02  0.69431240088E+02  0.51860988013E+02  0.87699823590E+02  0.00000000000E+00 0. -1.
        -12    1    6    6    0    0 -0.32773776281E+02 -0.12861658970E+01  0.42428736904E+02  0.53628092914E+02  0.00000000000E+00 0.  1.
</event>
<event>
12    1  0.8500177E-002  0.2126102E+03  0.7818608E-02  0.1139564E+00
         21   -1    0    0  501  502  0.00000000000E+00  0.00000000000E+00  0.38611330773E+03  0.38611330773E+03  0.00000000000E+00 0.  1.
         21   -1    0    0  502  503 -0.00000000000E+00 -0.00000000000E+00 -0.18699780128E+03  0.18699780128E+03  0.00000000000E+00 0. -1.
         -6    2    1    2    0  503 -0.10792602084E+03  0.67415762661E+02 -0.75881808431E+02  0.22550984601E+03  0.17001097249E+03 0.  0.
        -24    2    3    3    0    0 -0.32470964720E+02  0.58012504224E+02  0.15993465450E+02  0.10615724774E+03  0.81201946488E+02 0.  0.
          6    2    1    2  501    0  0.10792602084E+03 -0.67415762661E+02  0.27499731488E+03  0.34760126301E+03  0.17032382049E+03 0.  0.
         24    2    5    5    0    0  0.71055025692E+02  0.35659925050E+01  0.23482614246E+03  0.25797039253E+03  0.79648435395E+02 0.  0.
          5    1    5    5  501    0  0.36870995148E+02 -0.70981755166E+02  0.40171172422E+02  0.89630870482E+02  0.47000000000E+01 0. -1.
        -11    1    6    6    0    0  0.59268527585E+02  0.85632979292E+01  0.67820997892E+02  0.90475279433E+02  0.00000000000E+00 0.  1.
         12    1    6    6    0    0  0.11786498107E+02 -0.49973054241E+01  0.16700514457E+03  0.16749511310E+03  0.00000000000E+00 0. -1.
         -5    1    3    3    0  503 -0.75455056120E+02  0.94032584362E+01 -0.91875273881E+02  0.11935259827E+03  0.47000000000E+01 0.  1.
         11    1    4    4    0    0  0.12109470689E+01 -0.47384066826E+01 -0.23989103572E+02  0.24482564834E+02  0.00000000000E+00 0. -1.
        -12    1    4    4    0    0 -0.33681911789E+02  0.62750910907E+02  0.39982569022E+02  0.81674682901E+02  0.00000000000E+00 0.  1.
</event>
<event>
12    1  0.8500177E-002  0.1967278E+03  0.7818608E-02  0.1152556E+00
         21   -1    0    0  501  502  0.00000000000E+00  0.00000000000E+00  0.18101629446E+03  0.18101629446E+03  0.00000000000E+00 0. -1.
         21   -1    0    0  502  503 -0.00000000000E+00 -0.00000000000E+00 -0.28060112874E+03  0.28060112874E+03  0.00000000000E+00 0. -1.
         -6    2    1    2    0  503  0.89903608846E+02 -0.32885620326E+02 -0.16252889679E+03  0.25518124783E+03  0.17186536604E+03 0.  0.
        -24    2    3    3    0    0  0.42833132804E+02 -0.60539588977E+02 -0.31515264245E+02  0.11317056651E+03  0.79464747811E+02 0.  0.
          6    2    1    2  501    0 -0.89903608846E+02  0.32885620326E+02  0.62944062505E+02  0.20643617537E+03  0.17172599276E+03 0.  0.
         24    2    5    5    0    0 -0.79410570945E+02 -0.25933908752E+02 -0.95367547062E+01  0.11238619021E+03  0.74572780944E+02 0.  0.
          5    1    5    5  501    0 -0.10493037901E+02  0.58819529078E+02  0.72480817211E+02  0.94049985161E+02  0.47000000000E+01 0. -1.
        -11    1    6    6    0    0 -0.25594840596E+02 -0.40925332374E+02  0.16148641862E+02  0.50899482602E+02  0.00000000000E+00 0.  1.
         12    1    6    6    0    0 -0.53815730348E+02  0.14991423622E+02 -0.25685396569E+02  0.61486707604E+02  0.00000000000E+00 0. -1.
         -5    1    3    3    0  503  0.47070476042E+02  0.27653968651E+02 -0.13101363254E+03  0.14201068132E+03  0.47000000000E+01 0.  1.
         11    1    4    4    0    0  0.18464938467E+02  0.14944402359E+02 -0.23553191082E+02  0.33452084010E+02  0.00000000000E+00 0. -1.
        -12    1    4    4    0    0  0.24368194337E+02 -0.75483991335E+02 -0.79620731634E+01  0.79718482501E+02  0.00000000000E+00 0.  1.
</event>
<event>
12    1  0.8500177E-002  0.1743742E+03  0.7818608E-02  0.1173950E+00
         21   -1    0    0  501  502  0.00000000000E+00  0.00000000000E+00  0.11743186171E+03  0.11743186171E+03  0.00000000000E+00 0.  1.
         21   -1    0    0  502  503 -0.00000000000E+00 -0.00000000000E+00 -0.26556803966E+03  0.26556803966E+03  0.00000000000E+00 0.  1.
         -6    2    1    2    0  503  0.20459090265E+01 -0.15415287283E+02 -0.37252785640E+02  0.17830909966E+03  0.17367944080E+03 0.  0.
        -24    2    3    3    0    0  0.66737195119E+02 -0.27650710334E+02 -0.19181845231E+02  0.10987433539E+03  0.80535777122E+02 0.  0.
          6    2    1    2  501    0 -0.20459090265E+01  0.15415287283E+02 -0.11088339231E+03  0.20469080170E+03  0.17135162907E+03 0.  0.
         24    2    5    5    0    0  0.22429229237E+02  0.70632704945E+02 -0.89441749420E+02  0.14042705099E+03  0.78916923268E+02 0.  0.
          5    1    5    5  501    0 -0.24475138263E+02 -0.55217417662E+02 -0.21441642890E+02  0.64263750716E+02  0.47000000000E+01 0. -1.
        -11    1    6    6    0    0 -0.74846531278E+01  0.54741955585E+02 -0.91065115937E+02  0.10651552504E+03  0.00000000000E+00 0.  1.
         12    1    6    6    0    0  0.29913882365E+02  0.15890749359E+02  0.16233665176E+01  0.33911525949E+02  0.00000000000E+00 0. -1.
         -5    1    3    3    0  503 -0.64691286092E+02  0.12235423051E+02 -0.18070940409E+02  0.68434764270E+02  0.47000000000E+01 0.  1.
         13    1    4    4    0    0  0.85116533945E+01  0.22861264052E+02  0.11425800739E+02  0.26937604943E+02  0.00000000000E+00 0. -1.
        -14    1    4    4    0    0  0.58225541724E+02 -0.50511974385E+02 -0.30607645970E+02  0.82936730447E+02  0.00000000000E+00 0.  1.
</event>
<event>
12    1  0.8500177E-002  0.2665077E+03  0.7818608E-02  0.1104266E+00
         21   -1    0    0  501  502  0.00000000000E+00  0.00000000000E+00  0.32960285773E+03  0.32960285773E+03  0.00000000000E+00 0.  1.
         21   -1    0    0  502  503 -0.00000000000E+00 -0.00000000000E+00 -0.28503340981E+03  0.28503340981E+03  0.00000000000E+00 0.  1.
         -6    2    1    2    0  503 -0.17568378287E+03  0.10391219710E+03 -0.13496820404E+03  0.29873532543E+03  0.17135881153E+03 0.  0.
        -24    2    3    3    0    0 -0.19798697704E+03  0.75158730010E+02 -0.12981977371E+03  0.26168413551E+03  0.82327002613E+02 0.  0.
          6    2    1    2  501    0  0.17568378287E+03 -0.10391219710E+03  0.17953765196E+03  0.31590094211E+03  0.16092576078E+03 0.  0.
         24    2    5    5    0    0  0.19190656991E+03 -0.70399037927E+02  0.16791593180E+03  0.27661398452E+03  0.80841698178E+02 0.  0.
          5    1    5    5  501    0 -0.16222787039E+02 -0.33513159171E+02  0.11621720166E+02  0.39286957588E+02  0.47000000000E+01 0. -1.
        -13    1    6    6    0    0  0.11953938406E+03 -0.13752624548E+02  0.58717499887E+02  0.13389004375E+03  0.00000000000E+00 0.  1.
         14    1    6    6    0    0  0.72367185858E+02 -0.56646413379E+02  0.10919843191E+03  0.14272394077E+03  0.00000000000E+00 0. -1.
         -5    1    3    3    0  503  0.22303194164E+02  0.28753467088E+02 -0.51484303266E+01  0.37051189918E+02  0.47000000000E+01 0.  1.
         11    1    4    4    0    0 -0.74530811016E+02  0.69274378956E+01 -0.79504263609E+01  0.75273105860E+02  0.00000000000E+00 0. -1.
        -12    1    4    4    0    0 -0.12345616602E+03  0.68231292114E+02 -0.12186934735E+03  0.18641102965E+03  0.00000000000E+00 0.  1.
</event>
<event>
12    1  0.8500177E-002  0.1897143E+03  0.7818608E-02  0.1158983E+00
         21   -1    0    0  503  502  0.00000000000E+00  0.00000000000E+00  0.13320706013E+03  0.13320706013E+03  0.00000000000E+00 0. -1.
         21   -1    0    0  501  503 -0.00000000000E+00 -0.00000000000E+00 -0.30626061035E+03  0.30626061035E+03  0.00000000000E+00 0. -1.
          6    2    1    2  501    0 -0.60175766838E+02  0.47494405937E+02 -0.16340872229E+03  0.24950838238E+03  0.17226485669E+03 0.  0.
         24    2    3    3    0    0 -0.97789567512E+00  0.41967708593E+02 -0.16475463499E+02  0.90932202357E+02  0.78961887537E+02 0.  0.
         -6    2    1    2    0  502  0.60175766838E+02 -0.47494405937E+02 -0.96448279355E+01  0.18995928810E+03  0.17353577994E+03 0.  0.
        -24    2    5    5    0    0  0.32728952692E+02 -0.94930999347E+02  0.17600435197E+02  0.12857563910E+03  0.78350754109E+02 0.  0.
          5    1    3    3  501    0 -0.59197871163E+02  0.55266973437E+01 -0.14693325879E+03  0.15857618003E+03  0.47000000000E+01 0. -1.
        -13    1    4    4    0    0 -0.17218177319E+02 -0.63477568364E+01  0.20834888309E+02  0.27764225505E+02  0.00000000000E+00 0.  1.
         14    1    4    4    0    0  0.16240281644E+02  0.48315465429E+02 -0.37310351808E+02  0.63167976852E+02  0.00000000000E+00 0. -1.
         -5    1    5    5    0  502  0.27446814146E+02  0.47436593410E+02 -0.27245263132E+02  0.61383648998E+02  0.47000000000E+01 0.  1.
         13    1    6    6    0    0 -0.13034544231E+02 -0.24277184213E+02  0.33007492494E+02  0.42997390355E+02  0.00000000000E+00 0. -1.
        -14    1    6    6    0    0  0.45763496923E+02 -0.70653815134E+02 -0.15407057297E+02  0.85578248744E+02  0.00000000000E+00 0.  1.
</event>
<event>
12    1  0.8500177E-002  0.1918138E+03  0.7818608E-02  0.1157429E+00
         21   -1    0    0  503  502  0.00000000000E+00  0.00000000000E+00  0.93062265531E+03  0.93062265531E+03  0.00000000000E+00 0.  1.
         21   -1    0    0  501  503 -0.00000000000E+00 -0.00000000000E+00 -0.45865171335E+02  0.45865171335E+02  0.00000000000E+00 0. -1.
          6    2    1    2  501    0 -0.60711362748E+02  0.59198225418E+02  0.63398823544E+03  0.66236968774E+03  0.17205296016E+03 0.  0.
         24    2    3    3    0    0  0.48197734790E+01  0.88126320302E+02  0.36618794260E+03  0.38511483867E+03  0.80189470061E+02 0.  0.
         -6    2    1    2    0  502  0.60711362748E+02 -0.59198225418E+02  0.25076924853E+03  0.31411813890E+03  0.16909964435E+03 0.  0.
        -24    2    5    5    0    0 -0.22209063621E+02 -0.77780193381E+01  0.16718860226E+03  0.18555823406E+03  0.76981097744E+02 0.  0.
          5    1    3    3  501    0 -0.65531136227E+02 -0.28928094884E+02  0.26780029284E+03  0.27725484907E+03  0.47000000000E+01 0. -1.
        -13    1    4    4    0    0 -0.67434074005E+01  0.62606335592E+02  0.34304173476E+03  0.34877307606E+03  0.00000000000E+00 0.  1.
         14    1    4    4    0    0  0.11563180879E+02  0.25519984711E+02  0.23146207840E+02  0.36341762602E+02  0.00000000000E+00 0. -1.
         -5    1    5    5    0  502  0.82920426369E+02 -0.51420206080E+02  0.83580646272E+02  0.12855990485E+03  0.47000000000E+01 0.  1.
         11    1    6    6    0    0 -0.10068250077E+02 -0.75415240850E+01 -0.45602899156E+01  0.13380601229E+02  0.00000000000E+00 0. -1.
        -12    1    6    6    0    0 -0.12140813544E+02 -0.23649525301E+00  0.17174889217E+03  0.17217763283E+03  0.00000000000E+00 0.  1.
</event>
<event>
12    1  0.8500177E-002  0.3104079E+03  0.7818608E-02  0.1080324E+00
         21   -1    0    0  501  502  0.00000000000E+00  0.00000000000E+00  0.12791300532E+04  0.12791300532E+04  0.00000000000E+00 0.  1.
         21   -1    0    0  502  503 -0.00000000000E+00 -0.00000000000E+00 -0.82798500538E+02  0.82798500538E+02  0.00000000000E+00 0.  1.
         -6    2    1    2    0  503  0.17637835345E+03 -0.18625324972E+03  0.80620490348E+03  0.86337878636E+03  0.17221203720E+03 0.  0.
        -24    2    3    3    0    0  0.17483860891E+03 -0.21024604699E+03  0.73396236317E+03  0.78709576227E+03  0.77762773879E+02 0.  0.
          6    2    1    2  501    0 -0.17637835345E+03  0.18625324972E+03  0.39012664917E+03  0.49854976736E+03  0.17479551353E+03 0.  0.
         24    2    5    5    0    0 -0.16755906321E+03  0.12272785693E+03  0.20366700364E+03  0.30131248685E+03  0.78554438661E+02 0.  0.
          5    1    5    5  501    0 -0.88192902369E+01  0.63525392785E+02  0.18645964554E+03  0.19723728051E+03  0.47000000000E+01 0. -1.
        -13    1    6    6    0    0 -0.78043235119E+02  0.13299623518E+02  0.56659917301E+02  0.97354880525E+02  0.00000000000E+00 0.  1.
         14    1    6    6    0    0 -0.89515828092E+02  0.10942823341E+03  0.14700708633E+03  0.20395760633E+03  0.00000000000E+00 0. -1.
         -5    1    3    3    0  503  0.15397445375E+01  0.23992797270E+02  0.72242540309E+02  0.76283024091E+02  0.47000000000E+01 0.  1.
         13    1    4    4    0    0  0.42424946856E+02 -0.24206732503E+02  0.20877532184E+03  0.21441309900E+03  0.00000000000E+00 0. -1.
        -14    1    4    4    0    0  0.13241366205E+03 -0.18603931448E+03  0.52518704133E+03  0.57268266327E+03  0.00000000000E+00 0.  1.
</event>
<event>
12    1  0.8500177E-002  0.2147666E+03  0.7818608E-02  0.1137938E+00
         21   -1    0    0  501  502  0.00000000000E+00  0.00000000000E+00  0.57064486401E+03  0.57064486401E+03  0.00000000000E+00 0.  1.
         21   -1    0    0  502  503 -0.00000000000E+00 -0.00000000000E+00 -0.11901119130E+03  0.11901119130E+03  0.00000000000E+00 0. -1.
         -6    2    1    2    0  503  0.68054980152E+02 -0.10677989308E+03  0.29871096218E+02  0.21636083835E+03  0.17287655738E+03 0.  0.
        -24    2    3    3    0    0 -0.40955036515E+01 -0.53715945825E+01 -0.22158159755E+02  0.81385030162E+02  0.78018663871E+02 0.  0.
          6    2    1    2  501    0 -0.68054980152E+02  0.10677989308E+03  0.42176257650E+03  0.47329521696E+03  0.17346834171E+03 0.  0.
         24    2    5    5    0    0 -0.11277679047E+02 -0.12717688902E+02  0.17527147085E+03  0.19350370676E+03  0.80216397189E+02 0.  0.
          5    1    5    5  501    0 -0.56777301105E+02  0.11949758198E+03  0.24649110565E+03  0.27979151021E+03  0.47000000000E+01 0. -1.
        -11    1    6    6    0    0  0.20936107839E+02 -0.21308693872E+02  0.23208440582E+02  0.37828729297E+02  0.00000000000E+00 0.  1.
         12    1    6    6    0    0 -0.32213786887E+02  0.85910049691E+01  0.15206303027E+03  0.15567497746E+03  0.00000000000E+00 0. -1.
         -5    1    3    3    0  503  0.72150483804E+02 -0.10140829850E+03  0.52029255973E+02  0.13497580818E+03  0.47000000000E+01 0.  1.
         13    1    4    4    0    0  0.30351775277E+02 -0.13843124363E+02 -0.30213803213E+02  0.45008179915E+02  0.00000000000E+00 0. -1.
        -14    1    4    4    0    0 -0.34447278929E+02  0.84715297804E+01  0.80556434589E+01  0.36376850248E+02  0.00000000000E+00 0.  1.
</event>
<event>
12    1  0.8500177E-002  0.2164211E+03  0.7818608E-02  0.1136668E+00
         21   -1    0    0  501  502  0.00000000000E+00  0.00000000000E+00  0.51945248424E+02  0.51945248424E+02  0.00000000000E+00 0.  1.
         21   -1    0    0  502  503 -0.00000000000E+00 -0.00000000000E+00 -0.11999579668E+04  0.11999579668E+04  0.00000000000E+00 0.  1.
         -6    2    1    2    0  503 -0.12744530117E+03 -0.35146326187E+02 -0.88663410519E+03  0.91255548293E+03  0.17076271232E+03 0.  0.
        -24    2    3    3    0    0 -0.46935652730E+02 -0.79957624368E+02 -0.55926881692E+03  0.57243788872E+03  0.79418824365E+02 0.  0.
          6    2    1    2  501    0  0.12744530117E+03  0.35146326187E+02 -0.26137861319E+03  0.33934773229E+03  0.17134916091E+03 0.  0.
         24    2    5    5    0    0  0.73885370979E+02 -0.47326331727E+02 -0.12955862912E+03  0.17482112768E+03  0.77962546034E+02 0.  0.
          5    1    5    5  501    0  0.53559930190E+02  0.82472657914E+02 -0.13181998407E+03  0.16452660461E+03  0.47000000000E+01 0. -1.
        -13    1    6    6    0    0  0.39569677688E+02 -0.58894082468E+02 -0.11634372988E+03  0.13627228561E+03  0.00000000000E+00 0.  1.
         14    1    6    6    0    0  0.34315693291E+02  0.11567750741E+02 -0.13214899242E+02  0.38548842074E+02  0.00000000000E+00 0. -1.
         -5    1    3    3    0  503 -0.80509648439E+02  0.44811298181E+02 -0.32736528827E+03  0.34011759422E+03  0.47000000000E+01 0.  1.
         11    1    4    4    0    0 -0.52878204626E+02 -0.51242919074E+02 -0.22192067480E+03  0.23381772213E+03  0.00000000000E+00 0. -1.
        -12    1    4    4    0    0  0.59425518950E+01 -0.28714705293E+02 -0.33734814212E+03  0.33862016658E+03  0.00000000000E+00 0.  1.
</event>
<event>
12    1  0.8500177E-002  0.1922804E+03  0.7818608E-02  0.1158072E+00
         21   -1    0    0  503  502  0.00000000000E+00  0.00000000000E+00  0.73971585428E+03  0.73971585428E+03  0.00000000000E+00 0. -1.
         21   -1    0    0  501  503 -0.00000000000E+00 -0.00000000000E+00 -0.60825545604E+02  0.60825545604E+02  0.00000000000E+00 0.  1.
          6    2    1    2  501    0  0.71136057201E+02  0.39781679053E+02  0.16160979596E+03  0.25117616451E+03  0.17415171215E+03 0.  0.
         24    2    3    3    0    0 -0.58577828210E+01 -0.88066418901E+01  0.23989133838E+02  0.86099173454E+02  0.82010478392E+02 0.  0.
         -6    2    1    2    0  502 -0.71136057201E+02 -0.39781679053E+02  0.51728051273E+03  0.54936523538E+03  0.16607261177E+03 0.  0.
        -24    2    5    5    0    0 -0.44631421559E+02 -0.74497925600E+02  0.47085503359E+03  0.48545022464E+03  0.80097148760E+02 0.  0.
          5    1    3    3  501    0  0.76993840022E+02  0.48588320943E+02  0.13762066212E+03  0.16507699105E+03  0.47000000000E+01 0. -1.
        -11    1    4    4    0    0  0.21591698336E+02  0.16188963865E+02 -0.16128885867E+02  0.31439226253E+02  0.00000000000E+00 0.  1.
         12    1    4    4    0    0 -0.27449481157E+02 -0.24995605755E+02  0.40118019705E+02  0.54659947200E+02  0.00000000000E+00 0. -1.
         -5    1    5    5    0  502 -0.26504635642E+02  0.34716246548E+02  0.46425479136E+02  0.63915010740E+02  0.47000000000E+01 0.  1.
         13    1    6    6    0    0  0.43537878337E+01 -0.11427037915E+02  0.25505163655E+03  0.25534461022E+03  0.00000000000E+00 0. -1.
        -14    1    6    6    0    0 -0.48985209393E+02 -0.63070887686E+02  0.21580339704E+03  0.23010561442E+03  0.00000000000E+00 0.  1.
</event>
<event>
12    1  0.8500177E-002  0.1751790E+03  0.7818608E-02  0.1173416E+00
         21   -1    0    0  501  502  0.00000000000E+00  0.00000000000E+00  0.55794889486E+02  0.55794889486E+02  0.00000000000E+00 0. -1.
         21   -1    0    0  502  503 -0.00000000000E+00 -0.00000000000E+00 -0.57015655376E+03  0.57015655376E+03  0.00000000000E+00 0. -1.
         -6    2    1    2    0  503 -0.29769248585E+02  0.91129647085E+01 -0.33231311555E+03  0.37565901471E+03  0.17239035436E+03 0.  0.
        -24    2    3    3    0    0  0.25039785950E+02 -0.56312102154E+01 -0.29635355801E+03  0.30830472205E+03  0.81041155486E+02 0.  0.
          6    2    1    2  501    0  0.29769248585E+02 -0.91129647085E+01 -0.18204854872E+03  0.25029242854E+03  0.16892415874E+03 0.  0.
         24    2    5    5    0    0  0.56182713146E+02  0.25338429562E+02 -0.53429260982E+02  0.11446319437E+03  0.80303198356E+02 0.  0.
          5    1    5    5  501    0 -0.26413464561E+02 -0.34451394270E+02 -0.12861928774E+03  0.13582923417E+03  0.47000000000E+01 0. -1.
        -13    1    6    6    0    0 -0.10050870517E+02  0.60886724255E+00 -0.41574556793E+02  0.42776564729E+02  0.00000000000E+00 0.  1.
         14    1    6    6    0    0  0.66233583663E+02  0.24729562319E+02 -0.11854704190E+02  0.71686629637E+02  0.00000000000E+00 0. -1.
         -5    1    3    3    0  503 -0.54809034535E+02  0.14744174924E+02 -0.35959557535E+02  0.67354292654E+02  0.47000000000E+01 0.  1.
         11    1    4    4    0    0 -0.29904681907E+01 -0.34657763180E+02 -0.67661939962E+02  0.76080494005E+02  0.00000000000E+00 0. -1.
        -12    1    4    4    0    0  0.28030254141E+02  0.29026552965E+02 -0.22869161805E+03  0.23222422805E+03  0.00000000000E+00 0.  1.
</event>
<event>
12    1  0.8500177E-002  0.2404836E+03  0.7818608E-02  0.1119698E+00
         21   -1    0    0  503  502  0.00000000000E+00  0.00000000000E+00  0.32560591016E+03  0.32560591016E+03  0.00000000000E+00 0. -1.
         21   -1    0    0  501  503 -0.00000000000E+00 -0.00000000000E+00 -0.17857919153E+03  0.17857919153E+03  0.00000000000E+00 0.  1.
          6    2    1    2  501    0 -0.14148058671E+03 -0.86983517926E+02  0.47245706024E+02  0.24508060455E+03  0.17392371081E+03 0.  0.
         24    2    3    3    0    0 -0.16989833539E+03 -0.89760032050E+02  0.55181922467E+02  0.21507475508E+03  0.79308246632E+02 0.  0.
         -6    2    1    2    0  502  0.14148058671E+03  0.86983517926E+02  0.99781012605E+02  0.25910449714E+03  0.17203488354E+03 0.  0.
        -24    2    5    5    0    0  0.16906762766E+03  0.99486130146E+02  0.95838348249E+02  0.22820150791E+03  0.66404716735E+02 0.  0.
          5    1    3    3  501    0  0.28417748682E+02  0.27765141245E+01 -0.79362164439E+01  0.30005849468E+02  0.47000000000E+01 0. -1.
        -13    1    4    4    0    0 -0.11808255522E+03 -0.64000445187E+02 -0.11518470520E+01  0.13431631912E+03  0.00000000000E+00 0.  1.
         14    1    4    4    0    0 -0.51815780172E+02 -0.25759586863E+02  0.56333769519E+02  0.80758435958E+02  0.00000000000E+00 0. -1.
         -5    1    5    5    0  502 -0.27587040954E+02 -0.12502612220E+02  0.39426643566E+01  0.30902989227E+02  0.47000000000E+01 0.  1.
         13    1    6    6    0    0  0.26669007138E+01  0.14115307693E+00  0.19861511627E+02  0.20040257676E+02  0.00000000000E+00 0. -1.
        -14    1    6    6    0    0  0.16640072695E+03  0.99344977069E+02  0.75976836621E+02  0.20816125024E+03  0.00000000000E+00 0.  1.
</event>
<event>
12    1  0.8500177E-002  0.1931391E+03  0.7818608E-02  0.1156002E+00
         21   -1    0    0  503  502  0.00000000000E+00  0.00000000000E+00  0.18033875529E+03  0.18033875529E+03  0.00000000000E+00 0.  1.
         21   -1    0    0  501  503 -0.00000000000E+00 -0.00000000000E+00 -0.24171406138E+03  0.24171406138E+03  0.00000000000E+00 0.  1.
          6    2    1    2  501    0 -0.34565201789E+02  0.74508629044E+02 -0.11281021015E+03  0.22367132221E+03  0.17480396989E+03 0.  0.
         24    2    3    3    0    0  0.22522611654E+02  0.47762613339E+02 -0.12700412431E+03  0.15887992619E+03  0.79525141208E+02 0.  0.
         -6    2    1    2    0  502  0.34565201789E+02 -0.74508629044E+02  0.51434904063E+02  0.19838149446E+03  0.17309933279E+03 0.  0.
        -24    2    5    5    0    0  0.33296689651E+00  0.39414111642E+01 -0.22945000747E+02  0.84888256980E+02  0.81632698871E+02 0.  0.
          5    1    3    3  501    0 -0.57087813444E+02  0.26746015705E+02  0.14193914163E+02  0.64791396027E+02  0.47000000000E+01 0. -1.
        -13    1    4    4    0    0 -0.12242648144E+02  0.41858946103E+02 -0.11266750908E+03  0.12081399507E+03  0.00000000000E+00 0.  1.
         14    1    4    4    0    0  0.34765259798E+02  0.59036672360E+01 -0.14336615236E+02  0.38065931121E+02  0.00000000000E+00 0. -1.
         -5    1    5    5    0  502  0.34232234893E+02 -0.78450040208E+02  0.74379904810E+02  0.11349323748E+03  0.47000000000E+01 0.  1.
         11    1    6    6    0    0  0.10765213372E+01 -0.29191822626E+02 -0.38459127225E+02  0.48295195138E+02  0.00000000000E+00 0. -1.
        -12    1    6    6    0    0 -0.74355444064E+00  0.33133233790E+02  0.15514126479E+02  0.36593061843E+02  0.00000000000E+00 0.  1.
</event>
<event>
12    1  0.8500177E-002  0.2705763E+03  0.7818608E-02  0.1101006E+00
         21   -1    0    0  501  502  0.00000000000E+00  0.00000000000E+00  0.58382705835E+03  0.58382705835E+03  0.00000000000E+00 0. -1.
         21   -1    0    0  502  503 -0.00000000000E+00 -0.00000000000E+00 -0.16343927831E+03  0.16343927831E+03  0.00000000000E+00 0. -1.
         -6    2    1    2    0  503  0.12205742827E+02 -0.20751230558E+03  0.29396608127E+02  0.27178170908E+03  0.17260011500E+03 0.  0.
        -24    2    3    3    0    0 -0.17781203677E+02 -0.94774950823E+02  0.74946245750E+02  0.14645897529E+03  0.80838290333E+02 0.  0.
          6    2    1    2  501    0 -0.12205742827E+02  0.20751230558E+03  0.39099117192E+03  0.47548462757E+03  0.17320853737E+03 0.  0.
         24    2    5    5    0    0 -0.51937515817E+02  0.18412642509E+03  0.37113373798E+03  0.42506716162E+03  0.79635384427E+02 0.  0.
          5    1    5    5  501    0  0.39731772989E+02  0.23385880482E+02  0.19857433941E+02  0.50417465956E+02  0.47000000000E+01 0. -1.
        -13    1    6    6    0    0 -0.18726710316E+02  0.14395225406E+02  0.12078087454E+02  0.26529085742E+02  0.00000000000E+00 0.  1.
         14    1    6    6    0    0 -0.33210805501E+02  0.16973119969E+03  0.35905565052E+03  0.39853807587E+03  0.00000000000E+00 0. -1.
         -5    1    3    3    0  503  0.29986946505E+02 -0.11273735475E+03 -0.45549637623E+02  0.12532273379E+03  0.47000000000E+01 0.  1.
         11    1    4    4    0    0 -0.24371562303E+02 -0.10230870693E+03  0.44124581576E+02  0.11405272142E+03  0.00000000000E+00 0. -1.
        -12    1    4    4    0    0  0.65903586263E+01  0.75337561075E+01  0.30821664174E+02  0.32406253877E+02  0.00000000000E+00 0.  1.
</event>
<event>
12    1  0.8500177E-002  0.1923810E+03  0.7818608E-02  0.1156404E+00
         21   -1    0    0  503  502  0.00000000000E+00  0.00000000000E+00  0.12221562908E+03  0.12221562908E+03  0.00000000000E+00 0.  1.
         21   -1    0    0  501  503 -0.00000000000E+00 -0.00000000000E+00 -0.35169903906E+03  0.35169903906E+03  0.00000000000E+00 0.  1.
          6    2    1    2  501    0  0.82551665005E+02  0.22771720041E+02 -0.20361830219E+03  0.28012647893E+03  0.17227043443E+03 0.  0.
         24    2    3    3    0    0 -0.20925677289E+02  0.12327245417E+02 -0.14127684874E+03  0.15877906759E+03  0.68277370827E+02 0.  0.
         -6    2    1    2    0  502 -0.82551665005E+02 -0.22771720041E+02 -0.25865107782E+02  0.19378818921E+03  0.17190558411E+03 0.  0.
        -24    2    5    5    0    0  0.76036786810E+01  0.74103842992E+01 -0.40108566126E+02  0.97538973509E+02  0.88274710713E+02 0.  0.
          5    1    3    3  501    0  0.10347734229E+03  0.10444474625E+02 -0.62341453452E+02  0.12134741133E+03  0.47000000000E+01 0. -1.
        -11    1    4    4    0    0  0.23485744514E+02  0.40620816241E+00 -0.28145076017E+02  0.36659112161E+02  0.00000000000E+00 0.  1.
         12    1    4    4    0    0 -0.44411421803E+02  0.11921037254E+02 -0.11313177272E+03  0.12211995543E+03  0.00000000000E+00 0. -1.
         -5    1    5    5    0  502 -0.90155343686E+02 -0.30182104341E+02  0.14243458344E+02  0.96249215702E+02  0.47000000000E+01 0.  1.
         13    1    6    6    0    0  0.14962783088E+02 -0.38931387681E+02 -0.22747513331E+02  0.47507759232E+02  0.00000000000E+00 0. -1.
        -14    1    6    6    0    0 -0.73591044072E+01  0.46341771980E+02 -0.17361052796E+02  0.50031214277E+02  0.00000000000E+00 0.  1.
</event>
<event>
12    1  0.8500177E-002  0.2045263E+03  0.7818608E-02  0.1146099E+00
         21   -1    0    0  501  502  0.00000000000E+00  0.00000000000E+00  0.58427290879E+02  0.58427290879E+02  0.00000000000E+00 0.  1.
         21   -1    0    0  502  503 -0.00000000000E+00 -0.00000000000E+00 -0.18971145533E+04  0.18971145533E+04  0.00000000000E+00 0.  1.
         -6    2    1    2    0  503  0.65965577484E+02 -0.86684813073E+02 -0.16920631036E+04  0.17043792315E+04  0.17310489296E+03 0.  0.
        -24    2    3    3    0    0  0.98768657568E+02 -0.36914037117E+02 -0.88123360801E+03  0.89134803092E+03  0.82527246864E+02 0.  0.
          6    2    1    2  501    0 -0.65965577484E+02  0.86684813073E+02 -0.14662415880E+03  0.25116261266E+03  0.17238996439E+03 0.  0.
         24    2    5    5    0    0 -0.92900607412E+02  0.10756373317E+03 -0.95047548525E+02  0.18916533958E+03  0.80925951756E+02 0.  0.
          5    1    5    5  501    0  0.26935029928E+02 -0.20878920097E+02 -0.51576610272E+02  0.61997273075E+02  0.47000000000E+01 0. -1.
        -13    1    6    6    0    0 -0.94310871045E+02  0.60639083512E+02 -0.86115781101E+02  0.14137739070E+03  0.00000000000E+00 0.  1.
         14    1    6    6    0    0  0.14102636334E+01  0.46924649658E+02 -0.89317674239E+01  0.47787948882E+02  0.00000000000E+00 0. -1.
         -5    1    3    3    0  503 -0.32803080084E+02 -0.49770775956E+02 -0.81082949563E+03  0.81303120062E+03  0.47000000000E+01 0.  1.
         11    1    4    4    0    0  0.95808982325E+02 -0.33792941263E+02 -0.88120968871E+03  0.88704669520E+03  0.00000000000E+00 0. -1.
        -12    1    4    4    0    0  0.29596752429E+01 -0.31210958540E+01 -0.23919300133E-01  0.43013357235E+01  0.00000000000E+00 0.  1.
</event>
<event>
12    1  0.8500177E-002  0.1862773E+03  0.7818608E-02  0.1161989E+00
         21   -1    0    0  503  502  0.00000000000E+00  0.00000000000E+00  0.79465956469E+02  0.79465956469E+02  0.00000000000E+00 0. -1.
         21   -1    0    0  501  503 -0.00000000000E+00 -0.00000000000E+00 -0.50942404048E+03  0.50942404048E+03  0.00000000000E+00 0. -1.
          6    2    1    2  501    0 -0.54108765167E+02  0.46388459190E+02 -0.32696886864E+03  0.37603791416E+03  0.17151158623E+03 0.  0.
         24    2    3    3    0    0 -0.21813884841E+01  0.74864612527E+02 -0.25329977839E+03  0.28139876466E+03  0.97031017511E+02 0.  0.
         -6    2    1    2    0  502  0.54108765167E+02 -0.46388459190E+02 -0.10298921536E+03  0.21285208279E+03  0.17210340802E+03 0.  0.
        -24    2    5    5    0    0 -0.35339925067E+02 -0.43711519942E+01 -0.50738653268E+02  0.10096493639E+03  0.79696236874E+02 0.  0.
          5    1    3    3  501    0 -0.51927376683E+02 -0.28476153337E+02 -0.73669090258E+02  0.94639149497E+02  0.47000000000E+01 0. -1.
        -13    1    4    4    0    0  0.30461663755E+02  0.67038964940E+02 -0.98386808094E+02  0.12289060089E+03  0.00000000000E+00 0.  1.
         14    1    4    4    0    0 -0.32643052239E+02  0.78256475865E+01 -0.15491297029E+03  0.15850816378E+03  0.00000000000E+00 0. -1.
         -5    1    5    5    0  502  0.89448690234E+02 -0.42017307196E+02 -0.52250562096E+02  0.11188714639E+03  0.47000000000E+01 0.  1.
         11    1    6    6    0    0  0.47021238764E+01  0.23287397130E+02  0.76460594827E+01  0.24957465009E+02  0.00000000000E+00 0. -1.
        -12    1    6    6    0    0 -0.40042048943E+02 -0.27658549124E+02 -0.58384712750E+02  0.76007471384E+02  0.00000000000E+00 0.  1.
</event>
<event>
12    1  0.8500177E-002  0.1857157E+03  0.7818608E-02  0.1162874E+00
         21   -1    0    0  503  502  0.00000000000E+00  0.00000000000E+00  0.26502820640E+03  0.26502820640E+03  0.00000000000E+00 0.  1.
         21   -1    0    0  501  503 -0.00000000000E+00 -0.00000000000E+00 -0.35402506900E+03  0.35402506900E+03  0.00000000000E+00 0.  1.
          6    2    1    2  501    0 -0.33159157428E+02 -0.58144432880E+02 -0.29154150569E+03  0.34566857326E+03  0.17323396956E+03 0.  0.
         24    2    3    3    0    0 -0.50880100532E+02 -0.10149652113E+03 -0.23369758700E+03  0.27109348152E+03  0.77374318212E+02 0.  0.
         -6    2    1    2    0  502  0.33159157428E+02  0.58144432880E+02  0.20254464310E+03  0.27338470214E+03  0.17098116305E+03 0.  0.
        -24    2    5    5    0    0  0.45923959217E+02  0.74715981505E+02  0.67588392689E+02  0.13673611666E+03  0.80231457986E+02 0.  0.
          5    1    3    3  501    0  0.17720943104E+02  0.43352088252E+02 -0.57843918687E+02  0.74575091749E+02  0.47000000000E+01 0. -1.
        -13    1    4    4    0    0  0.60888555053E+01 -0.52250748380E+02 -0.14768915396E+03  0.15677787174E+03  0.00000000000E+00 0.  1.
         14    1    4    4    0    0 -0.56968956038E+02 -0.49245772752E+02 -0.86008433037E+02  0.11431560978E+03  0.00000000000E+00 0. -1.
         -5    1    5    5    0  502 -0.12764801789E+02 -0.16571548624E+02  0.13495625041E+03  0.13664858548E+03  0.47000000000E+01 0.  1.
         11    1    6    6    0    0  0.13361699520E+02  0.82219744404E+02  0.35971331089E+02  0.90733445015E+02  0.00000000000E+00 0. -1.
        -12    1    6    6    0    0  0.32562259698E+02 -0.75037628995E+01  0.31617061600E+02  0.46002671645E+02  0.00000000000E+00 0.  1.
</event>
<event>
12    1  0.8500177E-002  0.1852000E+03  0.7818608E-02  0.1165183E+00
         21   -1    0    0  501  502  0.00000000000E+00  0.00000000000E+00  0.84873457864E+02  0.84873457864E+02  0.00000000000E+00 0. -1.
         21   -1    0    0  502  503 -0.00000000000E+00 -0.00000000000E+00 -0.43054626607E+03  0.43054626607E+03  0.00000000000E+00 0. -1.
         -6    2    1    2    0  503 -0.35200010905E+02 -0.10158351210E+02 -0.25406004460E+03  0.30879946294E+03  0.17166353479E+03 0.  0.
        -24    2    3    3    0    0  0.58169283397E+01 -0.56484134698E+02 -0.21058395665E+03  0.23303187260E+03  0.82060689269E+02 0.  0.
          6    2    1    2  501    0  0.35200010905E+02  0.10158351210E+02 -0.91612763606E+02  0.20662026100E+03  0.18154008079E+03 0.  0.
         24    2    5    5    0    0  0.49010965320E+02  0.65423219529E+02 -0.10413343958E+03  0.14810696799E+03  0.66405032589E+02 0.  0.
          5    1    5    5  501    0 -0.13810954415E+02 -0.55264868319E+02  0.12520675976E+02  0.58513293012E+02  0.47000000000E+01 0. -1.
        -13    1    6    6    0    0  0.25684106554E+02  0.77627941801E+01 -0.74546845770E+02  0.79228571344E+02  0.00000000000E+00 0.  1.
         14    1    6    6    0    0  0.23326858765E+02  0.57660425349E+02 -0.29586593813E+02  0.68878396647E+02  0.00000000000E+00 0. -1.
         -5    1    3    3    0  503 -0.41016939245E+02  0.46325783489E+02 -0.43476087954E+02  0.75767590331E+02  0.47000000000E+01 0.  1.
         11    1    4    4    0    0 -0.33197215796E+02 -0.39075600850E+02 -0.15277697669E+03  0.16115136464E+03  0.00000000000E+00 0. -1.
        -12    1    4    4    0    0  0.39014144136E+02 -0.17408533848E+02 -0.57806979963E+02  0.71880507969E+02  0.00000000000E+00 0.  1.
</event>
<event>
12    1  0.8500177E-002  0.3238770E+03  0.7818608E-02  0.1073930E+00
         21   -1    0    0  501  502  0.00000000000E+00  0.00000000000E+00  0.27858567618E+03  0.27858567618E+03  0.00000000000E+00 0. -1.
         21   -1    0    0  502  503 -0.00000000000E+00 -0.00000000000E+00 -0.38853820951E+03  0.38853820951E+03  0.00000000000E+00 0.  1.
         -6    2    1    2    0  503 -0.18118759528E+03 -0.20628079032E+03  0.48931402207E+01  0.32391398877E+03  0.17180110639E+03 0.  0.
        -24    2    3    3    0    0 -0.20760967219E+02 -0.82028997834E+02  0.30541113962E+02  0.11932875106E+03  0.78401638650E+02 0.  0.
          6    2    1    2  501    0  0.18118759528E+03  0.20628079032E+03 -0.11484567355E+03  0.34320989692E+03  0.17094676210E+03 0.  0.
         24    2    5    5    0    0  0.18233819399E+03  0.15648414134E+03 -0.13420235257E+03  0.28956475595E+03  0.90016515023E+02 0.  0.
          5    1    5    5  501    0 -0.11505987054E+01  0.49796648988E+02  0.19356679017E+02  0.53645140976E+02  0.47000000000E+01 0. -1.
        -11    1    6    6    0    0  0.18366708818E+03  0.16161340692E+03 -0.11627986757E+03  0.27087543296E+03  0.00000000000E+00 0.  1.
         12    1    6    6    0    0 -0.13288941958E+01 -0.51292655889E+01 -0.17922484998E+02  0.18689322988E+02  0.00000000000E+00 0. -1.
         -5    1    3    3    0  503 -0.16042662806E+03 -0.12425179249E+03 -0.25647973742E+02  0.20458523770E+03  0.47000000000E+01 0.  1.
         11    1    4    4    0    0 -0.98714738129E+01 -0.95923456158E+02  0.32036049597E+02  0.10161232165E+03  0.00000000000E+00 0. -1.
        -12    1    4    4    0    0 -0.10889493406E+02  0.13894458324E+02 -0.14949356346E+01  0.17716429418E+02  0.00000000000E+00 0.  1.
</event>
<event>
12    1  0.8500177E-002  0.2181668E+03  0.7818608E-02  0.1135333E+00
         21   -1    0    0  501  502  0.00000000000E+00  0.00000000000E+00  0.40608954748E+03  0.40608954748E+03  0.00000000000E+00 0. -1.
         21   -1    0    0  502  503 -0.00000000000E+00 -0.00000000000E+00 -0.17128095482E+03  0.17128095482E+03  0.00000000000E+00 0.  1.
         -6    2    1    2    0  503  0.80136841775E+02  0.10636886366E+03 -0.45194945380E+02  0.22240748028E+03  0.17229699832E+03 0.  0.
        -24    2    3    3    0    0  0.38817409569E+02  0.45621066561E+02  0.43029586318E+02  0.10750209171E+03  0.78211772918E+02 0.  0.
          6    2    1    2  501    0 -0.80136841775E+02 -0.10636886366E+03  0.28000353804E+03  0.35496302202E+03  0.17280195925E+03 0.  0.
         24    2    5    5    0    0  0.18917302219E+02 -0.16192547535E+02  0.96504921734E+02  0.12772454901E+03  0.79876764962E+02 0.  0.
          5    1    5    5  501    0 -0.99054143995E+02 -0.90176316122E+02  0.18349861630E+03  0.22723847301E+03  0.47000000000E+01 0. -1.
        -13    1    6    6    0    0 -0.17686217476E+02  0.22667520158E+02  0.22678417231E+02  0.36618702418E+02  0.00000000000E+00 0.  1.
         14    1    6    6    0    0  0.36603519695E+02 -0.38860067693E+02  0.73826504503E+02  0.91105846587E+02  0.00000000000E+00 0. -1.
         -5    1    3    3    0  503  0.41319432207E+02  0.60747797096E+02 -0.88224531698E+02  0.11490538857E+03  0.47000000000E+01 0.  1.
         11    1    4    4    0    0 -0.14370204013E+02  0.42174610529E+02  0.13431129276E+02  0.46535962118E+02  0.00000000000E+00 0. -1.
        -12    1    4    4    0    0  0.53187613582E+02  0.34464560317E+01  0.29598457042E+02  0.60966129589E+02  0.00000000000E+00 0.  1.
</event>
<event>
12    1  0.8500177E-002  0.2858502E+03  0.7818608E-02  0.1092569E+00
         21   -1    0    0  503  502  0.00000000000E+00  0.00000000000E+00  0.61299688223E+03  0.61299688223E+03  0.00000000000E+00 0.  1.
         21   -1    0    0  501  503 -0.00000000000E+00 -0.00000000000E+00 -0.13529084015E+03  0.13529084015E+03  0.00000000000E+00 0. -1.
          6    2    1    2  501    0  0.17245643753E+02 -0.22784427785E+03  0.28546442012E+03  0.40380670749E+03  0.17134612538E+03 0.  0.
         24    2    3    3    0    0 -0.53704555290E+02 -0.12635644392E+03  0.18957671854E+03  0.24712150559E+03  0.79243776626E+02 0.  0.
         -6    2    1    2    0  502 -0.17245643753E+02  0.22784427785E+03  0.19224162196E+03  0.34448101489E+03  0.17175535284E+03 0.  0.
        -24    2    5    5    0    0 -0.70822919502E+02  0.20146951305E+03  0.15847440363E+03  0.27571716008E+03  0.72800859476E+02 0.  0.
          5    1    3    3  501    0  0.70950199042E+02 -0.10148783393E+03  0.95887701580E+02  0.15668520190E+03  0.47000000000E+01 0. -1.
        -13    1    4    4    0    0 -0.55103035763E+02 -0.13405317362E+03  0.15722350079E+03  0.21383598179E+03  0.00000000000E+00 0.  1.
         14    1    4    4    0    0  0.13984804735E+01  0.76967297015E+01  0.32353217751E+02  0.33285523799E+02  0.00000000000E+00 0. -1.
         -5    1    5    5    0  502  0.53577275749E+02  0.26374764804E+02  0.33767218330E+02  0.68763854814E+02  0.47000000000E+01 0.  1.
         13    1    6    6    0    0 -0.71633448472E+02  0.17371040982E+03  0.16151846967E+03  0.24777988915E+03  0.00000000000E+00 0. -1.
        -14    1    6    6    0    0  0.81052897069E+00  0.27759103221E+02 -0.30440660389E+01  0.27937270928E+02  0.00000000000E+00 0.  1.
</event>
<event>
12    1  0.8500177E-002  0.2323994E+03  0.7818608E-02  0.1125088E+00
         21   -1    0    0  503  502  0.00000000000E+00  0.00000000000E+00  0.13536579803E+03  0.13536579803E+03  0.00000000000E+00 0.  1.
         21   -1    0    0  501  503 -0.00000000000E+00 -0.00000000000E+00 -0.18517003006E+04  0.18517003006E+04  0.00000000000E+00 0.  1.
          6    2    1    2  501    0  0.59210919976E+02 -0.14463387638E+03 -0.17382635027E+04  0.17536343706E+04  0.17102224996E+03 0.  0.
         24    2    3    3    0    0  0.30076529409E+02 -0.33318608680E+02 -0.12183570856E+04  0.12211264608E+04  0.68855776447E+02 0.  0.
         -6    2    1    2    0  502 -0.59210919976E+02  0.14463387638E+03  0.21929000136E+02  0.23343172794E+03  0.17200174220E+03 0.  0.
        -24    2    5    5    0    0 -0.72129669792E+02  0.12708924591E+03 -0.36449392177E+02  0.17094305021E+03  0.80861625846E+02 0.  0.
          5    1    3    3  501    0  0.29134390567E+02 -0.11131526770E+03 -0.51990641707E+03  0.53250790985E+03  0.47000000000E+01 0. -1.
        -11    1    4    4    0    0 -0.11497014146E+02 -0.34533396629E+02 -0.76507024273E+03  0.76593551499E+03  0.00000000000E+00 0.  1.
         12    1    4    4    0    0  0.41573543554E+02  0.12147879490E+01 -0.45328684286E+03  0.45519094581E+03  0.00000000000E+00 0. -1.
         -5    1    5    5    0  502  0.12918749816E+02  0.17544630467E+02  0.58378392312E+02  0.62488677726E+02  0.47000000000E+01 0.  1.
         11    1    6    6    0    0 -0.95012377642E+01 -0.37249301314E+01 -0.23151932797E+02  0.25301395530E+02  0.00000000000E+00 0. -1.
        -12    1    6    6    0    0 -0.62628432028E+02  0.13081417604E+03 -0.13297459380E+02  0.14564165468E+03  0.00000000000E+00 0.  1.
</event>
<event>
12    1  0.8500177E-002  0.1964832E+03  0.7818608E-02  0.1154326E+00
         21   -1    0    0  501  502  0.00000000000E+00  0.00000000000E+00  0.58966030802E+03  0.58966030802E+03  0.00000000000E+00 0. -1.
         21   -1    0    0  502  503 -0.00000000000E+00 -0.00000000000E+00 -0.84947779076E+02  0.84947779076E+02  0.00000000000E+00 0. -1.
         -6    2    1    2    0  503 -0.18844294313E+02 -0.80162461995E+02  0.84793015380E+02  0.21399879969E+03  0.17839423497E+03 0.  0.
        -24    2    3    3    0    0  0.21048325474E+01 -0.11852865391E+03  0.34640625452E+02  0.14730410115E+03  0.80281088474E+02 0.  0.
          6    2    1    2  501    0  0.18844294313E+02  0.80162461995E+02  0.41991951357E+03  0.46060928741E+03  0.17043294879E+03 0.  0.
         24    2    5    5    0    0  0.84086988112E+01  0.39934457131E+02  0.87804888515E+02  0.12587146731E+03  0.80426741539E+02 0.  0.
          5    1    5    5  501    0  0.10435595502E+02  0.40228004864E+02  0.33211462505E+03  0.33473782010E+03  0.47000000000E+01 0. -1.
        -11    1    6    6    0    0 -0.30178292620E+02 -0.42240513384E+01  0.39549702808E+02  0.49927456849E+02  0.00000000000E+00 0.  1.
         12    1    6    6    0    0  0.38586991431E+02  0.44158508469E+02  0.48255185707E+02  0.75944010465E+02  0.00000000000E+00 0. -1.
         -5    1    3    3    0  503 -0.20949126861E+02  0.38366191912E+02  0.50152389928E+02  0.66694698541E+02  0.47000000000E+01 0.  1.
         11    1    4    4    0    0  0.13438133843E+02 -0.15385382477E+02 -0.21223849552E+02  0.29457515594E+02  0.00000000000E+00 0. -1.
        -12    1    4    4    0    0 -0.11333301295E+02 -0.10314327143E+03  0.55864475004E+02  0.11784658555E+03  0.00000000000E+00 0.  1.
</event>
<event>
12    1  0.8500177E-002  0.1901312E+03  0.7818608E-02  0.1159991E+00
         21   -1    0    0  501  502  0.00000000000E+00  0.00000000000E+00  0.21103488906E+02  0.21103488906E+02  0.00000000000E+00 0.  1.
         21   -1    0    0  502  503 -0.00000000000E+00 -0.00000000000E+00 -0.27604738803E+04  0.27604738803E+04  0.00000000000E+00 0.  1.
         -6    2    1    2    0  503  0.71561582590E+02  0.21217573420E+02 -0.22678052801E+04  0.22757615568E+04  0.17486746326E+03 0.  0.
        -24    2    3    3    0    0  0.56837056234E+02  0.59893054806E+02 -0.20886848592E+04  0.20918626180E+04  0.80418545595E+02 0.  0.
          6    2    1    2  501    0 -0.71561582590E+02 -0.21217573420E+02 -0.47156511129E+03  0.50581581234E+03  0.16704710804E+03 0.  0.
         24    2    5    5    0    0 -0.17028503415E+02 -0.54195361554E+02 -0.38762310448E+03  0.40031822118E+03  0.82315854706E+02 0.  0.
          5    1    5    5  501    0 -0.54533079175E+02  0.32977788134E+02 -0.83942006805E+02  0.10549759116E+03  0.47000000000E+01 0. -1.
        -11    1    6    6    0    0 -0.16131472242E+02 -0.65530121148E+02 -0.17763745600E+03  0.19002496401E+03  0.00000000000E+00 0.  1.
         12    1    6    6    0    0 -0.89703117318E+00  0.11334759594E+02 -0.20998564849E+03  0.21029325717E+03  0.00000000000E+00 0. -1.
         -5    1    3    3    0  503  0.14724526356E+02 -0.38675481386E+02 -0.17912042081E+03  0.18389893879E+03  0.47000000000E+01 0.  1.
         11    1    4    4    0    0 -0.49022080850E+01 -0.11586043751E+02 -0.62865967381E+03  0.62878553858E+03  0.00000000000E+00 0. -1.
        -12    1    4    4    0    0  0.61739264319E+02  0.71479098558E+02 -0.14600251854E+04  0.14630770794E+04  0.00000000000E+00 0.  1.
</event>
<event>
12    1  0.8500177E-002  0.2998685E+03  0.7818608E-02  0.1085401E+00
         21   -1    0    0  503  502  0.00000000000E+00  0.00000000000E+00  0.16396577682E+04  0.16396577682E+04  0.00000000000E+00 0. -1.
         21   -1    0    0  501  503 -0.00000000000E+00 -0.00000000000E+00 -0.55512669899E+02  0.55512669899E+02  0.00000000000E+00 0.  1.
          6    2    1    2  501    0  0.11731970853E+03  0.21594173654E+03  0.69070807072E+03  0.75299320734E+03  0.17183242928E+03 0.  0.
         24    2    3    3    0    0  0.83622795797E+02  0.21550690755E+03  0.67104200034E+03  0.71369288510E+03  0.74994458739E+02 0.  0.
         -6    2    1    2    0  502 -0.11731970853E+03 -0.21594173654E+03  0.89343702761E+03  0.94217723079E+03  0.17050942591E+03 0.  0.
        -24    2    5    5    0    0 -0.50385366319E+01 -0.51235496889E+02  0.37187438259E+03  0.38380021691E+03  0.79759557955E+02 0.  0.
          5    1    3    3  501    0  0.33696912731E+02  0.43482898287E+00  0.19666070379E+02  0.39300322238E+02  0.47000000000E+01 0. -1.
        -11    1    4    4    0    0 -0.12594360024E+00  0.99352389445E+02  0.29697671328E+03  0.31315504368E+03  0.00000000000E+00 0.  1.
         12    1    4    4    0    0  0.83748739398E+02  0.11615451811E+03  0.37406528705E+03  0.40053784142E+03  0.00000000000E+00 0. -1.
         -5    1    5    5    0  502 -0.11228117190E+03 -0.16470623965E+03  0.52156264502E+03  0.55837701387E+03  0.47000000000E+01 0.  1.
         11    1    6    6    0    0 -0.31358349981E+02 -0.53565884198E+02  0.31540926027E+03  0.32145863113E+03  0.00000000000E+00 0. -1.
        -12    1    6    6    0    0  0.26319813350E+02  0.23303873084E+01  0.56465122318E+02  0.62341585784E+02  0.00000000000E+00 0.  1.
</event>
<event>
12    1  0.8500177E-002  0.2742500E+03  0.7818608E-02  0.1098991E+00
         21   -1    0    0  501  502  0.00000000000E+00  0.00000000000E+00  0.50522030441E+03  0.50522030441E+03  0.00000000000E+00 0. -1.
         21   -1    0    0  502  503 -0.00000000000E+00 -0.00000000000E+00 -0.32825560112E+03  0.32825560112E+03  0.00000000000E+00 0.  1.
         -6    2    1    2    0  503 -0.15233094090E+02  0.21225859852E+03 -0.21992192090E+03  0.35153764055E+03  0.17299509135E+03 0.  0.
        -24    2    3    3    0    0 -0.35208033117E+02  0.21294481061E+03 -0.14082933180E+03  0.26982352471E+03  0.79917055955E+02 0.  0.
          6    2    1    2  501    0  0.15233094090E+02 -0.21225859852E+03  0.39688662419E+03  0.48193826497E+03  0.17163839600E+03 0.  0.
         24    2    5    5    0    0  0.49812531820E+00 -0.24356330711E+02  0.98217037205E+02  0.12873861358E+03  0.79583699682E+02 0.  0.
          5    1    5    5  501    0  0.14734968771E+02 -0.18790226781E+03  0.29866958699E+03  0.35319965139E+03  0.47000000000E+01 0. -1.
        -13    1    6    6    0    0  0.18406022914E+02 -0.24000512670E+02  0.10523961595E+03  0.10949969430E+03  0.00000000000E+00 0.  1.
         14    1    6    6    0    0 -0.17907897596E+02 -0.35581804040E+00 -0.70225787422E+01  0.19238919278E+02  0.00000000000E+00 0. -1.
         -5    1    3    3    0  503  0.19974939027E+02 -0.68621209147E+00 -0.79092589104E+02  0.81714115839E+02  0.47000000000E+01 0.  1.
         13    1    4    4    0    0 -0.14544017396E+02  0.20356442595E+02  0.72081619979E+01  0.26035952000E+02  0.00000000000E+00 0. -1.
        -14    1    4    4    0    0 -0.20664015721E+02  0.19258836801E+03 -0.14803749380E+03  0.24378757271E+03  0.00000000000E+00 0.  1.
</event>
<event>
12    1  0.8500177E-002  0.2608767E+03  0.7818608E-02  0.1106632E+00
         21   -1    0    0  501  502  0.00000000000E+00  0.00000000000E+00  0.53074967094E+03  0.53074967094E+03  0.00000000000E+00 0.  1.
         21   -1    0    0  502  503 -0.00000000000E+00 -0.00000000000E+00 -0.18792846767E+03  0.18792846767E+03  0.00000000000E+00 0. -1.
         -6    2    1    2    0  503  0.10234132042E+03  0.16739694658E+03 -0.31184080035E+02  0.26273386310E+03  0.17193356967E+03 0.  0.
        -24    2    3    3    0    0  0.10841925821E+03  0.73562238093E+02 -0.59872212682E+02  0.16431134128E+03  0.79040474435E+02 0.  0.
          6    2    1    2  501    0 -0.10234132042E+03 -0.16739694658E+03  0.37400528331E+03  0.45594427551E+03  0.17178401218E+03 0.  0.
         24    2    5    5    0    0 -0.11074604305E+03 -0.91603218945E+02  0.32753541820E+03  0.36651907283E+03  0.80005904788E+02 0.  0.
          5    1    5    5  501    0  0.84047226325E+01 -0.75793727637E+02  0.46469865111E+02  0.89425202684E+02  0.47000000000E+01 0. -1.
        -11    1    6    6    0    0 -0.11705991387E+02 -0.34380949201E+02  0.15720954839E+03  0.16135030836E+03  0.00000000000E+00 0.  1.
         12    1    6    6    0    0 -0.99040051667E+02 -0.57222269745E+02  0.17032586980E+03  0.20516876447E+03  0.00000000000E+00 0. -1.
         -5    1    3    3    0  503 -0.60779377886E+01  0.93834708489E+02  0.28688132647E+02  0.98422521812E+02  0.47000000000E+01 0.  1.
         13    1    4    4    0    0  0.21687777337E+02  0.50775053360E+02 -0.49291472581E+02  0.74014289152E+02  0.00000000000E+00 0. -1.
        -14    1    4    4    0    0  0.86731480874E+02  0.22787184733E+02 -0.10580740101E+02  0.90297052132E+02  0.00000000000E+00 0.  1.
</event>
<event>
12    1  0.8500177E-002  0.1886249E+03  0.7818608E-02  0.1159807E+00
         21   -1    0    0  501  502  0.00000000000E+00  0.00000000000E+00  0.84722207020E+02  0.84722207020E+02  0.00000000000E+00 0. -1.
         21   -1    0    0  502  503 -0.00000000000E+00 -0.00000000000E+00 -0.65309238709E+03  0.65309238709E+03  0.00000000000E+00 0. -1.
         -6    2    1    2    0  503 -0.64581653814E+02  0.42761977700E+02 -0.50527042461E+03  0.53933066009E+03  0.17198831989E+03 0.  0.
        -24    2    3    3    0    0 -0.89359274096E+02 -0.16700788974E+02 -0.36719869587E+03  0.38689823780E+03  0.81187240038E+02 0.  0.
          6    2    1    2  501    0  0.64581653814E+02 -0.42761977700E+02 -0.63099755460E+02  0.19848393402E+03  0.17150777294E+03 0.  0.
         24    2    5    5    0    0  0.91525974730E+02 -0.63133775685E+02 -0.12774262330E+02  0.13769123840E+03  0.80204848171E+02 0.  0.
          5    1    5    5  501    0 -0.26944320916E+02  0.20371797986E+02 -0.50325493130E+02  0.60792695627E+02  0.47000000000E+01 0. -1.
        -13    1    6    6    0    0  0.15881223262E+02 -0.59130261174E+02 -0.28360430825E+01  0.61291469057E+02  0.00000000000E+00 0.  1.
         14    1    6    6    0    0  0.75644751468E+02 -0.40035145113E+01 -0.99382192475E+01  0.76399769338E+02  0.00000000000E+00 0. -1.
         -5    1    3    3    0  503  0.24777620282E+02  0.59462766674E+02 -0.13807172874E+03  0.15243242229E+03  0.47000000000E+01 0.  1.
         13    1    4    4    0    0  0.62934604657E+01 -0.12915184216E+02 -0.13469280381E+03  0.13545686039E+03  0.00000000000E+00 0. -1.
        -14    1    4    4    0    0 -0.95652734562E+02 -0.37856047579E+01 -0.23250589207E+03  0.25144137742E+03  0.00000000000E+00 0.  1.
</event>
<event>
12    1  0.8500177E-002  0.2335154E+03  0.7818608E-02  0.1124274E+00
         21   -1    0    0  501  502  0.00000000000E+00  0.00000000000E+00  0.14360268016E+04  0.14360268016E+04  0.00000000000E+00 0.  1.
         21   -1    0    0  502  503 -0.00000000000E+00 -0.00000000000E+00 -0.45533532887E+02  0.45533532887E+02  0.00000000000E+00 0.  1.
         -6    2    1    2    0  503  0.99556133530E+02 -0.12210755024E+03  0.39240854393E+03  0.45663321858E+03  0.17235937286E+03 0.  0.
        -24    2    3    3    0    0  0.47366342021E+00 -0.52695361878E+02  0.93039951700E+02  0.13371057801E+03  0.80281134395E+02 0.  0.
          6    2    1    2  501    0 -0.99556133530E+02  0.12210755024E+03  0.99808472479E+03  0.10249271159E+04  0.17169973071E+03 0.  0.
         24    2    5    5    0    0 -0.65057489626E+02  0.15362477763E+03  0.76224376187E+03  0.78445561689E+03  0.80758981519E+02 0.  0.
          5    1    5    5  501    0 -0.34498643905E+02 -0.31517227387E+02  0.23584096291E+03  0.24047149902E+03  0.47000000000E+01 0. -1.
        -13    1    6    6    0    0 -0.45118458571E+01  0.45947125708E+02  0.92129566794E+02  0.10305024110E+03  0.00000000000E+00 0.  1.
         14    1    6    6    0    0 -0.60545643768E+02  0.10767765192E+03  0.67011419508E+03  0.68140537579E+03  0.00000000000E+00 0. -1.
         -5    1    3    3    0  503  0.99082470110E+02 -0.69412188365E+02  0.29936859223E+03  0.32292264056E+03  0.47000000000E+01 0.  1.
         13    1    4    4    0    0  0.71622958833E+01  0.17026807930E+02  0.16194284665E+01  0.18542740336E+02  0.00000000000E+00 0. -1.
        -14    1    4    4    0    0 -0.66886324631E+01 -0.69722169808E+02  0.91420523233E+02  0.11516783768E+03  0.00000000000E+00 0.  1.
</event>
<event>
12    1  0.8500177E-002  0.1772111E+03  0.7818608E-02  0.1171217E+00
         21   -1    0    0  501  502  0.00000000000E+00  0.00000000000E+00  0.63279237060E+03  0.63279237060E+03  0.00000000000E+00 0.  1.
         21   -1    0    0  502  503 -0.00000000000E+00 -0.00000000000E+00 -0.56343558232E+02  0.56343558232E+02  0.00000000000E+00 0.  1.
         -6    2    1    2    0  503 -0.28187888192E+01  0.22514022113E+02  0.41578351719E+03  0.45197311179E+03  0.17575247893E+03 0.  0.
        -24    2    3    3    0    0  0.84601784866E+01  0.22059599152E+02  0.78144473007E+02  0.11411273270E+03  0.79730524688E+02 0.  0.
          6    2    1    2  501    0  0.28187888192E+01 -0.22514022113E+02  0.16066529517E+03  0.23716281704E+03  0.17296831487E+03 0.  0.
         24    2    5    5    0    0 -0.52299069858E+02  0.33505198049E+02  0.75313617135E+02  0.12104593490E+03  0.71569451768E+02 0.  0.
          5    1    5    5  501    0  0.55117858677E+02 -0.56019220162E+02  0.85351678039E+02  0.11611688213E+03  0.47000000000E+01 0. -1.
        -13    1    6    6    0    0 -0.18698570861E+02 -0.64211959382E+01 -0.91321558341E+01  0.21777616483E+02  0.00000000000E+00 0.  1.
         14    1    6    6    0    0 -0.33600498997E+02  0.39926393987E+02  0.84445772969E+02  0.99268318420E+02  0.00000000000E+00 0. -1.
         -5    1    3    3    0  503 -0.11278967306E+02  0.45442296145E+00  0.33763904419E+03  0.33786037910E+03  0.47000000000E+01 0.  1.
         13    1    4    4    0    0 -0.14502188920E+02 -0.23256854186E+02  0.10130689122E+02  0.29220294526E+02  0.00000000000E+00 0. -1.
        -14    1    4    4    0    0  0.22962367407E+02  0.45316453338E+02  0.68013783885E+02  0.84892438170E+02  0.00000000000E+00 0.  1.
</event>
<event>
12    1  0.8500177E-002  0.2150964E+03  0.7818608E-02  0.1138690E+00
         21   -1    0    0  503  502  0.00000000000E+00  0.00000000000E+00  0.41800490208E+02  0.41800490208E+02  0.00000000000E+00 0.  1.
         21   -1    0    0  501  503 -0.00000000000E+00 -0.00000000000E+00 -0.12099933681E+04  0.12099933681E+04  0.00000000000E+00 0. -1.
          6    2    1    2  501    0 -0.78382329213E+02  0.88855377952E+02 -0.79770450297E+03  0.82619547006E+03  0.17951995146E+03 0.  0.
         24    2    3    3    0    0 -0.68539881382E+02 -0.14663551282E+02 -0.31505385031E+03  0.33244777639E+03  0.79686011065E+02 0.  0.
         -6    2    1    2    0  502  0.78382329213E+02 -0.88855377952E+02 -0.37048837494E+03  0.42559838826E+03  0.17272314379E+03 0.  0.
        -24    2    5    5    0    0 -0.38119391347E+01 -0.79156949706E+02 -0.28281057124E+03  0.30493586499E+03  0.81998225516E+02 0.  0.
          5    1    3    3  501    0 -0.98424478303E+01  0.10351892923E+03 -0.48265065266E+03  0.49374769367E+03  0.47000000000E+01 0. -1.
        -13    1    4    4    0    0 -0.92032764061E+01 -0.75859429590E+01 -0.15357435210E+00  0.11927716138E+02  0.00000000000E+00 0.  1.
         14    1    4    4    0    0 -0.59336604976E+02 -0.70776083230E+01 -0.31490027595E+03  0.32052006025E+03  0.00000000000E+00 0. -1.
         -5    1    5    5    0  502  0.82194268347E+02 -0.96984282456E+01 -0.87677803700E+02  0.12066252327E+03  0.47000000000E+01 0.  1.
         11    1    6    6    0    0 -0.36442075732E+02 -0.62498728347E+02 -0.14110474755E+03  0.15857069625E+03  0.00000000000E+00 0. -1.
        -12    1    6    6    0    0  0.32630136597E+02 -0.16658221359E+02 -0.14170582369E+03  0.14636516874E+03  0.00000000000E+00 0.  1.
</event>
<event>
12    1  0.8500177E-002  0.3760766E+03  0.7818608E-02  0.1052452E+00
         21   -1    0    0  503  502  0.00000000000E+00  0.00000000000E+00  0.11495219263E+04  0.11495219263E+04  0.00000000000E+00 0.  1.
         21   -1    0    0  501  503 -0.00000000000E+00 -0.00000000000E+00 -0.12554952090E+03  0.12554952090E+03  0.00000000000E+00 0. -1.
          6    2    1    2  501    0  0.31234724638E+03 -0.11934603104E+03  0.41778982572E+03  0.56170555253E+03  0.17076449227E+03 0.  0.
         24    2    3    3    0    0  0.19796552377E+03 -0.15132691122E+03  0.30355564094E+03  0.39684957255E+03  0.57038350463E+02 0.  0.
         -6    2    1    2    0  502 -0.31234724638E+03  0.11934603104E+03  0.60618257965E+03  0.71336589464E+03  0.17213164240E+03 0.  0.
        -24    2    5    5    0    0 -0.32528861832E+03  0.11249403245E+03  0.53935851346E+03  0.64479494733E+03  0.79908231837E+02 0.  0.
          5    1    3    3  501    0  0.11438172261E+03  0.31980880175E+02  0.11423418478E+03  0.16485597998E+03  0.47000000000E+01 0. -1.
        -13    1    4    4    0    0  0.14272277327E+03 -0.75978505046E+02  0.20426814825E+03  0.26051487410E+03  0.00000000000E+00 0.  1.
         14    1    4    4    0    0  0.55242750504E+02 -0.75348406172E+02  0.99287492693E+02  0.13633469845E+03  0.00000000000E+00 0. -1.
         -5    1    5    5    0  502  0.12941371942E+02  0.68519985913E+01  0.66824066194E+02  0.68570947312E+02  0.47000000000E+01 0.  1.
         11    1    6    6    0    0 -0.68546816066E+02  0.50102291615E+02  0.91628197425E+02  0.12491850216E+03  0.00000000000E+00 0. -1.
        -12    1    6    6    0    0 -0.25674180226E+03  0.62391740838E+02  0.44773031603E+03  0.51987644517E+03  0.00000000000E+00 0.  1.
</event>
<event>
12    1  0.8500177E-002  0.2361457E+03  0.7818608E-02  0.1122876E+00
         21   -1    0    0  501  502  0.00000000000E+00  0.00000000000E+00  0.35729304229E+03  0.35729304229E+03  0.00000000000E+00 0. -1.
         21   -1    0    0  502  503 -0.00000000000E+00 -0.00000000000E+00 -0.34160226741E+03  0.34160226741E+03  0.00000000000E+00 0. -1.
         -6    2    1    2    0  503 -0.14339768548E+03 -0.74593529380E+02 -0.25096161242E+03  0.34459615177E+03  0.17215599344E+03 0.  0.
        -24    2    3    3    0    0 -0.28547414183E+02 -0.29715778514E+02 -0.18386457354E+03  0.20413726110E+03  0.78535709193E+02 0.  0.
          6    2    1    2  501    0  0.14339768548E+03  0.74593529380E+02  0.26665238731E+03  0.35429915793E+03  0.16821803360E+03 0.  0.
         24    2    5    5    0    0  0.16268256219E+03  0.28991361060E+02  0.20641080751E+03  0.27618000431E+03  0.79773794382E+02 0.  0.
          5    1    5    5  501    0 -0.19284876710E+02  0.45602168321E+02  0.60241579799E+02  0.78119153617E+02  0.47000000000E+01 0. -1.
        -11    1    6    6    0    0  0.81061198021E+02  0.47920871147E+02  0.75245855164E+02  0.12053740679E+03  0.00000000000E+00 0.  1.
         12    1    6    6    0    0  0.81621364170E+02 -0.18929510088E+02  0.13116495234E+03  0.15564259753E+03  0.00000000000E+00 0. -1.
         -5    1    3    3    0  503 -0.11485027130E+03 -0.44877750866E+02 -0.67097038881E+02  0.14045889066E+03  0.47000000000E+01 0.  1.
         13    1    4    4    0    0 -0.15400538066E+01  0.25014474265E+02 -0.78149884951E+02  0.82070093252E+02  0.00000000000E+00 0. -1.
        -14    1    4    4    0    0 -0.27007360377E+02 -0.54730252780E+02 -0.10571468859E+03  0.12206716785E+03  0.00000000000E+00 0.  1.
</event>
<event>
12    1  0.8500177E-002  0.1819249E+03  0.7818608E-02  0.1166345E+00
         21   -1    0    0  501  502  0.00000000000E+00  0.00000000000E+00  0.40166933147E+03  0.40166933147E+03  0.00000000000E+00 0.  1.
         21   -1    0    0  502  503 -0.00000000000E+00 -0.00000000000E+00 -0.90115769685E+02  0.90115769685E+02  0.00000000000E+00 0.  1.
         -6    2    1    2    0  503  0.46559219493E+02 -0.37872429212E+02  0.23173513820E+03  0.29461471321E+03  0.17173984147E+03 0.  0.
        -24    2    3    3    0    0  0.54652334796E+02 -0.86767386124E+02  0.14404791098E+03  0.19378140946E+03  0.79284153537E+02 0.  0.
          6    2    1    2  501    0 -0.46559219493E+02  0.37872429212E+02  0.79818423579E+02  0.19717038794E+03  0.17000911541E+03 0.  0.
         24    2    5    5    0    0 -0.44989108201E+02 -0.19035538518E+02 -0.52183363986E+01  0.94728586961E+02  0.80993225454E+02 0.  0.
          5    1    5    5  501    0 -0.15701112913E+01  0.56907967730E+02  0.85036759978E+02  0.10244180098E+03  0.47000000000E+01 0. -1.
        -13    1    6    6    0    0 -0.37200476995E+02  0.20706763023E+02 -0.25299637724E+02  0.49524914867E+02  0.00000000000E+00 0.  1.
         14    1    6    6    0    0 -0.77886312063E+01 -0.39742301541E+02  0.20081301326E+02  0.45203672094E+02  0.00000000000E+00 0. -1.
         -5    1    3    3    0  503 -0.80931153034E+01  0.48894956912E+02  0.87687227222E+02  0.10083330375E+03  0.47000000000E+01 0.  1.
         11    1    4    4    0    0  0.70098704098E+02 -0.75214323998E+02  0.90881763492E+02  0.13722433380E+03  0.00000000000E+00 0. -1.
        -12    1    4    4    0    0 -0.15446369302E+02 -0.11553062127E+02  0.53166147489E+02  0.56557075666E+02  0.00000000000E+00 0.  1.
</event>
<event>
12    1  0.8500177E-002  0.1883024E+03  0.7818608E-02  0.1160512E+00
         21   -1    0    0  503  502  0.00000000000E+00  0.00000000000E+00  0.44794859768E+03  0.44794859768E+03  0.00000000000E+00 0.  1.
         21   -1    0    0  501  503 -0.00000000000E+00 -0.00000000000E+00 -0.85462067638E+02  0.85462067638E+02  0.00000000000E+00 0. -1.
          6    2    1    2  501    0  0.60509018753E+02 -0.35362836869E+02  0.10263897666E+03  0.21250798334E+03  0.17237462653E+03 0.  0.
         24    2    3    3    0    0 -0.14680118766E+02  0.24762253228E+02  0.67011610958E+02  0.10974693991E+03  0.82007071305E+02 0.  0.
         -6    2    1    2    0  502 -0.60509018753E+02  0.35362836869E+02  0.25984755337E+03  0.32090268198E+03  0.17477387884E+03 0.  0.
        -24    2    5    5    0    0 -0.70712006445E+02  0.62027063279E+02  0.10212893357E+03  0.16055201949E+03  0.80616917918E+02 0.  0.
          5    1    3    3  501    0  0.75189137519E+02 -0.60125090096E+02  0.35627365707E+02  0.10276104343E+03  0.47000000000E+01 0. -1.
        -11    1    4    4    0    0  0.17969834033E+02 -0.25150788674E+01  0.64637250301E+02  0.67135792863E+02  0.00000000000E+00 0.  1.
         12    1    4    4    0    0 -0.32649952799E+02  0.27277332095E+02  0.23743606576E+01  0.42611147045E+02  0.00000000000E+00 0. -1.
         -5    1    5    5    0  502  0.10202987692E+02 -0.26664226410E+02  0.15771861980E+03  0.16035066249E+03  0.47000000000E+01 0.  1.
         13    1    6    6    0    0  0.17633507174E+02  0.16926368789E+02  0.24355648177E+02  0.34505653649E+02  0.00000000000E+00 0. -1.
        -14    1    6    6    0    0 -0.88345513619E+02  0.45100694490E+02  0.77773285394E+02  0.12604636584E+03  0.00000000000E+00 0.  1.
</event>
<event>
12    1  0.8500177E-002  0.2660149E+03  0.7818608E-02  0.1103605E+00
         21   -1    0    0  501  502  0.00000000000E+00  0.00000000000E+00  0.10501344147E+03  0.10501344147E+03  0.00000000000E+00 0.  1.
         21   -1    0    0  502  503 -0.00000000000E+00 -0.00000000000E+00 -0.11316617220E+04  0.11316617220E+04  0.00000000000E+00 0. -1.
         -6    2    1    2    0  503 -0.10759930705E+03 -0.17187095818E+03 -0.90668807321E+03  0.94486291699E+03  0.17194601670E+03 0.  0.
        -24    2    3    3    0    0 -0.48687648421E+02 -0.15106189367E+03 -0.81378508581E+03  0.83280643233E+03  0.78295625713E+02 0.  0.
          6    2    1    2  501    0  0.10759930705E+03  0.17187095818E+03 -0.11996020732E+03  0.29181224647E+03  0.17218216722E+03 0.  0.
         24    2    5    5    0    0  0.81810041478E+02  0.25248957941E+02 -0.61986002259E+02  0.13198047358E+03  0.79032829675E+02 0.  0.
          5    1    5    5  501    0  0.25789265568E+02  0.14662200024E+03 -0.57974205061E+02  0.15983177289E+03  0.47000000000E+01 0. -1.
        -13    1    6    6    0    0 -0.20471096420E+01  0.19748863821E+02  0.91651646158E+01  0.21867979388E+02  0.00000000000E+00 0.  1.
         14    1    6    6    0    0  0.83857151120E+02  0.55000941198E+01 -0.71151166875E+02  0.11011249419E+03  0.00000000000E+00 0. -1.
         -5    1    3    3    0  503 -0.58911658625E+02 -0.20809064516E+02 -0.92902987394E+02  0.11205648466E+03  0.47000000000E+01 0.  1.
         13    1    4    4    0    0 -0.47642002194E+02 -0.40389069675E+02 -0.21543046843E+03  0.22430185922E+03  0.00000000000E+00 0. -1.
        -14    1    4    4    0    0 -0.10456462277E+01 -0.11067282399E+03 -0.59835461738E+03  0.60850457310E+03  0.00000000000E+00 0.  1.
</event>
<event>
12    1  0.8500177E-002  0.2587089E+03  0.7818608E-02  0.1108288E+00
         21   -1    0    0  501  502  0.00000000000E+00  0.00000000000E+00  0.27151174902E+03  0.27151174902E+03  0.00000000000E+00 0. -1.
         21   -1    0    0  502  503 -0.00000000000E+00 -0.00000000000E+00 -0.25022956134E+03  0.25022956134E+03  0.00000000000E+00 0.  1.
         -6    2    1    2    0  503 -0.14238991584E+03  0.12592166098E+03 -0.29755976134E+02  0.26041452370E+03  0.17549687519E+03 0.  0.
        -24    2    3    3    0    0 -0.12748866488E+03  0.11499889605E+03  0.34619387721E+02  0.19327562629E+03  0.81724292272E+02 0.  0.
          6    2    1    2  501    0  0.14238991584E+03 -0.12592166098E+03  0.51038163814E+02  0.26132678667E+03  0.17191754543E+03 0.  0.
         24    2    5    5    0    0  0.12484159880E+03 -0.15291572977E+03  0.16826092201E+02  0.21411260421E+03  0.81193871089E+02 0.  0.
          5    1    5    5  501    0  0.17548317041E+02  0.26994068787E+02  0.34212071613E+02  0.47214182452E+02  0.47000000000E+01 0. -1.
        -11    1    6    6    0    0  0.28131091849E+02 -0.29283389689E+02 -0.29801710302E+02  0.50368811553E+02  0.00000000000E+00 0.  1.
         12    1    6    6    0    0  0.96710506952E+02 -0.12363234008E+03  0.46627802504E+02  0.16374379266E+03  0.00000000000E+00 0. -1.
         -5    1    3    3    0  503 -0.14901250966E+02  0.10922764936E+02 -0.64375363855E+02  0.67138897412E+02  0.47000000000E+01 0.  1.
         13    1    4    4    0    0 -0.49512475947E+02  0.83278036422E+02  0.47856350190E+02  0.10805992263E+03  0.00000000000E+00 0. -1.
        -14    1    4    4    0    0 -0.77976188928E+02  0.31720859626E+02 -0.13236962469E+02  0.85215703662E+02  0.00000000000E+00 0.  1.
</event>
<event>
12    1  0.8500177E-002  0.1900987E+03  0.7818608E-02  0.1158384E+00
         21   -1    0    0  501  502  0.00000000000E+00  0.00000000000E+00  0.40618543135E+03  0.40618543135E+03  0.00000000000E+00 0. -1.
         21   -1    0    0  502  503 -0.00000000000E+00 -0.00000000000E+00 -0.90358918247E+02  0.90358918247E+02  0.00000000000E+00 0. -1.
         -6    2    1    2    0  503 -0.79836134002E+02 -0.12039309576E+02  0.18896040630E+03  0.26799997714E+03  0.17204417843E+03 0.  0.
        -24    2    3    3    0    0 -0.30645730430E+02 -0.25910706531E+02  0.19730464948E+03  0.21600163244E+03  0.78211604033E+02 0.  0.
          6    2    1    2  501    0  0.79836134002E+02  0.12039309576E+02  0.12686610681E+03  0.22854437246E+03  0.17210103968E+03 0.  0.
         24    2    5    5    0    0  0.17645706443E+02  0.35500359776E+02  0.13461062950E+03  0.16146130613E+03  0.79862915684E+02 0.  0.
          5    1    5    5  501    0  0.62190427559E+02 -0.23461050201E+02 -0.77445226939E+01  0.67083066330E+02  0.47000000000E+01 0. -1.
        -11    1    6    6    0    0 -0.27304724465E+01 -0.23925326830E+02  0.22538902584E+02  0.32983008859E+02  0.00000000000E+00 0.  1.
         12    1    6    6    0    0  0.20376178890E+02  0.59425686606E+02  0.11207172692E+03  0.12847829727E+03  0.00000000000E+00 0. -1.
         -5    1    3    3    0  503 -0.49190403572E+02  0.13871396956E+02 -0.83442431825E+01  0.51998344699E+02  0.47000000000E+01 0.  1.
         13    1    4    4    0    0 -0.30900835753E+02 -0.40523582501E+02  0.63589628631E+02  0.81490264807E+02  0.00000000000E+00 0. -1.
        -14    1    4    4    0    0  0.25510532305E+00  0.14612875969E+02  0.13371502085E+03  0.13451136763E+03  0.00000000000E+00 0.  1.
</event>
<event>
12    1  0.8500177E-002  0.2075102E+03  0.7818608E-02  0.1143721E+00
         21   -1    0    0  501  502  0.00000000000E+00  0.00000000000E+00  0.49537669879E+02  0.49537669879E+02  0.00000000000E+00 0. -1.
         21   -1    0    0  502  503 -0.00000000000E+00 -0.00000000000E+00 -0.10171069340E+04  0.10171069340E+04  0.00000000000E+00 0.  1.
         -6    2    1    2    0  503  0.11065714151E+03 -0.30219293549E+02 -0.69033703471E+03  0.72085067799E+03  0.17292272779E+03 0.  0.
        -24    2    3    3    0    0  0.25854234445E+02 -0.94970342271E+01 -0.12610393516E+03  0.14988480710E+03  0.76188042633E+02 0.  0.
          6    2    1    2  501    0 -0.11065714151E+03  0.30219293549E+02 -0.27723222937E+03  0.34579392585E+03  0.17192301035E+03 0.  0.
         24    2    5    5    0    0 -0.12067061020E+02 -0.35247690225E+02 -0.10534773950E+03  0.13705414097E+03  0.79357908941E+02 0.  0.
          5    1    5    5  501    0 -0.98590080493E+02  0.65466983774E+02 -0.17188448987E+03  0.20873978489E+03  0.47000000000E+01 0. -1.
        -13    1    6    6    0    0 -0.24886903364E+02 -0.13235385338E+02 -0.10783643189E+03  0.11145954165E+03  0.00000000000E+00 0.  1.
         14    1    6    6    0    0  0.12819842344E+02 -0.22012304886E+02  0.24886923901E+01  0.25594599312E+02  0.00000000000E+00 0. -1.
         -5    1    3    3    0  503  0.84802907069E+02 -0.20722259322E+02 -0.56423309956E+03  0.57096587088E+03  0.47000000000E+01 0.  1.
         13    1    4    4    0    0 -0.14758897880E+02  0.23004487079E+02 -0.58631372044E+02  0.64689019781E+02  0.00000000000E+00 0. -1.
        -14    1    4    4    0    0  0.40613132324E+02 -0.32501521306E+02 -0.67472563115E+02  0.85195787324E+02  0.00000000000E+00 0.  1.
</event>
<event>
12    1  0.8500177E-002  0.2304408E+03  0.7818608E-02  0.1127376E+00
         21   -1    0    0  501  502  0.00000000000E+00  0.00000000000E+00  0.66411600433E+03  0.66411600433E+03  0.00000000000E+00 0.  1.
         21   -1    0    0  502  503 -0.00000000000E+00 -0.00000000000E+00 -0.83595580011E+02  0.83595580011E+02  0.00000000000E+00 0.  1.
         -6    2    1    2    0  503  0.43085071211E+02 -0.13808305344E+03  0.38405721730E+03  0.44489026289E+03  0.17176771189E+03 0.  0.
        -24    2    3    3    0    0 -0.19950779047E+02 -0.11236487824E+02  0.14087666560E+03  0.16342545097E+03  0.79607479992E+02 0.  0.
          6    2    1    2  501    0 -0.43085071211E+02  0.13808305344E+03  0.19646320703E+03  0.30282132146E+03  0.17938703411E+03 0.  0.
         24    2    5    5    0    0  0.31649405242E+02  0.54419447016E+02  0.14969837022E+03  0.18119122250E+03  0.80358546524E+02 0.  0.
          5    1    5    5  501    0 -0.74734476453E+02  0.83663606419E+02  0.46764836805E+02  0.12163009895E+03  0.47000000000E+01 0. -1.
        -13    1    6    6    0    0  0.37498033936E+02  0.62232014749E+02  0.69976938746E+02  0.10087466563E+03  0.00000000000E+00 0.  1.
         14    1    6    6    0    0 -0.58486286939E+01 -0.78125677326E+01  0.79721431476E+02  0.80316556879E+02  0.00000000000E+00 0. -1.
         -5    1    3    3    0  503  0.63035850258E+02 -0.12684656561E+03  0.24318055169E+03  0.28146481192E+03  0.47000000000E+01 0.  1.
         11    1    4    4    0    0 -0.37400436366E+02 -0.33652487824E+02  0.63607425325E+02  0.81099859024E+02  0.00000000000E+00 0. -1.
        -12    1    4    4    0    0  0.17449657319E+02  0.22416000000E+02  0.77269240277E+02  0.82325591948E+02  0.00000000000E+00 0.  1.
</event>
<event>
12    1  0.8500177E-002  0.2055974E+03  0.7818608E-02  0.1145224E+00
         21   -1    0    0  503  502  0.00000000000E+00  0.00000000000E+00  0.29829130580E+04  0.29829130580E+04  0.00000000000E+00 0. -1.
         21   -1    0    0  501  503 -0.00000000000E+00 -0.00000000000E+00 -0.30579190944E+02  0.30579190944E+02  0.00000000000E+00 0. -1.
          6    2    1    2  501    0  0.97259238770E+02 -0.57967393053E+02  0.37003570693E+03  0.42302239507E+03  0.17088576345E+03 0.  0.
         24    2    3    3    0    0  0.47254367435E+02 -0.77157914240E+02  0.34221056231E+03  0.36248239232E+03  0.78096714492E+02 0.  0.
         -6    2    1    2    0  502 -0.97259238770E+02  0.57967393053E+02  0.25822981602E+04  0.25904698539E+04  0.17161205615E+03 0.  0.
        -24    2    5    5    0    0 -0.65978545753E+02 -0.65532935828E+01  0.21270278059E+04  0.21295635877E+04  0.79985453705E+02 0.  0.
          5    1    3    3  501    0  0.50004871335E+02  0.19190521188E+02  0.27825144618E+02  0.60540002756E+02  0.47000000000E+01 0. -1.
        -13    1    4    4    0    0  0.16817736434E+01 -0.14665290669E+02  0.36588831267E+01  0.15208107665E+02  0.00000000000E+00 0.  1.
         14    1    4    4    0    0  0.45572593792E+02 -0.62492623571E+02  0.33855167918E+03  0.34727428465E+03  0.00000000000E+00 0. -1.
         -5    1    5    5    0  502 -0.31280693017E+02  0.64520686635E+02  0.45527035423E+03  0.46090626617E+03  0.47000000000E+01 0.  1.
         11    1    6    6    0    0 -0.29759216228E+02  0.32585990099E+02  0.13427139207E+04  0.13434389195E+04  0.00000000000E+00 0. -1.
        -12    1    6    6    0    0 -0.36219329525E+02 -0.39139283682E+02  0.78431388526E+03  0.78612466821E+03  0.00000000000E+00 0.  1.
</event>
<event>
12    1  0.8500177E-002  0.1855092E+03  0.7818608E-02  0.1163356E+00
         21   -1    0    0  501  502  0.00000000000E+00  0.00000000000E+00  0.65797738879E+02  0.65797738879E+02  0.00000000000E+00 0.  1.
         21   -1    0    0  502  503 -0.00000000000E+00 -0.00000000000E+00 -0.19518516561E+04  0.19518516561E+04  0.00000000000E+00 0.  1.
         -6    2    1    2    0  503  0.65139891737E+02  0.52878016075E+01 -0.18067296958E+04  0.18158921707E+04  0.17006179970E+03 0.  0.
        -24    2    3    3    0    0  0.62754520582E+02 -0.55689413982E+02 -0.99493950577E+03  0.10017980033E+04  0.81579278026E+02 0.  0.
          6    2    1    2  501    0 -0.65139891737E+02 -0.52878016075E+01 -0.79324221424E+02  0.20175722424E+03  0.17361589527E+03 0.  0.
         24    2    5    5    0    0 -0.40310373304E+02 -0.29167548119E+02  0.20165021681E+02  0.96367723948E+02  0.80027733070E+02 0.  0.
          5    1    5    5  501    0 -0.24829518433E+02  0.23879746512E+02 -0.99489243105E+02  0.10538950030E+03  0.47000000000E+01 0. -1.
        -13    1    6    6    0    0  0.44801167672E+01  0.23963998322E+02  0.15643776537E+01  0.24429325395E+02  0.00000000000E+00 0.  1.
         14    1    6    6    0    0 -0.44790490071E+02 -0.53131546441E+02  0.18600644027E+02  0.71938398552E+02  0.00000000000E+00 0. -1.
         -5    1    3    3    0  503  0.23853711552E+01  0.60977215590E+02 -0.81179018999E+03  0.81409416739E+03  0.47000000000E+01 0.  1.
         13    1    4    4    0    0  0.39999489842E+02 -0.64534616576E+02 -0.45377331151E+03  0.46008139949E+03  0.00000000000E+00 0. -1.
        -14    1    4    4    0    0  0.22755030740E+02  0.88452025933E+01 -0.54116619426E+03  0.54171660381E+03  0.00000000000E+00 0.  1.
</event>
<event>
12    1  0.8500177E-002  0.1761231E+03  0.7818608E-02  0.1171617E+00
         21   -1    0    0  501  502  0.00000000000E+00  0.00000000000E+00  0.47094467048E+03  0.47094467048E+03  0.00000000000E+00 0.  1.
         21   -1    0    0  502  503 -0.00000000000E+00 -0.00000000000E+00 -0.69807216862E+02  0.69807216862E+02  0.00000000000E+00 0.  1.
         -6    2    1    2    0  503  0.35196327567E+02  0.13095659635E+01  0.26489150964E+03  0.31808106322E+03  0.17253276345E+03 0.  0.
        -24    2    3    3    0    0 -0.10150574787E+02  0.56501494492E+02  0.11184730520E+03  0.14912216574E+03  0.80200670727E+02 0.  0.
          6    2    1    2  501    0 -0.35196327567E+02 -0.13095659635E+01  0.13624594399E+03  0.22267082412E+03  0.17256547229E+03 0.  0.
         24    2    5    5    0    0 -0.37197093816E+02 -0.49019110026E+02  0.42760389439E+02  0.11759065202E+03  0.90623471584E+02 0.  0.
          5    1    5    5  501    0  0.20007662490E+01  0.47709544062E+02  0.93485554546E+02  0.10508017210E+03  0.47000000000E+01 0. -1.
        -13    1    6    6    0    0 -0.44859848874E+02  0.73140470136E+01 -0.15990463421E+01  0.45480306441E+02  0.00000000000E+00 0.  1.
         14    1    6    6    0    0  0.76627550579E+01 -0.56333157039E+02  0.44359435781E+02  0.72110345581E+02  0.00000000000E+00 0. -1.
         -5    1    3    3    0  503  0.45346902354E+02 -0.55191928529E+02  0.15304420443E+03  0.16895889748E+03  0.47000000000E+01 0.  1.
         13    1    4    4    0    0 -0.69953993480E+01  0.41334460837E+01  0.93033627883E+02  0.93387777068E+02  0.00000000000E+00 0. -1.
        -14    1    4    4    0    0 -0.31551754390E+01  0.52368048408E+02  0.18813677319E+02  0.55734388670E+02  0.00000000000E+00 0.  1.
</event>
<event>
12    1  0.8500177E-002  0.1864872E+03  0.7818608E-02  0.1161799E+00
         21   -1    0    0  503  502  0.00000000000E+00  0.00000000000E+00  0.96859689551E+03  0.96859689551E+03  0.00000000000E+00 0. -1.
         21   -1    0    0  501  503 -0.00000000000E+00 -0.00000000000E+00 -0.37119096316E+02  0.37119096316E+02  0.00000000000E+00 0.  1.
          6    2    1    2  501    0 -0.58663809889E+02 -0.31485777268E+02  0.37150247538E+03  0.41568204598E+03  0.17419723700E+03 0.  0.
         24    2    3    3    0    0 -0.23999718157E+02 -0.80153287054E+02  0.17165945644E+03  0.20704492564E+03  0.80000602199E+02 0.  0.
         -6    2    1    2    0  502  0.58663809889E+02  0.31485777268E+02  0.55997532382E+03  0.59003394585E+03  0.17359405867E+03 0.  0.
        -24    2    5    5    0    0  0.28007336322E+02  0.60210351130E+02  0.52655395088E+03  0.53614518371E+03  0.76045365161E+02 0.  0.
          5    1    3    3  501    0 -0.34664091732E+02  0.48667509786E+02  0.19984301894E+03  0.20863712034E+03  0.47000000000E+01 0. -1.
        -11    1    4    4    0    0 -0.41268137815E+02 -0.35501645540E+02  0.41777430481E+02  0.68620548907E+02  0.00000000000E+00 0.  1.
         12    1    4    4    0    0  0.17268419659E+02 -0.44651641514E+02  0.12988202596E+03  0.13842437674E+03  0.00000000000E+00 0. -1.
         -5    1    5    5    0  502  0.30656473567E+02 -0.28724573862E+02  0.33421372938E+02  0.53888762133E+02  0.47000000000E+01 0.  1.
         13    1    6    6    0    0  0.33892596263E+02 -0.13602711418E+01  0.11266860507E+03  0.11766381342E+03  0.00000000000E+00 0. -1.
        -14    1    6    6    0    0 -0.58852599418E+01  0.61570622272E+02  0.41388534581E+03  0.41848137030E+03  0.00000000000E+00 0.  1.
</event>
<event>
12    1  0.8500177E-002  0.2358907E+03  0.7818608E-02  0.1122731E+00
         21   -1    0    0  501  502  0.00000000000E+00  0.00000000000E+00  0.43767927834E+03  0.43767927834E+03  0.00000000000E+00 0. -1.
         21   -1    0    0  502  503 -0.00000000000E+00 -0.00000000000E+00 -0.13839456261E+03  0.13839456261E+03  0.00000000000E+00 0. -1.
         -6    2    1    2    0  503  0.71378177136E+02  0.14259433062E+03  0.65265954677E+02  0.24379500272E+03  0.17247716144E+03 0.  0.
        -24    2    3    3    0    0  0.11400963735E+03  0.12416547363E+03  0.64105445316E+02  0.19709916831E+03  0.79519254147E+02 0.  0.
          6    2    1    2  501    0 -0.71378177136E+02 -0.14259433062E+03  0.23401876105E+03  0.33227883822E+03  0.17382881957E+03 0.  0.
         24    2    5    5    0    0 -0.50769061022E+02 -0.34613233913E+02  0.18679787563E+03  0.21254348449E+03  0.80657999870E+02 0.  0.
          5    1    5    5  501    0 -0.20609116114E+02 -0.10798109671E+03  0.47220885424E+02  0.11973535373E+03  0.47000000000E+01 0. -1.
        -11    1    6    6    0    0  0.18037800342E+02 -0.23041649927E+02  0.36050225711E+02  0.46431655650E+02  0.00000000000E+00 0.  1.
         12    1    6    6    0    0 -0.68806861364E+02 -0.11571583986E+02  0.15074764992E+03  0.16611182885E+03  0.00000000000E+00 0. -1.
         -5    1    3    3    0  503 -0.42631460211E+02  0.18428856990E+02  0.11605093609E+01  0.46695834414E+02  0.47000000000E+01 0.  1.
         11    1    4    4    0    0  0.10248786715E+03  0.13288134108E+03  0.46130508749E+02  0.17403803480E+03  0.00000000000E+00 0. -1.
        -12    1    4    4    0    0  0.11521770198E+02 -0.87158674557E+01  0.17974936567E+02  0.23061133506E+02  0.00000000000E+00 0.  1.
</event>
<event>
12    1  0.8500177E-002  0.2105170E+03  0.7818608E-02  0.1141281E+00
         21   -1    0    0  503  502  0.00000000000E+00  0.00000000000E+00  0.81680136169E+03  0.81680136169E+03  0.00000000000E+00 0.  1.
         21   -1    0    0  501  503 -0.00000000000E+00 -0.00000000000E+00 -0.67351948623E+02  0.67351948623E+02  0.00000000000E+00 0.  1.
          6    2    1    2  501    0 -0.13404288015E+02  0.11971236744E+03  0.17904806872E+03  0.27636141396E+03  0.17264615362E+03 0.  0.
         24    2    3    3    0    0 -0.22529950694E+02 -0.27991107668E+01  0.37863920341E+02  0.89151922307E+02  0.77452921754E+02 0.  0.
         -6    2    1    2    0  502  0.13404288015E+02 -0.11971236744E+03  0.57040134436E+03  0.60779189636E+03  0.17187952111E+03 0.  0.
        -24    2    5    5    0    0  0.63326034517E+02 -0.12659883742E+03  0.45812585140E+03  0.48463557065E+03  0.70390967727E+02 0.  0.
          5    1    3    3  501    0  0.91256626793E+01  0.12251147821E+03  0.14118414837E+03  0.18720949165E+03  0.47000000000E+01 0. -1.
        -11    1    4    4    0    0  0.18686270237E+02  0.16570536198E+02  0.35688189387E+02  0.43559226658E+02  0.00000000000E+00 0.  1.
         12    1    4    4    0    0 -0.41216220932E+02 -0.19369646965E+02  0.21757309535E+01  0.45592695650E+02  0.00000000000E+00 0. -1.
         -5    1    5    5    0  502 -0.49921746502E+02  0.68864699706E+01  0.11227549296E+03  0.12315632570E+03  0.47000000000E+01 0.  1.
         13    1    6    6    0    0  0.21525822556E+02  0.31295185925E+01  0.66948451726E+02  0.70393537430E+02  0.00000000000E+00 0. -1.
        -14    1    6    6    0    0  0.41800211961E+02 -0.12972835601E+03  0.39117739967E+03  0.41424203322E+03  0.00000000000E+00 0.  1.
</event>
<event>
12    1  0.8500177E-002  0.2368770E+03  0.7818608E-02  0.1121977E+00
         21   -1    0    0  503  502  0.00000000000E+00  0.00000000000E+00  0.14884607695E+03  0.14884607695E+03  0.00000000000E+00 0.  1.
         21   -1    0    0  501  503 -0.00000000000E+00 -0.00000000000E+00 -0.11855631504E+04  0.11855631504E+04  0.00000000000E+00 0. -1.
          6    2    1    2  501    0 -0.11351134111E+03 -0.11597821258E+03 -0.10694699926E+04  0.10952785971E+04  0.17185275655E+03 0.  0.
         24    2    3    3    0    0 -0.13144152959E+02 -0.83679753002E+02 -0.74865334454E+03  0.75754767670E+03  0.78877007855E+02 0.  0.
         -6    2    1    2    0  502  0.11351134111E+03  0.11597821258E+03  0.32752919147E+02  0.23913063021E+03  0.17255414871E+03 0.  0.
        -24    2    5    5    0    0  0.20992017602E+02  0.83431123540E+02  0.66236282561E+02  0.13538881679E+03  0.80879350917E+02 0.  0.
          5    1    3    3  501    0 -0.10036718815E+03 -0.32298459576E+02 -0.32081664803E+03  0.33773092041E+03  0.47000000000E+01 0. -1.
        -11    1    4    4    0    0  0.21482613045E+02  0.35589778412E+01 -0.15427573663E+03  0.15580491615E+03  0.00000000000E+00 0.  1.
         12    1    4    4    0    0 -0.34626766004E+02 -0.87238730843E+02 -0.59437760791E+03  0.60174276055E+03  0.00000000000E+00 0. -1.
         -5    1    5    5    0  502  0.92519323504E+02  0.32547089038E+02 -0.33483363414E+02  0.10374181342E+03  0.47000000000E+01 0.  1.
         13    1    6    6    0    0 -0.28652311232E+02  0.23398713412E+02  0.73001036442E+01  0.37706050462E+02  0.00000000000E+00 0. -1.
        -14    1    6    6    0    0  0.49644328834E+02  0.60032410128E+02  0.58936178917E+02  0.97682766323E+02  0.00000000000E+00 0.  1.
</event>
<event>
12    1  0.8500177E-002  0.1757520E+03  0.7818608E-02  0.1172192E+00
         21   -1    0    0  501  502  0.00000000000E+00  0.00000000000E+00  0.28523056310E+03  0.28523056310E+03  0.00000000000E+00 0. -1.
         21   -1    0    0  502  503 -0.00000000000E+00 -0.00000000000E+00 -0.12607028769E+03  0.12607028769E+03  0.00000000000E+00 0. -1.
         -6    2    1    2    0  503 -0.46519908809E+01 -0.33088603546E+02  0.15809680475E+03  0.23639663227E+03  0.17254643251E+03 0.  0.
        -24    2    3    3    0    0  0.47280594213E+02  0.25306502905E+02  0.10412869963E+03  0.14130915559E+03  0.79054523511E+02 0.  0.
          6    2    1    2  501    0  0.46519908809E+01  0.33088603546E+02  0.10634706657E+01  0.17490421852E+03  0.17167952115E+03 0.  0.
         24    2    5    5    0    0 -0.51756530445E+02 -0.18840678825E+02 -0.53416861884E+01  0.97821875018E+02  0.80665209343E+02 0.  0.
          5    1    5    5  501    0  0.56408521325E+02  0.51929282371E+02  0.64051568541E+01  0.77082343503E+02  0.47000000000E+01 0. -1.
        -11    1    6    6    0    0 -0.26839037063E+02 -0.49723823819E+02 -0.11505139525E+02  0.57664207279E+02  0.00000000000E+00 0.  1.
         12    1    6    6    0    0 -0.24917493382E+02  0.30883144994E+02  0.61634533369E+01  0.40157667739E+02  0.00000000000E+00 0. -1.
         -5    1    3    3    0  503 -0.51932585094E+02 -0.58395106450E+02  0.53968105115E+02  0.95087476681E+02  0.47000000000E+01 0.  1.
         13    1    4    4    0    0 -0.18592064464E+02  0.22158576339E+02  0.39635238730E+02  0.49067499586E+02  0.00000000000E+00 0. -1.
        -14    1    4    4    0    0  0.65872658678E+02  0.31479265653E+01  0.64493460901E+02  0.92241656002E+02  0.00000000000E+00 0.  1.
</event>
<event>
12    1  0.8500177E-002  0.1850899E+03  0.7818608E-02  0.1163868E+00
         21   -1    0    0  503  502  0.00000000000E+00  0.00000000000E+00  0.13485487877E+02  0.13485487877E+02  0.00000000000E+00 0.  1.
         21   -1    0    0  501  503 -0.00000000000E+00 -0.00000000000E+00 -0.25350651969E+04  0.25350651969E+04  0.00000000000E+00 0.  1.
          6    2    1    2  501    0  0.59182792538E+02 -0.62353437130E+01 -0.14211467477E+04  0.14326604730E+04  0.17122053061E+03 0.  0.
         24    2    3    3    0    0 -0.16638797245E+02  0.33538797833E+02 -0.87962705718E+03  0.88439360279E+03  0.83705342642E+02 0.  0.
         -6    2    1    2    0  502 -0.59182792538E+02  0.62353437130E+01 -0.11004329613E+04  0.11158902117E+04  0.17526203186E+03 0.  0.
        -24    2    5    5    0    0 -0.22984944081E+01 -0.11535006127E+02 -0.95830188561E+03  0.96169896233E+03  0.79900254900E+02 0.  0.
          5    1    3    3  501    0  0.75821589783E+02 -0.39774141546E+02 -0.54151969050E+03  0.54826687024E+03  0.47000000000E+01 0. -1.
        -13    1    4    4    0    0 -0.39600836328E+02 -0.46678590981E+01 -0.59110600227E+03  0.59244942490E+03  0.00000000000E+00 0.  1.
         14    1    4    4    0    0  0.22962039083E+02  0.38206656931E+02 -0.28852105492E+03  0.29194417789E+03  0.00000000000E+00 0. -1.
         -5    1    5    5    0  502 -0.56884298129E+02  0.17770349840E+02 -0.14213107568E+03  0.15419124937E+03  0.47000000000E+01 0.  1.
         11    1    6    6    0    0 -0.39239180689E+02 -0.12647829968E+02 -0.38335047625E+03  0.38556097902E+03  0.00000000000E+00 0. -1.
        -12    1    6    6    0    0  0.36940686281E+02  0.11128238407E+01 -0.57495140937E+03  0.57613798331E+03  0.00000000000E+00 0.  1.
</event>
<event>
12    1  0.8500177E-002  0.1965180E+03  0.7818608E-02  0.1152856E+00
         21   -1    0    0  503  502  0.00000000000E+00  0.00000000000E+00  0.13242390334E+04  0.13242390334E+04  0.00000000000E+00 0.  1.
         21   -1    0    0  501  503 -0.00000000000E+00 -0.00000000000E+00 -0.32574351431E+02  0.32574351431E+02  0.00000000000E+00 0. -1.
          6    2    1    2  501    0  0.38382177870E+02 -0.87036420050E+02  0.42212250756E+03  0.46534105531E+03  0.17119099385E+03 0.  0.
         24    2    3    3    0    0  0.31566957575E+02 -0.53332784407E+02  0.41855578104E+03  0.43045275038E+03  0.79118706784E+02 0.  0.
         -6    2    1    2    0  502 -0.38382177870E+02  0.87036420050E+02  0.86954217445E+03  0.89147232957E+03  0.17196159814E+03 0.  0.
        -24    2    5    5    0    0  0.26970114075E+02  0.57110464489E+02  0.28952558009E+03  0.30700006794E+03  0.80218376815E+02 0.  0.
          5    1    3    3  501    0  0.68152202952E+01 -0.33703635643E+02  0.35667265246E+01  0.34888304936E+02  0.47000000000E+01 0. -1.
        -11    1    4    4    0    0  0.38309893127E+02 -0.70681440821E+02  0.30686858126E+03  0.31722521992E+03  0.00000000000E+00 0.  1.
         12    1    4    4    0    0 -0.67429355523E+01  0.17348656415E+02  0.11168719978E+03  0.11322753046E+03  0.00000000000E+00 0. -1.
         -5    1    5    5    0  502 -0.65352291945E+02  0.29925955561E+02  0.58001659436E+03  0.58447226163E+03  0.47000000000E+01 0.  1.
         11    1    6    6    0    0  0.27057401412E+02  0.74233738138E+02  0.26849970922E+03  0.27988362707E+03  0.00000000000E+00 0. -1.
        -12    1    6    6    0    0 -0.87287336394E-01 -0.17123273649E+02  0.21025870871E+02  0.27116440869E+02  0.00000000000E+00 0.  1.
</event>
<event>
12    1  0.8500177E-002  0.1857013E+03  0.7818608E-02  0.1162591E+00
         21   -1    0    0  503  502  0.00000000000E+00  0.00000000000E+00  0.14305421976E+03  0.14305421976E+03  0.00000000000E+00 0. -1.
         21   -1    0    0  501  503 -0.00000000000E+00 -0.00000000000E+00 -0.24991455935E+03  0.24991455935E+03  0.00000000000E+00 0. -1.
          6    2    1    2  501    0 -0.29145074718E+02  0.63262782399E+02 -0.14374117378E+02  0.18625679444E+03  0.17214343789E+03 0.  0.
         24    2    3    3    0    0  0.25498684538E+02  0.88837503329E+02 -0.24649965140E+02  0.12487528400E+03  0.80274098330E+02 0.  0.
         -6    2    1    2    0  502  0.29145074718E+02 -0.63262782399E+02 -0.92486222215E+02  0.20671198467E+03  0.17124406059E+03 0.  0.
        -24    2    5    5    0    0  0.81126158824E+02 -0.19959798761E+02 -0.68840466929E+02  0.13489002953E+03  0.80476474620E+02 0.  0.
          5    1    3    3  501    0 -0.54643759257E+02 -0.25574720930E+02  0.10275847762E+02  0.61381510437E+02  0.47000000000E+01 0. -1.
        -11    1    4    4    0    0  0.36985572666E+01  0.54702156539E+02 -0.52350401183E+02  0.75806132733E+02  0.00000000000E+00 0.  1.
         12    1    4    4    0    0  0.21800127272E+02  0.34135346790E+02  0.27700436042E+02  0.49069151271E+02  0.00000000000E+00 0. -1.
         -5    1    5    5    0  502 -0.51981084106E+02 -0.43302983638E+02 -0.23645755286E+02  0.71821955138E+02  0.47000000000E+01 0.  1.
         13    1    6    6    0    0  0.65063179425E+02  0.19939419400E+02 -0.60547172535E+02  0.91086540525E+02  0.00000000000E+00 0. -1.
        -14    1    6    6    0    0  0.16062979400E+02 -0.39899218162E+02 -0.82932943948E+01  0.43803489005E+02  0.00000000000E+00 0.  1.
</event>
<event>
12    1  0.8500177E-002  0.2374993E+03  0.7818608E-02  0.1121890E+00
         21   -1    0    0  501  502  0.00000000000E+00  0.00000000000E+00  0.13844381194E+04  0.13844381194E+04  0.00000000000E+00 0. -1.
         21   -1    0    0  502  503 -0.00000000000E+00 -0.00000000000E+00 -0.41705749096E+02  0.41705749096E+02  0.00000000000E+00 0. -1.
         -6    2    1    2    0  503  0.47949725668E+02  0.15592181989E+03  0.53798611922E+03  0.58708341964E+03  0.16919541081E+03 0.  0.
        -24    2    3    3    0    0 -0.83193042131E+01  0.14757911709E+03  0.31611268906E+03  0.35798581288E+03  0.79861150851E+02 0.  0.
          6    2    1    2  501    0 -0.47949725668E+02 -0.15592181989E+03  0.80474625112E+03  0.83906044889E+03  0.17261262435E+03 0.  0.
         24    2    5    5    0    0 -0.31585787347E+02 -0.38367829976E+01  0.27441897553E+03  0.28709419434E+03  0.78133983813E+02 0.  0.
          5    1    5    5  501    0 -0.16363938321E+02 -0.15208503689E+03  0.53032727560E+03  0.55196625455E+03  0.47000000000E+01 0. -1.
        -13    1    6    6    0    0  0.19599544110E+02  0.11323603430E+02  0.34180264249E+02  0.40995811836E+02  0.00000000000E+00 0.  1.
         14    1    6    6    0    0 -0.51185331457E+02 -0.15160386428E+02  0.24023871128E+03  0.24609838250E+03  0.00000000000E+00 0. -1.
         -5    1    3    3    0  503  0.56269029881E+02  0.83427027956E+01  0.22187343016E+03  0.22909760676E+03  0.47000000000E+01 0.  1.
         11    1    4    4    0    0  0.29604294120E+02  0.80658134076E+02  0.12226900119E+03  0.14943847388E+03  0.00000000000E+00 0. -1.
        -12    1    4    4    0    0 -0.37923598333E+02  0.66920983017E+02  0.19384368787E+03  0.20854733900E+03  0.00000000000E+00 0.  1.
</event>
<event>
12    1  0.8500177E-002  0.1872116E+03  0.7818608E-02  0.1161104E+00
         21   -1    0    0  501  502  0.00000000000E+00  0.00000000000E+00  0.40827673175E+03  0.40827673175E+03  0.00000000000E+00 0. -1.
         21   -1    0    0  502  503 -0.00000000000E+00 -0.00000000000E+00 -0.85677346521E+02  0.85677346521E+02  0.00000000000E+00 0. -1.
         -6    2    1    2    0  503  0.75863120585E+02  0.11498855441E+02  0.15577660947E+03  0.24319918906E+03  0.17027053990E+03 0.  0.
        -24    2    3    3    0    0 -0.21449947146E+02  0.25793678267E+02  0.90361603440E+02  0.12498164330E+03  0.79559900166E+02 0.  0.
          6    2    1    2  501    0 -0.75863120585E+02 -0.11498855441E+02  0.16682277575E+03  0.25075488921E+03  0.17076515807E+03 0.  0.
         24    2    5    5    0    0 -0.54672299665E+02 -0.72546632679E+02  0.12569394536E+03  0.17401146808E+03  0.78923690111E+02 0.  0.
          5    1    5    5  501    0 -0.21190820920E+02  0.61047777237E+02  0.41128830393E+02  0.76743421128E+02  0.47000000000E+01 0. -1.
        -11    1    6    6    0    0 -0.28061710599E+02 -0.26499588528E+02  0.11289424762E+03  0.11930967663E+03  0.00000000000E+00 0.  1.
         12    1    6    6    0    0 -0.26610589066E+02 -0.46047044151E+02  0.12799697746E+02  0.54701791450E+02  0.00000000000E+00 0. -1.
         -5    1    3    3    0  503  0.97313067731E+02 -0.14294822826E+02  0.65415006035E+02  0.11821754576E+03  0.47000000000E+01 0.  1.
         11    1    4    4    0    0 -0.27354936350E+02 -0.22459502960E+02  0.52719605280E+02  0.63498650354E+02  0.00000000000E+00 0. -1.
        -12    1    4    4    0    0  0.59049892046E+01  0.48253181227E+02  0.37641998160E+02  0.61482992945E+02  0.00000000000E+00 0.  1.
</event>
<event>
12    1  0.8500177E-002  0.1898590E+03  0.7818608E-02  0.1158919E+00
         21   -1    0    0  503  502  0.00000000000E+00  0.00000000000E+00  0.35151229176E+03  0.35151229176E+03  0.00000000000E+00 0.  1.
         21   -1    0    0  501  503 -0.00000000000E+00 -0.00000000000E+00 -0.13500006277E+03  0.13500006277E+03  0.00000000000E+00 0.  1.
          6    2    1    2  501    0  0.78427260362E+02 -0.13120170544E+02 -0.12132673797E+02  0.19024628860E+03  0.17240497241E+03 0.  0.
         24    2    3    3    0    0 -0.74126141423E+01 -0.44550807473E+02 -0.30985139451E+02  0.96791088352E+02  0.79804226847E+02 0.  0.
         -6    2    1    2    0  502 -0.78427260362E+02  0.13120170544E+02  0.22864490279E+03  0.29626606593E+03  0.17079846663E+03 0.  0.
        -24    2    5    5    0    0 -0.53024418317E+02  0.58969534380E+02  0.91848076449E+02  0.14969550188E+03  0.87656598224E+02 0.  0.
          5    1    3    3  501    0  0.85839874505E+02  0.31430636929E+02  0.18852465654E+02  0.93455200251E+02  0.47000000000E+01 0. -1.
        -13    1    4    4    0    0  0.22253159554E+02 -0.73972326856E+01 -0.41894698317E+02  0.48011331044E+02  0.00000000000E+00 0.  1.
         14    1    4    4    0    0 -0.29665773696E+02 -0.37153574787E+02  0.10909558866E+02  0.48779757308E+02  0.00000000000E+00 0. -1.
         -5    1    5    5    0  502 -0.25402842045E+02 -0.45849363836E+02  0.13679682634E+03  0.14657056405E+03  0.47000000000E+01 0.  1.
         11    1    6    6    0    0 -0.27239238618E+01  0.29760969662E+02 -0.10746973563E+02  0.31758975380E+02  0.00000000000E+00 0. -1.
        -12    1    6    6    0    0 -0.50300494455E+02  0.29208564718E+02  0.10259505001E+03  0.11793652650E+03  0.00000000000E+00 0.  1.
</event>
<event>
12    1  0.8500177E-002  0.2649684E+03  0.7818608E-02  0.1104250E+00
         21   -1    0    0  503  502  0.00000000000E+00  0.00000000000E+00  0.22290962487E+03  0.22290962487E+03  0.00000000000E+00 0.  1.
         21   -1    0    0  501  503 -0.00000000000E+00 -0.00000000000E+00 -0.33509679974E+03  0.33509679974E+03  0.00000000000E+00 0.  1.
          6    2    1    2  501    0  0.16519497557E+03  0.11494958921E+03 -0.12528025991E+03  0.29309281809E+03  0.17235274434E+03 0.  0.
         24    2    3    3    0    0  0.10725890183E+02  0.15546878383E+02 -0.20303573005E+02  0.81471004350E+02  0.76606392196E+02 0.  0.
         -6    2    1    2    0  502 -0.16519497557E+03 -0.11494958921E+03  0.13093085048E+02  0.26491360652E+03  0.17177020124E+03 0.  0.
        -24    2    5    5    0    0 -0.37797863384E+02 -0.10935649989E+03  0.25610141737E+01  0.13687329507E+03  0.73076792247E+02 0.  0.
          5    1    3    3  501    0  0.15446908538E+03  0.99402710823E+02 -0.10497668691E+03  0.21162181374E+03  0.47000000000E+01 0. -1.
        -11    1    4    4    0    0  0.24163412456E+02  0.42412898560E+02 -0.11183071636E+02  0.50077795049E+02  0.00000000000E+00 0.  1.
         12    1    4    4    0    0 -0.13437522273E+02 -0.26866020177E+02 -0.91205013693E+01  0.31393209301E+02  0.00000000000E+00 0. -1.
         -5    1    5    5    0  502 -0.12739711218E+03 -0.55930893198E+01  0.10532070875E+02  0.12804031145E+03  0.47000000000E+01 0.  1.
         11    1    6    6    0    0  0.66668892546E+01 -0.79991138611E+02  0.16159965162E+02  0.81879021383E+02  0.00000000000E+00 0. -1.
        -12    1    6    6    0    0 -0.44464752638E+02 -0.29365361275E+02 -0.13598950988E+02  0.54994273683E+02  0.00000000000E+00 0.  1.
</event>
<event>
12    1  0.8500177E-002  0.2250171E+03  0.7818608E-02  0.1130413E+00
         21   -1    0    0  501  502  0.00000000000E+00  0.00000000000E+00  0.32928038644E+03  0.32928038644E+03  0.00000000000E+00 0.  1.
         21   -1    0    0  502  503 -0.00000000000E+00 -0.00000000000E+00 -0.15787018403E+03  0.15787018403E+03  0.00000000000E+00 0. -1.
         -6    2    1    2    0  503 -0.11725636723E+03 -0.85721280557E+02  0.42950257042E+02  0.22907946073E+03  0.17185889897E+03 0.  0.
        -24    2    3    3    0    0 -0.72117283613E+02 -0.98293462617E+02  0.82413155469E+02  0.16763837526E+03  0.80300618165E+02 0.  0.
          6    2    1    2  501    0  0.11725636723E+03  0.85721280557E+02  0.12845994537E+03  0.25807110974E+03  0.17029840434E+03 0.  0.
         24    2    5    5    0    0  0.10973059386E+03  0.74708610039E+02  0.16070830880E+03  0.22285799967E+03  0.78843819400E+02 0.  0.
          5    1    5    5  501    0  0.75257733666E+01  0.11012670518E+02 -0.32248363429E+02  0.35213110066E+02  0.47000000000E+01 0. -1.
        -13    1    6    6    0    0  0.60043259965E+02  0.49841656554E+02  0.35210710154E+02  0.85610617945E+02  0.00000000000E+00 0.  1.
         14    1    6    6    0    0  0.49687333897E+02  0.24866953485E+02  0.12549759865E+03  0.13724738173E+03  0.00000000000E+00 0. -1.
         -5    1    3    3    0  503 -0.45139083615E+02  0.12572182060E+02 -0.39462898427E+02  0.61441085469E+02  0.47000000000E+01 0.  1.
         11    1    4    4    0    0 -0.70003033405E+02 -0.11009644654E+03  0.63146909824E+02  0.14494545335E+03  0.00000000000E+00 0. -1.
        -12    1    4    4    0    0 -0.21142502083E+01  0.11802983928E+02  0.19266245645E+02  0.22692921910E+02  0.00000000000E+00 0.  1.
</event>
<event>
12    1  0.8500177E-002  0.2219571E+03  0.7818608E-02  0.1132575E+00
         21   -1    0    0  503  502  0.00000000000E+00  0.00000000000E+00  0.10152398663E+03  0.10152398663E+03  0.00000000000E+00 0.  1.
         21   -1    0    0  501  503 -0.00000000000E+00 -0.00000000000E+00 -0.52849722176E+03  0.52849722176E+03  0.00000000000E+00 0.  1.
          6    2    1    2  501    0 -0.26432209711E+02  0.13662494874E+03 -0.30568089779E+03  0.37776416877E+03  0.17291592642E+03 0.  0.
         24    2    3    3    0    0  0.27700745037E+02  0.12953035672E+03 -0.16849638629E+03  0.23004013478E+03  0.83558284017E+02 0.  0.
         -6    2    1    2    0  502  0.26432209711E+02 -0.13662494874E+03 -0.12129233734E+03  0.25225703962E+03  0.17192075097E+03 0.  0.
        -24    2    5    5    0    0 -0.94277507517E+01 -0.10040319620E+03 -0.14665594413E+03  0.19513126023E+03  0.79990989989E+02 0.  0.
          5    1    3    3  501    0 -0.54132954748E+02  0.70945920192E+01 -0.13718451150E+03  0.14772403400E+03  0.47000000000E+01 0. -1.
        -13    1    4    4    0    0  0.34564300728E+02  0.12543466622E+03 -0.17613811309E+03  0.21898214826E+03  0.00000000000E+00 0.  1.
         14    1    4    4    0    0 -0.68635556907E+01  0.40956904987E+01  0.76417267964E+01  0.11057986517E+02  0.00000000000E+00 0. -1.
         -5    1    5    5    0  502  0.35859960462E+02 -0.36221752532E+02  0.25363606792E+02  0.57125779386E+02  0.47000000000E+01 0.  1.
         11    1    6    6    0    0  0.17091029476E+02 -0.27762923603E+02 -0.99156383811E+02  0.10437850193E+03  0.00000000000E+00 0. -1.
        -12    1    6    6    0    0 -0.26518780228E+02 -0.72640272601E+02 -0.47499560317E+02  0.90752758298E+02  0.00000000000E+00 0.  1.
</event>
<event>
12    1  0.8500177E-002  0.1972933E+03  0.7818608E-02  0.1155018E+00
         21   -1    0    0  501  502  0.00000000000E+00  0.00000000000E+00  0.26453904753E+03  0.26453904753E+03  0.00000000000E+00 0. -1.
         21   -1    0    0  502  503 -0.00000000000E+00 -0.00000000000E+00 -0.15676233925E+03  0.15676233925E+03  0.00000000000E+00 0. -1.
         -6    2    1    2    0  503 -0.55231796033E+02  0.41916994694E+02 -0.18535263002E+02  0.19816210911E+03  0.18470809342E+03 0.  0.
        -24    2    3    3    0    0 -0.97555986787E+02 -0.11181290937E+02 -0.28302846876E+02  0.12939975927E+03  0.79379183251E+02 0.  0.
          6    2    1    2  501    0  0.55231796033E+02 -0.41916994694E+02  0.12631197128E+03  0.22313927767E+03  0.17037851219E+03 0.  0.
         24    2    5    5    0    0  0.98279127602E+02 -0.16090426696E+02  0.11401334760E+03  0.17124100685E+03  0.80042177904E+02 0.  0.
          5    1    5    5  501    0 -0.43047331569E+02 -0.25826567997E+02  0.12298623675E+02  0.51898270819E+02  0.47000000000E+01 0. -1.
        -11    1    6    6    0    0  0.56697060416E+02 -0.38603360726E+02  0.30064177237E+02  0.74890792973E+02  0.00000000000E+00 0.  1.
         12    1    6    6    0    0  0.41582067186E+02  0.22512934030E+02  0.83949170363E+02  0.96350213880E+02  0.00000000000E+00 0. -1.
         -5    1    3    3    0  503  0.42324190754E+02  0.53098285631E+02  0.97675838737E+01  0.68762349833E+02  0.47000000000E+01 0.  1.
         11    1    4    4    0    0 -0.12638352136E+02  0.18309168910E+02 -0.32527334034E+02  0.39407880814E+02  0.00000000000E+00 0. -1.
        -12    1    4    4    0    0 -0.84917634652E+02 -0.29490459847E+02  0.42244871587E+01  0.89991878459E+02  0.00000000000E+00 0.  1.
</event>
<event>
12    1  0.8500177E-002  0.1956721E+03  0.7818608E-02  0.1154457E+00
         21   -1    0    0  503  502  0.00000000000E+00  0.00000000000E+00  0.30301996813E+03  0.30301996813E+03  0.00000000000E+00 0. -1.
         21   -1    0    0  501  503 -0.00000000000E+00 -0.00000000000E+00 -0.14257642678E+03  0.14257642678E+03  0.00000000000E+00 0. -1.
          6    2    1    2  501    0 -0.62166159541E+02 -0.69319785260E+02 -0.23305746239E+01  0.19107138643E+03  0.16683218848E+03 0.  0.
         24    2    3    3    0    0 -0.19613869854E+02 -0.10635136089E+03 -0.71749071428E+01  0.13425948179E+03  0.79238963292E+02 0.  0.
         -6    2    1    2    0  502  0.62166159541E+02  0.69319785260E+02  0.16277411598E+03  0.25452500848E+03  0.17209794622E+03 0.  0.
        -24    2    5    5    0    0  0.10051480749E+03  0.46396692040E+02  0.67133144609E+02  0.14885868269E+03  0.73458619311E+02 0.  0.
          5    1    3    3  501    0 -0.42552289686E+02  0.37031575634E+02  0.48443325189E+01  0.56811904642E+02  0.47000000000E+01 0. -1.
        -11    1    4    4    0    0 -0.45365964908E+01 -0.16954735447E+02  0.31212017150E+02  0.35808292006E+02  0.00000000000E+00 0.  1.
         12    1    4    4    0    0 -0.15077273364E+02 -0.89396625446E+02 -0.38386924293E+02  0.98451189784E+02  0.00000000000E+00 0. -1.
         -5    1    5    5    0  502 -0.38348647948E+02  0.22923093220E+02  0.95640971368E+02  0.10566632579E+03  0.47000000000E+01 0.  1.
         11    1    6    6    0    0  0.73155650286E+02  0.17790584842E+02  0.77388346516E+02  0.10796856142E+03  0.00000000000E+00 0. -1.
        -12    1    6    6    0    0  0.27359157202E+02  0.28606107198E+02 -0.10255201907E+02  0.40890121277E+02  0.00000000000E+00 0.  1.
</event>
<event>
12    1  0.8500177E-002  0.2256819E+03  0.7818608E-02  0.1129990E+00
         21   -1    0    0  501  502  0.00000000000E+00  0.00000000000E+00  0.11229680019E+04  0.11229680019E+04  0.00000000000E+00 0. -1.
         21   -1    0    0  502  503 -0.00000000000E+00 -0.00000000000E+00 -0.59332768000E+02  0.59332768000E+02  0.00000000000E+00 0.  1.
         -6    2    1    2    0  503 -0.13305668597E+03  0.57639433214E+02  0.24044187093E+03  0.32873201945E+03  0.17095631423E+03 0.  0.
        -24    2    3    3    0    0 -0.12815760483E+03  0.56654444428E+02  0.26116539063E+03  0.30690255616E+03  0.79672579741E+02 0.  0.
          6    2    1    2  501    0  0.13305668597E+03 -0.57639433214E+02  0.82319336296E+03  0.85356875044E+03  0.17293326156E+03 0.  0.
         24    2    5    5    0    0  0.21371312110E+02  0.73737887046E+01  0.19484667298E+03  0.21205336124E+03  0.80562375227E+02 0.  0.
          5    1    5    5  501    0  0.11168537386E+03 -0.65013221918E+02  0.62834668998E+03  0.64151538919E+03  0.47000000000E+01 0. -1.
        -13    1    6    6    0    0  0.14596499976E+02 -0.34989917986E+02  0.64377987553E+02  0.74711963256E+02  0.00000000000E+00 0.  1.
         14    1    6    6    0    0  0.67748121340E+01  0.42363706691E+02  0.13046868543E+03  0.13734139799E+03  0.00000000000E+00 0. -1.
         -5    1    3    3    0  503 -0.48990811352E+01  0.98498878630E+00 -0.20723519704E+02  0.21829463296E+02  0.47000000000E+01 0.  1.
         13    1    4    4    0    0 -0.63267809461E+02 -0.10748390521E+02  0.13834566187E+03  0.15250529752E+03  0.00000000000E+00 0. -1.
        -14    1    4    4    0    0 -0.64889795372E+02  0.67402834948E+02  0.12281972876E+03  0.15439725864E+03  0.00000000000E+00 0.  1.
</event>
<event>
12    1  0.8500177E-002  0.1929724E+03  0.7818608E-02  0.1155969E+00
         21   -1    0    0  501  502  0.00000000000E+00  0.00000000000E+00  0.94357769197E+03  0.94357769197E+03  0.00000000000E+00 0. -1.
         21   -1    0    0  502  503 -0.00000000000E+00 -0.00000000000E+00 -0.64109814757E+02  0.64109814757E+02  0.00000000000E+00 0. -1.
         -6    2    1    2    0  503 -0.44168749661E+02  0.75486068973E+02  0.12691319994E+03  0.23096604550E+03  0.17201548999E+03 0.  0.
        -24    2    3    3    0    0 -0.82966411249E+02  0.30364044279E+02  0.39502242962E+02  0.12511699705E+03  0.79299654291E+02 0.  0.
          6    2    1    2  501    0  0.44168749661E+02 -0.75486068973E+02  0.75255467727E+03  0.77672146123E+03  0.17119772486E+03 0.  0.
         24    2    5    5    0    0  0.63226164289E+02 -0.57370412993E+02  0.73581800901E+03  0.74520054582E+03  0.81282218018E+02 0.  0.
          5    1    5    5  501    0 -0.19057414628E+02 -0.18115655980E+02  0.16736668258E+02  0.31520915410E+02  0.47000000000E+01 0. -1.
        -11    1    6    6    0    0 -0.88588769037E+01  0.57139241826E+01  0.23898673881E+03  0.23921912540E+03  0.00000000000E+00 0.  1.
         12    1    6    6    0    0  0.72085041193E+02 -0.63084337176E+02  0.49683127020E+03  0.50598142042E+03  0.00000000000E+00 0. -1.
         -5    1    3    3    0  503  0.38797661589E+02  0.45122024695E+02  0.87410956980E+02  0.10584904845E+03  0.47000000000E+01 0.  1.
         13    1    4    4    0    0 -0.40191808004E+02  0.36577953886E+02 -0.14211257555E+02  0.56171950139E+02  0.00000000000E+00 0. -1.
        -14    1    4    4    0    0 -0.42774603245E+02 -0.62139096078E+01  0.53713500517E+02  0.68945046908E+02  0.00000000000E+00 0.  1.
</event>
<event>
12    1  0.8500177E-002  0.2199789E+03  0.7818608E-02  0.1134022E+00
         21   -1    0    0  501  502  0.00000000000E+00  0.00000000000E+00  0.52605837404E+03  0.52605837404E+03  0.00000000000E+00 0.  1.
         21   -1    0    0  502  503 -0.00000000000E+00 -0.00000000000E+00 -0.11564655740E+03  0.11564655740E+03  0.00000000000E+00 0.  1.
         -6    2    1    2    0  503 -0.36356839174E+01  0.13664472420E+03  0.58996996170E+02  0.22711706176E+03  0.17151243494E+03 0.  0.
        -24    2    3    3    0    0 -0.62649445479E+02  0.64224211304E+02  0.57007319978E+02  0.13355743611E+03  0.80858220812E+02 0.  0.
          6    2    1    2  501    0  0.36356839174E+01 -0.13664472420E+03  0.35141482047E+03  0.41458786968E+03  0.17235349371E+03 0.  0.
         24    2    5    5    0    0  0.33373429170E+02 -0.45652171487E+02  0.83804032625E+02  0.13033164387E+03  0.82251534779E+02 0.  0.
          5    1    5    5  501    0 -0.29737745253E+02 -0.90992552709E+02  0.26761078784E+03  0.28425622581E+03  0.47000000000E+01 0. -1.
        -11    1    6    6    0    0 -0.71709420780E+01 -0.47214165586E+02  0.14299032049E+02  0.49850397790E+02  0.00000000000E+00 0.  1.
         12    1    6    6    0    0  0.40544371249E+02  0.15619940988E+01  0.69505000576E+02  0.80481246080E+02  0.00000000000E+00 0. -1.
         -5    1    3    3    0  503  0.59013761562E+02  0.72420512892E+02  0.19896761925E+01  0.93559625655E+02  0.47000000000E+01 0.  1.
         11    1    4    4    0    0 -0.49984750119E+02  0.69683990025E+01 -0.18127464440E+01  0.50500691864E+02  0.00000000000E+00 0. -1.
        -12    1    4    4    0    0 -0.12664695360E+02  0.57255812302E+02  0.58820066422E+02  0.83056744246E+02  0.00000000000E+00 0.  1.
</event>
<event>
12    1  0.8500177E-002  0.2226100E+03  0.7818608E-02  0.1132255E+00
         21   -1    0    0  503  502  0.00000000000E+00  0.00000000000E+00  0.20092997850E+03  0.20092997850E+03  0.00000000000E+00 0.  1.
         21   -1    0    0  501  503 -0.00000000000E+00 -0.00000000000E+00 -0.26086083995E+03  0.26086083995E+03  0.00000000000E+00 0. -1.
          6    2    1    2  501    0 -0.13436941571E+03  0.42435413951E+02  0.27202261998E+02  0.22426587432E+03  0.17233489226E+03 0.  0.
         24    2    3    3    0    0 -0.29709505765E+02  0.68235364884E+02 -0.23832303290E+02  0.10490947075E+03  0.69994989960E+02 0.  0.
         -6    2    1    2    0  502  0.13436941571E+03 -0.42435413951E+02 -0.87133123452E+02  0.23752494414E+03  0.17020579793E+03 0.  0.
        -24    2    5    5    0    0  0.15378859605E+03 -0.72770028967E+01 -0.47097016305E+02  0.18061977470E+03  0.81862610636E+02 0.  0.
          5    1    3    3  501    0 -0.10465990995E+03 -0.25799950933E+02  0.51034565288E+02  0.11935640357E+03  0.47000000000E+01 0. -1.
        -11    1    4    4    0    0 -0.24215469090E+01  0.45137971688E+01  0.21488190017E+02  0.22090282128E+02  0.00000000000E+00 0.  1.
         12    1    4    4    0    0 -0.27287958856E+02  0.63721567715E+02 -0.45320493306E+02  0.82819188623E+02  0.00000000000E+00 0. -1.
         -5    1    5    5    0  502 -0.19419180343E+02 -0.35158411054E+02 -0.40036107148E+02  0.56905169436E+02  0.47000000000E+01 0.  1.
         11    1    6    6    0    0 -0.44997881415E+01  0.68377570915E+01 -0.17014498336E+02  0.18881106138E+02  0.00000000000E+00 0. -1.
        -12    1    6    6    0    0  0.15828838420E+03 -0.14114759988E+02 -0.30082517969E+02  0.16173866856E+03  0.00000000000E+00 0.  1.
</event>
<event>
12    1  0.8500177E-002  0.2288179E+03  0.7818608E-02  0.1127590E+00
         21   -1    0    0  501  502  0.00000000000E+00  0.00000000000E+00  0.15300655180E+04  0.15300655180E+04  0.00000000000E+00 0.  1.
         21   -1    0    0  502  503 -0.00000000000E+00 -0.00000000000E+00 -0.44144007928E+02  0.44144007928E+02  0.00000000000E+00 0.  1.
         -6    2    1    2    0  503  0.71818449747E+02  0.13270535667E+03  0.36711306147E+03  0.43224193885E+03  0.17115049630E+03 0.  0.
        -24    2    3    3    0    0  0.86262090694E+02  0.83046652816E+02  0.14637319244E+03  0.20547601237E+03  0.80357858107E+02 0.  0.
          6    2    1    2  501    0 -0.71818449747E+02 -0.13270535667E+03  0.11188084486E+04  0.11419675871E+04  0.17201460363E+03 0.  0.
         24    2    5    5    0    0 -0.89187841826E+01 -0.14815302553E+01  0.41376227092E+03  0.42204518625E+03  0.82711442734E+02 0.  0.
          5    1    5    5  501    0 -0.62899665565E+02 -0.13122382642E+03  0.70504617769E+03  0.71992240083E+03  0.47000000000E+01 0. -1.
        -13    1    6    6    0    0 -0.26772133586E+02 -0.28824661184E+02  0.32670121926E+03  0.32906123275E+03  0.00000000000E+00 0.  1.
         14    1    6    6    0    0  0.17853349404E+02  0.27343130929E+02  0.87061051655E+02  0.92983953504E+02  0.00000000000E+00 0. -1.
         -5    1    3    3    0  503 -0.14443640946E+02  0.49658703855E+02  0.22073986903E+03  0.22676592648E+03  0.47000000000E+01 0.  1.
         11    1    4    4    0    0 -0.12268366821E+02  0.53619840888E+01  0.35847635264E+02  0.38266390630E+02  0.00000000000E+00 0. -1.
        -12    1    4    4    0    0  0.98530457514E+02  0.77684668727E+02  0.11052555718E+03  0.16720962174E+03  0.00000000000E+00 0.  1.
</event>
<event>
12    1  0.8500177E-002  0.2043320E+03  0.7818608E-02  0.1147197E+00
         21   -1    0    0  503  502  0.00000000000E+00  0.00000000000E+00  0.42390587715E+03  0.42390587715E+03  0.00000000000E+00 0.  1.
         21   -1    0    0  501  503 -0.00000000000E+00 -0.00000000000E+00 -0.14686670048E+03  0.14686670048E+03  0.00000000000E+00 0.  1.
          6    2    1    2  501    0  0.47139350548E+02  0.75813166919E+02 -0.30498410085E+02  0.20154239066E+03  0.17809948783E+03 0.  0.
         24    2    3    3    0    0 -0.32478479792E+02  0.45165774785E+01  0.11093593019E+02  0.86763528075E+02  0.79558725959E+02 0.  0.
         -6    2    1    2    0  502 -0.47139350548E+02 -0.75813166919E+02  0.30753758675E+03  0.36923018697E+03  0.18379828360E+03 0.  0.
        -24    2    5    5    0    0  0.35930332623E+02 -0.81978804431E+02  0.19054705368E+03  0.22553793882E+03  0.80917668064E+02 0.  0.
          5    1    3    3  501    0  0.79617830340E+02  0.71296589440E+02 -0.41592003104E+02  0.11477886258E+03  0.47000000000E+01 0. -1.
        -11    1    4    4    0    0 -0.27264287253E+02  0.37664246829E+02 -0.94107711340E+01  0.47439429401E+02  0.00000000000E+00 0.  1.
         12    1    4    4    0    0 -0.52141925397E+01 -0.33147669350E+02  0.20504364153E+02  0.39324098674E+02  0.00000000000E+00 0. -1.
         -5    1    5    5    0  502 -0.83069683171E+02  0.61656375116E+01  0.11699053308E+03  0.14369224815E+03  0.47000000000E+01 0.  1.
         11    1    6    6    0    0 -0.33960865977E+01 -0.57019553753E+02  0.44992533469E+02  0.72712385343E+02  0.00000000000E+00 0. -1.
        -12    1    6    6    0    0  0.39326419221E+02 -0.24959250678E+02  0.14555452021E+03  0.15282555348E+03  0.00000000000E+00 0.  1.
</event>
<event>
12    1  0.8500177E-002  0.2038726E+03  0.7818608E-02  0.1147450E+00
         21   -1    0    0  503  502  0.00000000000E+00  0.00000000000E+00  0.11796872891E+03  0.11796872891E+03  0.00000000000E+00 0.  1.
         21   -1    0    0  501  503 -0.00000000000E+00 -0.00000000000E+00 -0.44642807411E+03  0.44642807411E+03  0.00000000000E+00 0. -1.
          6    2    1    2  501    0  0.50034582228E+02  0.93446294193E+02 -0.30042489866E+03  0.36306907973E+03  0.17415041662E+03 0.  0.
         24    2    3    3    0    0 -0.33524916818E+02  0.82498896049E+02 -0.17926739744E+03  0.21540979114E+03  0.79590140322E+02 0.  0.
         -6    2    1    2    0  502 -0.50034582228E+02 -0.93446294193E+02 -0.28034446542E+02  0.20132772328E+03  0.16885275435E+03 0.  0.
        -24    2    5    5    0    0 -0.38148808268E+02 -0.11782897035E+03  0.17035239260E+02  0.14851529011E+03  0.80172278200E+02 0.  0.
          5    1    3    3  501    0  0.83559499046E+02  0.10947398144E+02 -0.12115750122E+03  0.14765928859E+03  0.47000000000E+01 0. -1.
        -13    1    4    4    0    0  0.58604390847E+01  0.10874362793E+02  0.53842190439E+01  0.13475397104E+02  0.00000000000E+00 0.  1.
         14    1    4    4    0    0 -0.39385355902E+02  0.71624533257E+02 -0.18465161649E+03  0.20193439404E+03  0.00000000000E+00 0. -1.
         -5    1    5    5    0  502 -0.11885773960E+02  0.24382676161E+02 -0.45069685802E+02  0.52812433174E+02  0.47000000000E+01 0.  1.
         13    1    6    6    0    0 -0.15949744217E+02 -0.66126132133E+01 -0.22544615260E+02  0.28396842630E+02  0.00000000000E+00 0. -1.
        -14    1    6    6    0    0 -0.22199064050E+02 -0.11121635714E+03  0.39579854520E+02  0.12011844748E+03  0.00000000000E+00 0.  1.
</event>
<event>
12    1  0.8500177E-002  0.1845175E+03  0.7818608E-02  0.1163586E+00
         21   -1    0    0  503  502  0.00000000000E+00  0.00000000000E+00  0.13571181205E+02  0.13571181205E+02  0.00000000000E+00 0.  1.
         21   -1    0    0  501  503 -0.00000000000E+00 -0.00000000000E+00 -0.28904323220E+04  0.28904323220E+04  0.00000000000E+00 0.  1.
          6    2    1    2  501    0  0.50154186316E+02 -0.38511467171E+02 -0.19706635018E+04  0.19792830345E+04  0.17334393032E+03 0.  0.
         24    2    3    3    0    0 -0.30546150300E+02 -0.23650702017E+02 -0.13898551468E+04  0.13926879256E+04  0.79936887474E+02 0.  0.
         -6    2    1    2    0  502 -0.50154186316E+02  0.38511467171E+02 -0.90619763903E+03  0.92472046865E+03  0.17296013600E+03 0.  0.
        -24    2    5    5    0    0 -0.37285044976E+02  0.56874915113E+02 -0.89206475743E+03  0.89780097085E+03  0.75114055118E+02 0.  0.
          5    1    3    3  501    0  0.80700336616E+02 -0.14860765154E+02 -0.58080835498E+03  0.58659510899E+03  0.47000000000E+01 0. -1.
        -11    1    4    4    0    0  0.86608214876E+01 -0.40220943330E+02 -0.91645911602E+03  0.91738216979E+03  0.00000000000E+00 0.  1.
         12    1    4    4    0    0 -0.39206971788E+02  0.16570241313E+02 -0.47339603076E+03  0.47530575577E+03  0.00000000000E+00 0. -1.
         -5    1    5    5    0  502 -0.12869141341E+02 -0.18363447942E+02 -0.14132881606E+02  0.26919497797E+02  0.47000000000E+01 0.  1.
         11    1    6    6    0    0  0.19248829976E+02  0.59190376234E+01 -0.95015576421E+02  0.97126269487E+02  0.00000000000E+00 0. -1.
        -12    1    6    6    0    0 -0.56533874952E+02  0.50955877489E+02 -0.79704918101E+03  0.80067470137E+03  0.00000000000E+00 0.  1.
</event>
<event>
12    1  0.8500177E-002  0.1927501E+03  0.7818608E-02  0.1156050E+00
         21   -1    0    0  503  502  0.00000000000E+00  0.00000000000E+00  0.23492099496E+03  0.23492099496E+03  0.00000000000E+00 0. -1.
         21   -1    0    0  501  503 -0.00000000000E+00 -0.00000000000E+00 -0.17777723524E+03  0.17777723524E+03  0.00000000000E+00 0.  1.
          6    2    1    2  501    0  0.45821767390E+02  0.73431012803E+02  0.97446271046E+02  0.21598231985E+03  0.17222322357E+03 0.  0.
         24    2    3    3    0    0 -0.34695941695E+02  0.45965135919E+01  0.33503351905E+02  0.92159556730E+02  0.78396256291E+02 0.  0.
         -6    2    1    2    0  502 -0.45821767390E+02 -0.73431012803E+02 -0.40302511333E+02  0.19671591035E+03  0.17199159560E+03 0.  0.
        -24    2    5    5    0    0 -0.40630759375E+02  0.22673853764E+02  0.29621325197E+01  0.91089155456E+02  0.78252781169E+02 0.  0.
          5    1    3    3  501    0  0.80517709085E+02  0.68834499211E+02  0.63942919141E+02  0.12382276312E+03  0.47000000000E+01 0. -1.
        -11    1    4    4    0    0 -0.15935726918E+02 -0.21124607753E+02 -0.17721888451E+02  0.31847476751E+02  0.00000000000E+00 0.  1.
         12    1    4    4    0    0 -0.18760214778E+02  0.25721121345E+02  0.51225240357E+02  0.60312079979E+02  0.00000000000E+00 0. -1.
         -5    1    5    5    0  502 -0.51910080149E+01 -0.96104866567E+02 -0.43264643852E+02  0.10562675490E+03  0.47000000000E+01 0.  1.
         11    1    6    6    0    0 -0.54239951493E+02 -0.21429422236E+01 -0.16506408857E+02  0.56736461580E+02  0.00000000000E+00 0. -1.
        -12    1    6    6    0    0  0.13609192117E+02  0.24816795988E+02  0.19468541376E+02  0.34352693876E+02  0.00000000000E+00 0.  1.
</event>
<event>
12    1  0.8500177E-002  0.2398275E+03  0.7818608E-02  0.1120242E+00
         21   -1    0    0  503  502  0.00000000000E+00  0.00000000000E+00  0.27136253615E+03  0.27136253615E+03  0.00000000000E+00 0.  1.
         21   -1    0    0  501  503 -0.00000000000E+00 -0.00000000000E+00 -0.68190443246E+03  0.68190443246E+03  0.00000000000E+00 0. -1.
          6    2    1    2  501    0 -0.34506391928E+02 -0.15914322661E+03 -0.60195821540E+03  0.64797449214E+03  0.17606814509E+03 0.  0.
         24    2    3    3    0    0 -0.26931211948E+02 -0.14038959550E+03 -0.60537239619E+03  0.62693099761E+03  0.78308422241E+02 0.  0.
         -6    2    1    2    0  502  0.34506391928E+02  0.15914322661E+03  0.19141631909E+03  0.30529247646E+03  0.17333791077E+03 0.  0.
        -24    2    5    5    0    0 -0.23407337212E+02  0.22200260515E+02  0.58081089446E+02  0.10552323596E+03  0.81981616073E+02 0.  0.
          5    1    3    3  501    0 -0.75751799800E+01 -0.18753631112E+02  0.34141807885E+01  0.21043494530E+02  0.47000000000E+01 0. -1.
        -11    1    4    4    0    0 -0.46644099037E+02 -0.42508646084E+02 -0.22784127655E+03  0.23641976285E+03  0.00000000000E+00 0.  1.
         12    1    4    4    0    0  0.19712887089E+02 -0.97880949417E+02 -0.37753111964E+03  0.39051123476E+03  0.00000000000E+00 0. -1.
         -5    1    5    5    0  502  0.57913729141E+02  0.13694296610E+03  0.13333522964E+03  0.19976924050E+03  0.47000000000E+01 0.  1.
         11    1    6    6    0    0 -0.35947124105E+02  0.11249897411E+02  0.73654287405E+02  0.82726718636E+02  0.00000000000E+00 0. -1.
        -12    1    6    6    0    0  0.12539786893E+02  0.10950363104E+02 -0.15573197959E+02  0.22796517324E+02  0.00000000000E+00 0.  1.
</event>
<event>
12    1  0.8500177E-002  0.2290369E+03  0.7818608E-02  0.1127814E+00
         21   -1    0    0  501  502  0.00000000000E+00  0.00000000000E+00  0.29591438968E+03  0.29591438968E+03  0.00000000000E+00 0. -1.
         21   -1    0    0  502  503 -0.00000000000E+00 -0.00000000000E+00 -0.18967699593E+03  0.18967699593E+03  0.00000000000E+00 0. -1.
         -6    2    1    2    0  503 -0.14352534988E+03 -0.40600786367E+02 -0.13819766949E+02  0.22945350215E+03  0.17381016592E+03 0.  0.
        -24    2    3    3    0    0 -0.17428946412E+03 -0.27811900458E+02 -0.84776327014E+00  0.19339314709E+03  0.79056128987E+02 0.  0.
          6    2    1    2  501    0  0.14352534988E+03  0.40600786367E+02  0.12005716070E+03  0.25613788347E+03  0.17013213571E+03 0.  0.
         24    2    5    5    0    0  0.15850077634E+03 -0.19564868888E+01  0.11238435401E+03  0.21013411333E+03  0.79998616355E+02 0.  0.
          5    1    5    5  501    0 -0.14975426454E+02  0.42557273256E+02  0.76728066829E+01  0.46003770137E+02  0.47000000000E+01 0. -1.
        -11    1    6    6    0    0  0.13513924993E+02 -0.23211940442E+01 -0.12667765895E+02  0.18667790530E+02  0.00000000000E+00 0.  1.
         12    1    6    6    0    0  0.14498685134E+03  0.36470715537E+00  0.12505211991E+03  0.19146632280E+03  0.00000000000E+00 0. -1.
         -5    1    3    3    0  503  0.30764114234E+02 -0.12788885908E+02 -0.12972003679E+02  0.36060355057E+02  0.47000000000E+01 0.  1.
         13    1    4    4    0    0 -0.78644890226E+02 -0.19378240219E+02 -0.39220880504E+02  0.89993402092E+02  0.00000000000E+00 0. -1.
        -14    1    4    4    0    0 -0.95644573890E+02 -0.84336602389E+01  0.38373117234E+02  0.10339974500E+03  0.00000000000E+00 0.  1.
</event>
<event>
12    1  0.8500177E-002  0.1825327E+03  0.7818608E-02  0.1165885E+00
         21   -1    0    0  503  502  0.00000000000E+00  0.00000000000E+00  0.64071205039E+02  0.64071205039E+02  0.00000000000E+00 0. -1.
         21   -1    0    0  501  503 -0.00000000000E+00 -0.00000000000E+00 -0.14991154260E+04  0.14991154260E+04  0.00000000000E+00 0. -1.
          6    2    1    2  501    0  0.39493429047E+02 -0.38838646356E+02 -0.13496741805E+04  0.13616767567E+04  0.17168291917E+03 0.  0.
         24    2    3    3    0    0  0.79185598768E+02  0.12027379717E+02 -0.96679036405E+03  0.97336640676E+03  0.79646323605E+02 0.  0.
         -6    2    1    2    0  502 -0.39493429047E+02  0.38838646356E+02 -0.85370040399E+02  0.20150987432E+03  0.17392531230E+03 0.  0.
        -24    2    5    5    0    0 -0.47991625061E+02  0.82262102331E+02 -0.92930483960E+02  0.15637600487E+03  0.82140918513E+02 0.  0.
          5    1    3    3  501    0 -0.39692169721E+02 -0.50866026073E+02 -0.38288381649E+03  0.38831034994E+03  0.47000000000E+01 0. -1.
        -13    1    4    4    0    0  0.60242228064E+02  0.28215403023E+02 -0.36190504384E+03  0.36796806351E+03  0.00000000000E+00 0.  1.
         14    1    4    4    0    0  0.18943370703E+02 -0.16188023307E+02 -0.60488532022E+03  0.60539834325E+03  0.00000000000E+00 0. -1.
         -5    1    5    5    0  502  0.84981960136E+01 -0.43423455975E+02  0.75604435602E+01  0.45133869446E+02  0.47000000000E+01 0.  1.
         13    1    6    6    0    0  0.19982660639E+02  0.41693243161E+02 -0.40139754827E+02  0.61227715694E+02  0.00000000000E+00 0. -1.
        -14    1    6    6    0    0 -0.67974285700E+02  0.40568859170E+02 -0.52790729133E+02  0.95148289176E+02  0.00000000000E+00 0.  1.
</event>
<event>
12    1  0.8500177E-002  0.1875061E+03  0.7818608E-02  0.1161085E+00
         21   -1    0    0  503  502  0.00000000000E+00  0.00000000000E+00  0.13827204859E+03  0.13827204859E+03  0.00000000000E+00 0.  1.
         21   -1    0    0  501  503 -0.00000000000E+00 -0.00000000000E+00 -0.26336005689E+03  0.26336005689E+03  0.00000000000E+00 0.  1.
          6    2    1    2  501    0 -0.18057424315E+02 -0.70625075450E+02 -0.21428230616E+02  0.18872653748E+03  0.17275579593E+03 0.  0.
         24    2    3    3    0    0 -0.22781448057E+02  0.21021188786E+02 -0.40016842865E+02  0.94976973993E+02  0.80364128332E+02 0.  0.
         -6    2    1    2    0  502  0.18057424315E+02  0.70625075450E+02 -0.10365977768E+03  0.21290556800E+03  0.17108319474E+03 0.  0.
        -24    2    5    5    0    0  0.13045871326E+02  0.38101886922E+02 -0.13625075324E+03  0.16635306922E+03  0.86528188093E+02 0.  0.
          5    1    3    3  501    0  0.47240237425E+01 -0.91646264235E+02  0.18588612249E+02  0.93749563487E+02  0.47000000000E+01 0. -1.
        -13    1    4    4    0    0  0.26945781662E+02 -0.70099856236E+01 -0.20768754477E+02  0.34735517994E+02  0.00000000000E+00 0.  1.
         14    1    4    4    0    0 -0.49727229719E+02  0.28031174409E+02 -0.19248088388E+02  0.60241455999E+02  0.00000000000E+00 0. -1.
         -5    1    5    5    0  502  0.50115529885E+01  0.32523188527E+02  0.32590975556E+02  0.46552498784E+02  0.47000000000E+01 0.  1.
         11    1    6    6    0    0 -0.23295091292E+02 -0.12468725779E+02 -0.72807852030E+02  0.77453945788E+02  0.00000000000E+00 0. -1.
        -12    1    6    6    0    0  0.36340962619E+02  0.50570612701E+02 -0.63442901210E+02  0.88899123432E+02  0.00000000000E+00 0.  1.
</event>
<event>
12    1  0.8500177E-002  0.1958498E+03  0.7818608E-02  0.1153849E+00
         21   -1    0    0  501  502  0.00000000000E+00  0.00000000000E+00  0.13241695788E+03  0.13241695788E+03  0.00000000000E+00 0. -1.
         21   -1    0    0  502  503 -0.00000000000E+00 -0.00000000000E+00 -0.30318998223E+03  0.30318998223E+03  0.00000000000E+00 0.  1.
         -6    2    1    2    0  503  0.60672433551E+02 -0.67441844442E+02 -0.33879936841E+02  0.19875868030E+03  0.17357308633E+03 0.  0.
        -24    2    3    3    0    0  0.90530915851E+02 -0.76556134883E+02  0.11535102238E+02  0.14344850917E+03  0.79923261234E+02 0.  0.
          6    2    1    2  501    0 -0.60672433551E+02  0.67441844442E+02 -0.13689308752E+03  0.23684825982E+03  0.17066878506E+03 0.  0.
         24    2    5    5    0    0 -0.29626358373E+02  0.98305110947E+02 -0.14212857783E+03  0.19250978485E+03  0.79485021723E+02 0.  0.
          5    1    5    5  501    0 -0.31046075179E+02 -0.30863266505E+02  0.52354903146E+01  0.44338474965E+02  0.47000000000E+01 0. -1.
        -11    1    6    6    0    0  0.21448787668E+02  0.58420038431E+02 -0.49783624666E+02  0.79695424383E+02  0.00000000000E+00 0.  1.
         12    1    6    6    0    0 -0.51075146041E+02  0.39885072516E+02 -0.92344953165E+02  0.11281436047E+03  0.00000000000E+00 0. -1.
         -5    1    3    3    0  503 -0.29858482300E+02  0.91142904407E+01 -0.45415039079E+02  0.55310171126E+02  0.47000000000E+01 0.  1.
         13    1    4    4    0    0 -0.88597915913E+01  0.63989036901E+01  0.86798334427E+01  0.13956410143E+02  0.00000000000E+00 0. -1.
        -14    1    4    4    0    0  0.99390707442E+02 -0.82955038573E+02  0.28552687949E+01  0.12949209903E+03  0.00000000000E+00 0.  1.
</event>
<event>
12    1  0.8500177E-002  0.1989172E+03  0.7818608E-02  0.1152036E+00
         21   -1    0    0  501  502  0.00000000000E+00  0.00000000000E+00  0.38730550996E+02  0.38730550996E+02  0.00000000000E+00 0.  1.
         21   -1    0    0  502  503 -0.00000000000E+00 -0.00000000000E+00 -0.13111407505E+04  0.13111407505E+04  0.00000000000E+00 0.  1.
         -6    2    1    2    0  503 -0.71238824632E+02  0.50468924799E+02 -0.97850258369E+03  0.99851657955E+03  0.17873435828E+03 0.  0.
        -24    2    3    3    0    0 -0.78107356598E+02 -0.16642366431E+02 -0.52141365508E+03  0.53645221086E+03  0.97627082956E+02 0.  0.
          6    2    1    2  501    0  0.71238824632E+02 -0.50468924799E+02 -0.29390761577E+03  0.35135472191E+03  0.17159945074E+03 0.  0.
         24    2    5    5    0    0  0.10782140842E+03 -0.59215553992E+02 -0.26794139204E+03  0.30540775538E+03  0.79682931240E+02 0.  0.
          5    1    5    5  501    0 -0.36582583784E+02  0.87466291931E+01 -0.25966223737E+02  0.45946966535E+02  0.47000000000E+01 0. -1.
        -13    1    6    6    0    0  0.59016171005E+02 -0.73550594521E+02 -0.15320111891E+03  0.17989769656E+03  0.00000000000E+00 0.  1.
         14    1    6    6    0    0  0.48805237411E+02  0.14335040529E+02 -0.11474027313E+03  0.12551005881E+03  0.00000000000E+00 0. -1.
         -5    1    3    3    0  503  0.68685319664E+01  0.67111291230E+02 -0.45708892862E+03  0.46206436868E+03  0.47000000000E+01 0.  1.
         11    1    4    4    0    0 -0.16763070397E+02 -0.47288957928E+02 -0.13543675454E+03  0.14443116198E+03  0.00000000000E+00 0. -1.
        -12    1    4    4    0    0 -0.61344286201E+02  0.30646591497E+02 -0.38597690053E+03  0.39202104888E+03  0.00000000000E+00 0.  1.
</event>
<event>
12    1  0.8500177E-002  0.2097339E+03  0.7818608E-02  0.1141946E+00
         21   -1    0    0  503  502  0.00000000000E+00  0.00000000000E+00  0.19318540804E+03  0.19318540804E+03  0.00000000000E+00 0.  1.
         21   -1    0    0  501  503 -0.00000000000E+00 -0.00000000000E+00 -0.34304188373E+03  0.34304188373E+03  0.00000000000E+00 0. -1.
          6    2    1    2  501    0  0.54620599272E+02 -0.10754930860E+03 -0.23091589352E+03  0.31137414196E+03  0.17053282017E+03 0.  0.
         24    2    3    3    0    0  0.83636507585E+02 -0.37746440929E+02 -0.18708503378E+03  0.22386644209E+03  0.81826125580E+02 0.  0.
         -6    2    1    2    0  502 -0.54620599272E+02  0.10754930860E+03  0.81059417836E+02  0.22485314981E+03  0.17157519085E+03 0.  0.
        -24    2    5    5    0    0 -0.28063357344E+02  0.32709756372E+02 -0.22978753124E+02  0.93886449106E+02  0.80182055619E+02 0.  0.
          5    1    3    3  501    0 -0.29015908313E+02 -0.69802867669E+02 -0.43830859744E+02  0.87507699866E+02  0.47000000000E+01 0. -1.
        -13    1    4    4    0    0  0.64920712696E+01 -0.12280416342E+01  0.83257830397E+01  0.10628910520E+02  0.00000000000E+00 0.  1.
         14    1    4    4    0    0  0.77144436315E+02 -0.36518399295E+02 -0.19541081682E+03  0.21323753157E+03  0.00000000000E+00 0. -1.
         -5    1    5    5    0  502 -0.26557241928E+02  0.74839552226E+02  0.10403817096E+03  0.13096670070E+03  0.47000000000E+01 0.  1.
         11    1    6    6    0    0 -0.32037929110E+02  0.48703469091E+02  0.79550385018E+01  0.58836548512E+02  0.00000000000E+00 0. -1.
        -12    1    6    6    0    0  0.39745717666E+01 -0.15993712719E+02 -0.30933791626E+02  0.35049900594E+02  0.00000000000E+00 0.  1.
</event>
<event>
12    1  0.8500177E-002  0.2378188E+03  0.7818608E-02  0.1121328E+00
         21   -1    0    0  503  502  0.00000000000E+00  0.00000000000E+00  0.11365987611E+03  0.11365987611E+03  0.00000000000E+00 0.  1.
         21   -1    0    0  501  503 -0.00000000000E+00 -0.00000000000E+00 -0.10130330632E+04  0.10130330632E+04  0.00000000000E+00 0.  1.
          6    2    1    2  501    0 -0.56559385570E+02  0.15428382062E+03 -0.85208244633E+03  0.88464811173E+03  0.17191662176E+03 0.  0.
         24    2    3    3    0    0  0.23304818415E+02  0.11118773589E+03 -0.41938323036E+03  0.44250982442E+03  0.83826151240E+02 0.  0.
         -6    2    1    2    0  502  0.56559385570E+02 -0.15428382062E+03 -0.47290740786E+02  0.24204482760E+03  0.17130914454E+03 0.  0.
        -24    2    5    5    0    0  0.10411102217E+03 -0.11276774848E+03 -0.45370774429E+02  0.17871617169E+03  0.79531709486E+02 0.  0.
          5    1    3    3  501    0 -0.79864203986E+02  0.43096084733E+02 -0.43269921597E+03  0.44213828730E+03  0.47000000000E+01 0. -1.
        -11    1    4    4    0    0 -0.99115789183E+01  0.83540006252E+02 -0.35593326380E+03  0.36573988069E+03  0.00000000000E+00 0.  1.
         12    1    4    4    0    0  0.33216397334E+02  0.27647729634E+02 -0.63449966556E+02  0.76769943739E+02  0.00000000000E+00 0. -1.
         -5    1    5    5    0  502 -0.47551636604E+02 -0.41516072137E+02 -0.19199663567E+01  0.63328655917E+02  0.47000000000E+01 0.  1.
         11    1    6    6    0    0  0.27541328236E+02  0.61974628228E+01 -0.20933245012E+02  0.35144474006E+02  0.00000000000E+00 0. -1.
        -12    1    6    6    0    0  0.76569693938E+02 -0.11896521130E+03 -0.24437529418E+02  0.14357169768E+03  0.00000000000E+00 0.  1.
</event>
<event>
12    1  0.8500177E-002  0.2014209E+03  0.7818608E-02  0.1148670E+00
         21   -1    0    0  503  502  0.00000000000E+00  0.00000000000E+00  0.28333224497E+03  0.28333224497E+03  0.00000000000E+00 0.  1.
         21   -1    0    0  501  503 -0.00000000000E+00 -0.00000000000E+00 -0.46019128423E+03  0.46019128423E+03  0.00000000000E+00 0.  1.
          6    2    1    2  501    0  0.68989147410E+02  0.78298610804E+02 -0.39714429113E+03  0.44503401978E+03  0.17158530202E+03 0.  0.
         24    2    3    3    0    0  0.91110996814E+02  0.13523369609E+00 -0.25795667594E+03  0.28380693780E+03  0.75521515159E+02 0.  0.
         -6    2    1    2    0  502 -0.68989147410E+02 -0.78298610804E+02  0.22028525187E+03  0.29848950942E+03  0.17227948262E+03 0.  0.
        -24    2    5    5    0    0 -0.19363499026E+02 -0.13721979555E+02  0.12292956727E+02  0.75071222082E+02  0.70152218656E+02 0.  0.
          5    1    3    3  501    0 -0.22121849404E+02  0.78163377108E+02 -0.13918761519E+03  0.16122708198E+03  0.47000000000E+01 0. -1.
        -11    1    4    4    0    0  0.20287682084E+02  0.31682593314E+02 -0.11745311602E+03  0.12333130676E+03  0.00000000000E+00 0.  1.
         12    1    4    4    0    0  0.70823314730E+02 -0.31547359617E+02 -0.14050355992E+03  0.16047563104E+03  0.00000000000E+00 0. -1.
         -5    1    5    5    0  502 -0.49625648384E+02 -0.64576631250E+02  0.20799229514E+03  0.22341828734E+03  0.47000000000E+01 0.  1.
         11    1    6    6    0    0 -0.53275589358E+01  0.27992322761E+02 -0.25858764368E+01  0.28611881706E+02  0.00000000000E+00 0. -1.
        -12    1    6    6    0    0 -0.14035940090E+02 -0.41714302316E+02  0.14878833164E+02  0.46459340377E+02  0.00000000000E+00 0.  1.
</event>
<event>
12    1  0.8500177E-002  0.1785076E+03  0.7818608E-02  0.1169504E+00
         21   -1    0    0  501  502  0.00000000000E+00  0.00000000000E+00  0.33611848888E+03  0.33611848888E+03  0.00000000000E+00 0. -1.
         21   -1    0    0  502  503 -0.00000000000E+00 -0.00000000000E+00 -0.19181714251E+03  0.19181714251E+03  0.00000000000E+00 0. -1.
         -6    2    1    2    0  503 -0.25807260493E+02  0.40316911338E+02 -0.11619621287E+03  0.21214465998E+03  0.17091614563E+03 0.  0.
        -24    2    3    3    0    0  0.29925715296E+02 -0.25930546884E+02 -0.74999479269E+02  0.11615428978E+03  0.79365958986E+02 0.  0.
          6    2    1    2  501    0  0.25807260493E+02 -0.40316911338E+02  0.26049755925E+03  0.31579097141E+03  0.17196944850E+03 0.  0.
         24    2    5    5    0    0  0.73685695340E+02  0.98774573166E+01  0.14661021582E+03  0.18235845604E+03  0.78948750737E+02 0.  0.
          5    1    5    5  501    0 -0.47878434846E+02 -0.50194368654E+02  0.11388734342E+03  0.13343251538E+03  0.47000000000E+01 0. -1.
        -13    1    6    6    0    0  0.15379877151E+02 -0.25689160998E+02  0.13698661012E+02  0.32926082784E+02  0.00000000000E+00 0.  1.
         14    1    6    6    0    0  0.58305818188E+02  0.35566618315E+02  0.13291155481E+03  0.14943237325E+03  0.00000000000E+00 0. -1.
         -5    1    3    3    0  503 -0.55732975789E+02  0.66247458221E+02 -0.41196733601E+02  0.95990370197E+02  0.47000000000E+01 0.  1.
         11    1    4    4    0    0  0.48011394976E+02  0.42397155258E+01 -0.62274491446E+02  0.78747581043E+02  0.00000000000E+00 0. -1.
        -12    1    4    4    0    0 -0.18085679680E+02 -0.30170262409E+02 -0.12724987823E+02  0.37406708736E+02  0.00000000000E+00 0.  1.
</event>
<event>
12    1  0.8500177E-002  0.2331106E+03  0.7818608E-02  0.1124513E+00
         21   -1    0    0  503  502  0.00000000000E+00  0.00000000000E+00  0.27872247377E+03  0.27872247377E+03  0.00000000000E+00 0. -1.
         21   -1    0    0  501  503 -0.00000000000E+00 -0.00000000000E+00 -0.23003514317E+03  0.23003514317E+03  0.00000000000E+00 0.  1.
          6    2    1    2  501    0 -0.44109680735E+02 -0.15009209539E+03 -0.75269707542E+02  0.24496135370E+03  0.17282139596E+03 0.  0.
         24    2    3    3    0    0 -0.35190021247E+02 -0.17111284764E+03 -0.30817845968E+02  0.19476682863E+03  0.80414138575E+02 0.  0.
         -6    2    1    2    0  502  0.44109680735E+02  0.15009209539E+03  0.12395703814E+03  0.26379626323E+03  0.17248136177E+03 0.  0.
        -24    2    5    5    0    0 -0.21003313234E+02  0.14481810089E+03  0.90940208960E+02  0.19044970223E+03  0.81163698548E+02 0.  0.
          5    1    3    3  501    0 -0.89196594880E+01  0.21020752242E+02 -0.44451861574E+02  0.50194525076E+02  0.47000000000E+01 0. -1.
        -11    1    4    4    0    0 -0.58385658501E+02 -0.99320149105E+02 -0.60899088950E+01  0.11537098477E+03  0.00000000000E+00 0.  1.
         12    1    4    4    0    0  0.23195637254E+02 -0.71792698531E+02 -0.24727937073E+02  0.79395843857E+02  0.00000000000E+00 0. -1.
         -5    1    5    5    0  502  0.65112993968E+02  0.52739945033E+01  0.33016829177E+02  0.73346560999E+02  0.47000000000E+01 0.  1.
         13    1    6    6    0    0  0.12155297374E+02  0.91488222791E+02  0.88094869577E+02  0.12758742967E+03  0.00000000000E+00 0. -1.
        -14    1    6    6    0    0 -0.33158610607E+02  0.53329878100E+02  0.28453393832E+01  0.62862272563E+02  0.00000000000E+00 0.  1.
</event>
<event>
12    1  0.8500177E-002  0.2323764E+03  0.7818608E-02  0.1125313E+00
         21   -1    0    0  503  502  0.00000000000E+00  0.00000000000E+00  0.29237868920E+03  0.29237868920E+03  0.00000000000E+00 0. -1.
         21   -1    0    0  501  503 -0.00000000000E+00 -0.00000000000E+00 -0.33831733706E+03  0.33831733706E+03  0.00000000000E+00 0.  1.
          6    2    1    2  501    0  0.56870349898E+02  0.14372889176E+03 -0.23657160977E+03  0.33160955418E+03  0.17351235935E+03 0.  0.
         24    2    3    3    0    0  0.52658520068E+02  0.17251313544E+02 -0.14805434765E+03  0.17710481964E+03  0.79846726455E+02 0.  0.
         -6    2    1    2    0  502 -0.56870349898E+02 -0.14372889176E+03  0.19063296191E+03  0.29908647208E+03  0.17093730018E+03 0.  0.
        -24    2    5    5    0    0 -0.73833218332E+02 -0.99160160256E+02  0.20209292469E+03  0.24981648649E+03  0.79263138972E+02 0.  0.
          5    1    3    3  501    0  0.42118298304E+01  0.12647757821E+03 -0.88517262119E+02  0.15450473454E+03  0.47000000000E+01 0. -1.
        -11    1    4    4    0    0  0.55928645180E+01  0.22804633706E+02 -0.11947898211E+03  0.12176435693E+03  0.00000000000E+00 0.  1.
         12    1    4    4    0    0  0.47065655550E+02 -0.55533201618E+01 -0.28575365543E+02  0.55340462711E+02  0.00000000000E+00 0. -1.
         -5    1    5    5    0  502  0.16962868433E+02 -0.44568731502E+02 -0.11459962785E+02  0.49269985592E+02  0.47000000000E+01 0.  1.
         13    1    6    6    0    0  0.15103547015E+02 -0.82871414831E+01  0.41833449703E+02  0.45241920388E+02  0.00000000000E+00 0. -1.
        -14    1    6    6    0    0 -0.88936765347E+02 -0.90873018773E+02  0.16025947499E+03  0.20457456610E+03  0.00000000000E+00 0.  1.
</event>
<event>
12    1  0.8500177E-002  0.1953970E+03  0.7818608E-02  0.1155293E+00
         21   -1    0    0  503  502  0.00000000000E+00  0.00000000000E+00  0.13456124066E+03  0.13456124066E+03  0.00000000000E+00 0.  1.
         21   -1    0    0  501  503 -0.00000000000E+00 -0.00000000000E+00 -0.27972646461E+03  0.27972646461E+03  0.00000000000E+00 0.  1.
          6    2    1    2  501    0 -0.21706439144E+02 -0.73307344803E+02 -0.10266539600E+03  0.21432211511E+03  0.17189720529E+03 0.  0.
         24    2    3    3    0    0 -0.84628107714E+01  0.27862255720E+02 -0.17278808436E+02  0.81191949111E+02  0.73794653733E+02 0.  0.
         -6    2    1    2    0  502  0.21706439144E+02  0.73307344803E+02 -0.42499827947E+02  0.19996559017E+03  0.17981898001E+03 0.  0.
        -24    2    5    5    0    0 -0.40864934000E+02  0.85683175680E+02 -0.14370065314E+02  0.13009634462E+03  0.87789581851E+02 0.  0.
          5    1    3    3  501    0 -0.13243628373E+02 -0.10116960052E+03 -0.85386587562E+02  0.13313016600E+03  0.47000000000E+01 0. -1.
        -11    1    4    4    0    0  0.14342662638E+02  0.18976184986E+02  0.23624547174E+02  0.33525017485E+02  0.00000000000E+00 0.  1.
         12    1    4    4    0    0 -0.22805473410E+02  0.88860707348E+01 -0.40903355610E+02  0.47666931627E+02  0.00000000000E+00 0. -1.
         -5    1    5    5    0  502  0.62571373144E+02 -0.12375830877E+02 -0.28129762633E+02  0.69869245544E+02  0.47000000000E+01 0.  1.
         13    1    6    6    0    0  0.97112613052E+01  0.51847302971E+02  0.24216989605E+02  0.58042346671E+02  0.00000000000E+00 0. -1.
        -14    1    6    6    0    0 -0.50576195305E+02  0.33835872709E+02 -0.38587054919E+02  0.72053997952E+02  0.00000000000E+00 0.  1.
</event>
<event>
12    1  0.8500177E-002  0.1938607E+03  0.7818608E-02  0.1155171E+00
         21   -1    0    0  503  502  0.00000000000E+00  0.00000000000E+00  0.47120617111E+03  0.47120617111E+03  0.00000000000E+00 0.  1.
         21   -1    0    0  501  503 -0.00000000000E+00 -0.00000000000E+00 -0.12187790523E+03  0.12187790523E+03  0.00000000000E+00 0.  1.
          6    2    1    2  501    0 -0.25791971604E+02  0.85844551281E+02 -0.34649919848E-01  0.19386070586E+03  0.17189374419E+03 0.  0.
         24    2    3    3    0    0 -0.58096995713E+02  0.40607562307E+02  0.44202105196E+02  0.12266393446E+03  0.89824159815E+02 0.  0.
         -6    2    1    2    0  502  0.25791971604E+02 -0.85844551281E+02  0.34936291580E+03  0.39922337048E+03  0.17114420768E+03 0.  0.
        -24    2    5    5    0    0 -0.49639765061E+02 -0.55901865313E+02  0.19317776739E+03  0.22314838100E+03  0.82996537921E+02 0.  0.
          5    1    3    3  501    0  0.32305024109E+02  0.45236988974E+02 -0.44236755116E+02  0.71196771397E+02  0.47000000000E+01 0. -1.
        -11    1    4    4    0    0 -0.22423746190E+02  0.44499935078E+02 -0.16207377997E+02  0.52399882792E+02  0.00000000000E+00 0.  1.
         12    1    4    4    0    0 -0.35673249523E+02 -0.38923727708E+01  0.60409483193E+02  0.70264051669E+02  0.00000000000E+00 0. -1.
         -5    1    5    5    0  502  0.75431736666E+02 -0.29942685968E+02  0.15618514841E+03  0.17607498949E+03  0.47000000000E+01 0.  1.
         13    1    6    6    0    0 -0.36771189349E+02 -0.51331013638E+02  0.53372693303E+02  0.82677915538E+02  0.00000000000E+00 0. -1.
        -14    1    6    6    0    0 -0.12868575712E+02 -0.45708516748E+01  0.13980507408E+03  0.14047046546E+03  0.00000000000E+00 0.  1.
</event>
<event>
12    1  0.8500177E-002  0.2224360E+03  0.7818608E-02  0.1132705E+00
         21   -1    0    0  503  502  0.00000000000E+00  0.00000000000E+00  0.58123245274E+02  0.58123245274E+02  0.00000000000E+00 0.  1.
         21   -1    0    0  501  503 -0.00000000000E+00 -0.00000000000E+00 -0.11091032466E+04  0.11091032466E+04  0.00000000000E+00 0.  1.
          6    2    1    2  501    0 -0.63248830181E+02  0.12534814489E+03 -0.81077986594E+03  0.83985229454E+03  0.16815264995E+03 0.  0.
         24    2    3    3    0    0 -0.62993343696E+02  0.70534720447E+01 -0.44854112775E+03  0.45875822697E+03  0.72471061159E+02 0.  0.
         -6    2    1    2    0  502  0.63248830181E+02 -0.12534814489E+03 -0.24020013541E+03  0.32737419736E+03  0.17252590558E+03 0.  0.
        -24    2    5    5    0    0  0.36119571847E+02 -0.12241394443E+03 -0.89259810398E+02  0.17391515427E+03  0.77391019315E+02 0.  0.
          5    1    3    3  501    0 -0.25548648477E+00  0.11829467285E+03 -0.36223873819E+03  0.38109406757E+03  0.47000000000E+01 0. -1.
        -11    1    4    4    0    0 -0.15103970736E+02  0.36207961017E+02 -0.15327062090E+03  0.15821197680E+03  0.00000000000E+00 0.  1.
         12    1    4    4    0    0 -0.47889372960E+02 -0.29154488972E+02 -0.29527050685E+03  0.30054625016E+03  0.00000000000E+00 0. -1.
         -5    1    5    5    0  502  0.27129258334E+02 -0.29342004587E+01 -0.15094032501E+03  0.15345904308E+03  0.47000000000E+01 0.  1.
         11    1    6    6    0    0  0.45457374088E+01 -0.16432757506E+02  0.14418985691E+02  0.22329496103E+02  0.00000000000E+00 0. -1.
        -12    1    6    6    0    0  0.31573834438E+02 -0.10598118693E+03 -0.10367879609E+03  0.15158565817E+03  0.00000000000E+00 0.  1.
</event>
<event>
12    1  0.8500177E-002  0.2635619E+03  0.7818608E-02  0.1105033E+00
         21   -1    0    0  501  502  0.00000000000E+00  0.00000000000E+00  0.20174941226E+04  0.20174941226E+04  0.00000000000E+00 0. -1.
         21   -1    0    0  502  503 -0.00000000000E+00 -0.00000000000E+00 -0.59739772855E+02  0.59739772855E+02  0.00000000000E+00 0. -1.
         -6    2    1    2    0  503  0.47333435043E+02 -0.19383617297E+03  0.30265172623E+03  0.40127758326E+03  0.17208345480E+03 0.  0.
        -24    2    3    3    0    0  0.76454639483E+02 -0.73836132181E+02  0.11084568571E+03  0.17311163156E+03  0.79898589637E+02 0.  0.
          6    2    1    2  501    0 -0.47333435043E+02  0.19383617297E+03  0.16551026235E+04  0.16759563122E+04  0.17219741572E+03 0.  0.
         24    2    5    5    0    0  0.83179668328E+01  0.93708086906E+02  0.49156405958E+03  0.50678276138E+03  0.79643885128E+02 0.  0.
          5    1    5    5  501    0 -0.55651401875E+02  0.10012808607E+03  0.11635385639E+04  0.11691735508E+04  0.47000000000E+01 0. -1.
        -13    1    6    6    0    0  0.86088631516E+01 -0.94001047413E+01  0.13527030009E+03  0.13586952779E+03  0.00000000000E+00 0.  1.
         14    1    6    6    0    0 -0.29089631877E+00  0.10310819165E+03  0.35629375949E+03  0.37091323359E+03  0.00000000000E+00 0. -1.
         -5    1    3    3    0  503 -0.29121204441E+02 -0.12000004079E+03  0.19180604052E+03  0.22816595171E+03  0.47000000000E+01 0.  1.
         13    1    4    4    0    0  0.76392063972E+02 -0.21606169958E+02  0.54581574439E+02  0.96341695472E+02  0.00000000000E+00 0. -1.
        -14    1    4    4    0    0  0.62575511701E-01 -0.52229962223E+02  0.56264111269E+02  0.76769936085E+02  0.00000000000E+00 0.  1.
</event>
<event>
12    1  0.8500177E-002  0.1892831E+03  0.7818608E-02  0.1159493E+00
         21   -1    0    0  501  502  0.00000000000E+00  0.00000000000E+00  0.10569931614E+03  0.10569931614E+03  0.00000000000E+00 0.  1.
         21   -1    0    0  502  503 -0.00000000000E+00 -0.00000000000E+00 -0.44016228392E+03  0.44016228392E+03  0.00000000000E+00 0.  1.
         -6    2    1    2    0  503  0.53973753228E+02  0.50074788909E+02 -0.29945928707E+03  0.35336914777E+03  0.17254923779E+03 0.  0.
        -24    2    3    3    0    0  0.84358633064E+02  0.66478057729E+02 -0.15460116305E+03  0.20437829488E+03  0.79581760907E+02 0.  0.
          6    2    1    2  501    0 -0.53973753228E+02 -0.50074788909E+02 -0.35003680701E+02  0.19249245229E+03  0.17437728064E+03 0.  0.
         24    2    5    5    0    0 -0.93605938199E+02 -0.28737557884E+02 -0.61914023796E+02  0.13984034807E+03  0.78320225392E+02 0.  0.
          5    1    5    5  501    0  0.39632184971E+02 -0.21337231026E+02  0.26910343095E+02  0.52652104222E+02  0.47000000000E+01 0. -1.
        -11    1    6    6    0    0 -0.58378543830E+02 -0.53552619359E+02 -0.54398872630E+02  0.96099816667E+02  0.00000000000E+00 0.  1.
         12    1    6    6    0    0 -0.35227394369E+02  0.24815061475E+02 -0.75151511657E+01  0.43740531399E+02  0.00000000000E+00 0. -1.
         -5    1    3    3    0  503 -0.30384879836E+02 -0.16403268820E+02 -0.14485812402E+03  0.14899085289E+03  0.47000000000E+01 0.  1.
         13    1    4    4    0    0  0.12281735923E+02  0.58796827276E+02 -0.57012712645E+02  0.82815199923E+02  0.00000000000E+00 0. -1.
        -14    1    4    4    0    0  0.72076897141E+02  0.76812304526E+01 -0.97588450406E+02  0.12156309496E+03  0.00000000000E+00 0.  1.
</event>
<event>
12    1  0.8500177E-002  0.2024530E+03  0.7818608E-02  0.1148067E+00
         21   -1    0    0  503  502  0.00000000000E+00  0.00000000000E+00  0.35847478439E+02  0.35847478439E+02  0.00000000000E+00 0. -1.
         21   -1    0    0  501  503 -0.00000000000E+00 -0.00000000000E+00 -0.12186382388E+04  0.12186382388E+04  0.00000000000E+00 0.  1.
          6    2    1    2  501    0  0.10184838969E+03  0.36395021473E+02 -0.42768545105E+03  0.47318291723E+03  0.17114185944E+03 0.  0.
         24    2    3    3    0    0 -0.37122384432E+01  0.85288218478E+01 -0.10463491640E+03  0.13215020732E+03  0.80179112295E+02 0.  0.
         -6    2    1    2    0  502 -0.10184838969E+03 -0.36395021473E+02 -0.75510530932E+03  0.78130280001E+03  0.16897439178E+03 0.  0.
        -24    2    5    5    0    0 -0.75862194933E+02 -0.21684627339E+02 -0.24308063147E+03  0.26838658976E+03  0.81962628587E+02 0.  0.
          5    1    3    3  501    0  0.10556062813E+03  0.27866199626E+02 -0.32305053465E+03  0.34103270991E+03  0.47000000000E+01 0. -1.
        -13    1    4    4    0    0  0.15055611952E+02 -0.31266285925E+02 -0.31865290731E+02  0.47113149334E+02  0.00000000000E+00 0.  1.
         14    1    4    4    0    0 -0.18767850395E+02  0.39795107772E+02 -0.72769625667E+02  0.85037057985E+02  0.00000000000E+00 0. -1.
         -5    1    5    5    0  502 -0.25986194754E+02 -0.14710394135E+02 -0.51202467784E+03  0.51291621025E+03  0.47000000000E+01 0.  1.
         13    1    6    6    0    0 -0.51557315929E+02 -0.53001140312E+02 -0.15082028727E+03  0.16797034486E+03  0.00000000000E+00 0. -1.
        -14    1    6    6    0    0 -0.24304879004E+02  0.31316512973E+02 -0.92260344208E+02  0.10041624491E+03  0.00000000000E+00 0.  1.
</event>
<event>
12    1  0.8500177E-002  0.2148098E+03  0.7818608E-02  0.1137895E+00
         21   -1    0    0  503  502  0.00000000000E+00  0.00000000000E+00  0.30519438925E+02  0.30519438925E+02  0.00000000000E+00 0. -1.
         21   -1    0    0  501  503 -0.00000000000E+00 -0.00000000000E+00 -0.15463133823E+04  0.15463133823E+04  0.00000000000E+00 0. -1.
          6    2    1    2  501    0 -0.12423755044E+03  0.27875962586E+02 -0.63605978431E+03  0.67135333772E+03  0.17300640629E+03 0.  0.
         24    2    3    3    0    0 -0.65742768512E+01 -0.63344315460E+01 -0.15659156500E+03  0.17645247861E+03  0.80815919463E+02 0.  0.
         -6    2    1    2    0  502  0.12423755044E+03 -0.27875962586E+02 -0.87973415910E+03  0.90547948355E+03  0.17247859636E+03 0.  0.
        -24    2    5    5    0    0  0.88489226621E+02  0.16388984381E+01 -0.41440680763E+03  0.43782501312E+03  0.11011226404E+03 0.  0.
          5    1    3    3  501    0 -0.11766327358E+03  0.34210394132E+02 -0.47946821931E+03  0.49490085911E+03  0.47000000000E+01 0. -1.
        -13    1    4    4    0    0  0.25002455411E+02  0.17817210775E+02 -0.26947662348E+02  0.40850364532E+02  0.00000000000E+00 0.  1.
         14    1    4    4    0    0 -0.31576732262E+02 -0.24151642321E+02 -0.12964390265E+03  0.13560211407E+03  0.00000000000E+00 0. -1.
         -5    1    5    5    0  502  0.35748323815E+02 -0.29514861024E+02 -0.46532735148E+03  0.46765447042E+03  0.47000000000E+01 0.  1.
         13    1    6    6    0    0  0.84575060725E+02  0.45346002403E+02 -0.31165488942E+03  0.32609503359E+03  0.00000000000E+00 0. -1.
        -14    1    6    6    0    0  0.39141658956E+01 -0.43707103965E+02 -0.10275191821E+03  0.11172997954E+03  0.00000000000E+00 0.  1.
</event>
<event>
12    1  0.8500177E-002  0.1847034E+03  0.7818608E-02  0.1164554E+00
         21   -1    0    0  501  502  0.00000000000E+00  0.00000000000E+00  0.93929958427E+03  0.93929958427E+03  0.00000000000E+00 0. -1.
         21   -1    0    0  502  503 -0.00000000000E+00 -0.00000000000E+00 -0.65207136123E+02  0.65207136123E+02  0.00000000000E+00 0. -1.
         -6    2    1    2    0  503 -0.54482404065E+02 -0.10655127404E+02  0.93631879209E+02  0.20248798967E+03  0.17074130450E+03 0.  0.
        -24    2    3    3    0    0 -0.86336456861E+02 -0.46541160698E+02  0.45861108377E+02  0.13461587013E+03  0.79988297931E+02 0.  0.
          6    2    1    2  501    0  0.54482404065E+02  0.10655127404E+02  0.78046056893E+03  0.80201873072E+03  0.17616322168E+03 0.  0.
         24    2    5    5    0    0  0.37525197607E+02  0.50904297768E+02  0.19341136970E+03  0.21332832406E+03  0.64043953131E+02 0.  0.
          5    1    5    5  501    0  0.16957206458E+02 -0.40249170364E+02  0.58704919924E+03  0.58869040666E+03  0.47000000000E+01 0. -1.
        -11    1    6    6    0    0 -0.77573729374E+01  0.14242404402E+02  0.63726898530E+01  0.17425099541E+02  0.00000000000E+00 0.  1.
         12    1    6    6    0    0  0.45282570545E+02  0.36661893366E+02  0.18703867984E+03  0.19590322452E+03  0.00000000000E+00 0. -1.
         -5    1    3    3    0  503  0.31854052796E+02  0.35886033294E+02  0.47770770832E+02  0.67872119541E+02  0.47000000000E+01 0.  1.
         13    1    4    4    0    0 -0.25743937294E+02 -0.49011388845E+02 -0.48374958450E+01  0.55572186478E+02  0.00000000000E+00 0. -1.
        -14    1    4    4    0    0 -0.60592519568E+02  0.24702281476E+01  0.50698604222E+02  0.79043683648E+02  0.00000000000E+00 0.  1.
</event>
<event>
12    1  0.8500177E-002  0.2326801E+03  0.7818608E-02  0.1124953E+00
         21   -1    0    0  501  502  0.00000000000E+00  0.00000000000E+00  0.73940100555E+03  0.73940100555E+03  0.00000000000E+00 0. -1.
         21   -1    0    0  502  503 -0.00000000000E+00 -0.00000000000E+00 -0.10773108024E+03  0.10773108024E+03  0.00000000000E+00 0. -1.
         -6    2    1    2    0  503  0.10492937267E+03 -0.11509725745E+03  0.75436031814E+02  0.24460295975E+03  0.17286544218E+03 0.  0.
        -24    2    3    3    0    0  0.75709251356E+01 -0.96305359191E+02  0.98225074702E+01  0.12561124859E+03  0.79684772719E+02 0.  0.
          6    2    1    2  501    0 -0.10492937267E+03  0.11509725745E+03  0.55623389350E+03  0.60252912605E+03  0.17142826938E+03 0.  0.
         24    2    5    5    0    0 -0.21758360237E+02  0.12272619915E+03  0.36568762300E+03  0.39442917588E+03  0.79446780743E+02 0.  0.
          5    1    5    5  501    0 -0.83171012437E+02 -0.76289416984E+01  0.19054627050E+03  0.20809995017E+03  0.47000000000E+01 0. -1.
        -11    1    6    6    0    0 -0.74841560213E+00  0.43038891160E+02  0.41001369173E+02  0.59447611830E+02  0.00000000000E+00 0.  1.
         12    1    6    6    0    0 -0.21009944635E+02  0.79687307990E+02  0.32468625382E+03  0.33498156405E+03  0.00000000000E+00 0. -1.
         -5    1    3    3    0  503  0.97358447539E+02 -0.18791898261E+02  0.65613524344E+02  0.11899171116E+03  0.47000000000E+01 0.  1.
         13    1    4    4    0    0  0.20139899094E+02 -0.97136642084E+02  0.28380230233E+02  0.10318226708E+03  0.00000000000E+00 0. -1.
        -14    1    4    4    0    0 -0.12568973958E+02  0.83128289351E+00 -0.18557722763E+02  0.22428981514E+02  0.00000000000E+00 0.  1.
</event>
<event>
12    1  0.8500177E-002  0.2251663E+03  0.7818608E-02  0.1130252E+00
         21   -1    0    0  501  502  0.00000000000E+00  0.00000000000E+00  0.22679243077E+02  0.22679243077E+02  0.00000000000E+00 0. -1.
         21   -1    0    0  502  503 -0.00000000000E+00 -0.00000000000E+00 -0.22578921073E+04  0.22578921073E+04  0.00000000000E+00 0.  1.
         -6    2    1    2    0  503 -0.54453399433E+01 -0.14570076314E+03 -0.98118773462E+03  0.10064917244E+04  0.17040497809E+03 0.  0.
        -24    2    3    3    0    0 -0.49097797947E+02 -0.13793536398E+03 -0.60148358328E+03  0.62417880142E+03  0.79874381291E+02 0.  0.
          6    2    1    2  501    0  0.54453399433E+01  0.14570076314E+03 -0.12540251296E+04  0.12740796260E+04  0.17158526630E+03 0.  0.
         24    2    5    5    0    0 -0.41753687988E+02  0.10081025044E+03 -0.51564146451E+03  0.53281352449E+03  0.78090043585E+02 0.  0.
          5    1    5    5  501    0  0.47199027932E+02  0.44890512700E+02 -0.73838366512E+03  0.74126610154E+03  0.47000000000E+01 0. -1.
        -13    1    6    6    0    0 -0.69157091972E+01  0.98970716342E+02 -0.37322669352E+03  0.38618802995E+03  0.00000000000E+00 0.  1.
         14    1    6    6    0    0 -0.34837978791E+02  0.18395341023E+01 -0.14241477099E+03  0.14662549454E+03  0.00000000000E+00 0. -1.
         -5    1    3    3    0  503  0.43652458003E+02 -0.77653991637E+01 -0.37970415133E+03  0.38231292295E+03  0.47000000000E+01 0.  1.
         13    1    4    4    0    0 -0.45125409823E+02 -0.26961349127E+02 -0.14056817421E+03  0.15007540957E+03  0.00000000000E+00 0. -1.
        -14    1    4    4    0    0 -0.39723881237E+01 -0.11097401485E+03 -0.46091540907E+03  0.47410339185E+03  0.00000000000E+00 0.  1.
</event>
<event>
12    1  0.8500177E-002  0.1919384E+03  0.7818608E-02  0.1157019E+00
         21   -1    0    0  503  502  0.00000000000E+00  0.00000000000E+00  0.64365861976E+02  0.64365861976E+02  0.00000000000E+00 0. -1.
         21   -1    0    0  501  503 -0.00000000000E+00 -0.00000000000E+00 -0.63338865753E+03  0.63338865753E+03  0.00000000000E+00 0.  1.
          6    2    1    2  501    0  0.73780580953E+02  0.39264243821E+02 -0.39710967377E+03  0.44106283679E+03  0.17278622060E+03 0.  0.
         24    2    3    3    0    0  0.44537933618E+02  0.29854013140E+02 -0.88068253500E+02  0.13046281376E+03  0.79935216695E+02 0.  0.
         -6    2    1    2    0  502 -0.73780580953E+02 -0.39264243821E+02 -0.17191312178E+03  0.25669168271E+03  0.17132204635E+03 0.  0.
        -24    2    5    5    0    0 -0.31260361837E+02 -0.90135686776E+02 -0.10601847545E+03  0.16309645229E+03  0.79113104867E+02 0.  0.
          5    1    3    3  501    0  0.29242647334E+02  0.94102306812E+01 -0.30904142027E+03  0.31060002303E+03  0.47000000000E+01 0. -1.
        -11    1    4    4    0    0 -0.21517417137E+02  0.42745638302E+01 -0.37443465498E+02  0.43396822979E+02  0.00000000000E+00 0.  1.
         12    1    4    4    0    0  0.66055350755E+02  0.25579449310E+02 -0.50624788001E+02  0.87065990780E+02  0.00000000000E+00 0. -1.
         -5    1    5    5    0  502 -0.42520219115E+02  0.50871442955E+02 -0.65894646336E+02  0.93595230421E+02  0.47000000000E+01 0.  1.
         11    1    6    6    0    0 -0.18602934046E+02 -0.10294413152E+02  0.85193076669E+01  0.22904643642E+02  0.00000000000E+00 0. -1.
        -12    1    6    6    0    0 -0.12657427792E+02 -0.79841273624E+02 -0.11453778311E+03  0.14019180865E+03  0.00000000000E+00 0.  1.
</event>
<event>
12    1  0.8500177E-002  0.2132802E+03  0.7818608E-02  0.1140109E+00
         21   -1    0    0  503  502  0.00000000000E+00  0.00000000000E+00  0.13545502029E+03  0.13545502029E+03  0.00000000000E+00 0.  1.
         21   -1    0    0  501  503 -0.00000000000E+00 -0.00000000000E+00 -0.34088134831E+03  0.34088134831E+03  0.00000000000E+00 0. -1.
          6    2    1    2  501    0 -0.11114129598E+03  0.31575261415E+02 -0.14951256664E+03  0.25584873947E+03  0.17249691331E+03 0.  0.
         24    2    3    3    0    0 -0.81705766948E+02  0.27342664976E+02 -0.15458648573E+02  0.11845547839E+03  0.79807749396E+02 0.  0.
         -6    2    1    2    0  502  0.11114129598E+03 -0.31575261415E+02 -0.55913761379E+02  0.22048762912E+03  0.17927370437E+03 0.  0.
        -24    2    5    5    0    0  0.42633834384E+02 -0.81574205292E+02 -0.53052981465E+02  0.13549680171E+03  0.84099759968E+02 0.  0.
          5    1    3    3  501    0 -0.29435529034E+02  0.42325964390E+01 -0.13405391807E+03  0.13739326109E+03  0.47000000000E+01 0. -1.
        -13    1    4    4    0    0  0.62223578892E+01 -0.15440259779E+01  0.18725562910E+02  0.19792636515E+02  0.00000000000E+00 0.  1.
         14    1    4    4    0    0 -0.87928124837E+02  0.28886690954E+02 -0.34184211483E+02  0.98662841872E+02  0.00000000000E+00 0. -1.
         -5    1    5    5    0  502  0.68507461598E+02  0.49998943877E+02 -0.28607799132E+01  0.84990827418E+02  0.47000000000E+01 0.  1.
         11    1    6    6    0    0  0.65661170080E+02 -0.39817595551E+02 -0.28954161146E+02  0.82068103544E+02  0.00000000000E+00 0. -1.
        -12    1    6    6    0    0 -0.23027335696E+02 -0.41756609741E+02 -0.24098820320E+02  0.53428698161E+02  0.00000000000E+00 0.  1.
</event>
<event>
12    1  0.8500177E-002  0.2127283E+03  0.7818608E-02  0.1139511E+00
         21   -1    0    0  501  502  0.00000000000E+00  0.00000000000E+00  0.94415374556E+02  0.94415374556E+02  0.00000000000E+00 0.  1.
         21   -1    0    0  502  503 -0.00000000000E+00 -0.00000000000E+00 -0.47840416727E+03  0.47840416727E+03  0.00000000000E+00 0. -1.
         -6    2    1    2    0  503  0.46379619178E+02 -0.11856507952E+03 -0.19629681413E+03  0.28912673454E+03  0.16986195052E+03 0.  0.
        -24    2    3    3    0    0  0.48556865393E+01 -0.81543221580E+02 -0.20289776485E+03  0.23290825451E+03  0.80036725071E+02 0.  0.
          6    2    1    2  501    0 -0.46379619178E+02  0.11856507952E+03 -0.18769197859E+03  0.28369280729E+03  0.17042471336E+03 0.  0.
         24    2    5    5    0    0 -0.84957534093E+02  0.10163544321E+03 -0.18507102280E+03  0.24122131669E+03  0.79930558778E+02 0.  0.
          5    1    5    5  501    0  0.38577914915E+02  0.16929636304E+02 -0.26209557892E+01  0.42471490600E+02  0.47000000000E+01 0. -1.
        -11    1    6    6    0    0  0.12685036969E+02 -0.12562066718E+01 -0.17988806486E+02  0.22047343987E+02  0.00000000000E+00 0.  1.
         12    1    6    6    0    0 -0.97642571062E+02  0.10289164988E+03 -0.16708221632E+03  0.21917397270E+03  0.00000000000E+00 0. -1.
         -5    1    3    3    0  503  0.41523932639E+02 -0.37021857937E+02  0.66009507222E+01  0.56218480034E+02  0.47000000000E+01 0.  1.
         11    1    4    4    0    0  0.73085209509E+01  0.34159897016E+01 -0.96001961312E+02  0.96340334439E+02  0.00000000000E+00 0. -1.
        -12    1    4    4    0    0 -0.24528344117E+01 -0.84959211282E+02 -0.10689580354E+03  0.13656792007E+03  0.00000000000E+00 0.  1.
</event>
<event>
12    1  0.8500177E-002  0.1923668E+03  0.7818608E-02  0.1158094E+00
         21   -1    0    0  503  502  0.00000000000E+00  0.00000000000E+00  0.62521549918E+02  0.62521549918E+02  0.00000000000E+00 0.  1.
         21   -1    0    0  501  503 -0.00000000000E+00 -0.00000000000E+00 -0.58039759352E+03  0.58039759352E+03  0.00000000000E+00 0.  1.
          6    2    1    2  501    0  0.56709012469E+02  0.43325310841E+02 -0.20747169749E+03  0.27773992539E+03  0.17029963665E+03 0.  0.
         24    2    3    3    0    0  0.84402135536E+02 -0.15956699799E+02 -0.12792431027E+03  0.17463249276E+03  0.82179934397E+02 0.  0.
         -6    2    1    2    0  502 -0.56709012469E+02 -0.43325310841E+02 -0.31040434612E+03  0.36517921805E+03  0.17863932533E+03 0.  0.
        -24    2    5    5    0    0 -0.28868761013E+02 -0.84282083900E+02 -0.12482354992E+03  0.17304681897E+03  0.80171116442E+02 0.  0.
          5    1    3    3  501    0 -0.27693123067E+02  0.59282010641E+02 -0.79547387216E+02  0.10310743263E+03  0.47000000000E+01 0. -1.
        -13    1    4    4    0    0  0.42268759589E+02 -0.80071244847E+01 -0.36564559185E+01  0.43175592059E+02  0.00000000000E+00 0.  1.
         14    1    4    4    0    0  0.42133375946E+02 -0.79495753146E+01 -0.12426785435E+03  0.13145690070E+03  0.00000000000E+00 0. -1.
         -5    1    5    5    0  502 -0.27840251456E+02  0.40956773059E+02 -0.18558079619E+03  0.19213239908E+03  0.47000000000E+01 0.  1.
         11    1    6    6    0    0  0.19094878420E+02 -0.34341423551E+01 -0.37443148481E+01  0.19759241111E+02  0.00000000000E+00 0. -1.
        -12    1    6    6    0    0 -0.47963639434E+02 -0.80847941545E+02 -0.12107923508E+03  0.15328757786E+03  0.00000000000E+00 0.  1.
</event>
<event>
12    1  0.8500177E-002  0.1876578E+03  0.7818608E-02  0.1161476E+00
         21   -1    0    0  503  502  0.00000000000E+00  0.00000000000E+00  0.75975208846E+03  0.75975208846E+03  0.00000000000E+00 0. -1.
         21   -1    0    0  501  503 -0.00000000000E+00 -0.00000000000E+00 -0.48353270940E+02  0.48353270940E+02  0.00000000000E+00 0. -1.
          6    2    1    2  501    0 -0.39914519900E+02  0.55640575764E+02  0.25262862996E+03  0.31243860612E+03  0.17060954061E+03 0.  0.
         24    2    3    3    0    0 -0.42054558555E+02 -0.26330063950E+02  0.17899775094E+03  0.20213284069E+03  0.79722219512E+02 0.  0.
         -6    2    1    2    0  502  0.39914519900E+02 -0.55640575764E+02  0.45877018756E+03  0.49566675328E+03  0.17471806645E+03 0.  0.
        -24    2    5    5    0    0  0.40021802660E+02  0.28595112252E+02  0.16128881018E+03  0.18645336008E+03  0.79569781098E+02 0.  0.
          5    1    3    3  501    0  0.21400386555E+01  0.81970639714E+02  0.73630879027E+02  0.11030576543E+03  0.47000000000E+01 0. -1.
        -13    1    4    4    0    0 -0.80619462291E+01  0.70646539997E+01  0.14040377319E+03  0.14081237105E+03  0.00000000000E+00 0.  1.
         14    1    4    4    0    0 -0.33992612326E+02 -0.33394717950E+02  0.38593977744E+02  0.61320469648E+02  0.00000000000E+00 0. -1.
         -5    1    5    5    0  502 -0.10728275982E+00 -0.84235688015E+02  0.29748137738E+03  0.30921339320E+03  0.47000000000E+01 0.  1.
         11    1    6    6    0    0 -0.46687374254E+01  0.23638933886E+02  0.12866172205E+03  0.13089856770E+03  0.00000000000E+00 0. -1.
        -12    1    6    6    0    0  0.44690540085E+02  0.49561783653E+01  0.32627088130E+02  0.55554792385E+02  0.00000000000E+00 0.  1.
</event>
<event>
12    1  0.8500177E-002  0.2367764E+03  0.7818608E-02  0.1122321E+00
         21   -1    0    0  503  502  0.00000000000E+00  0.00000000000E+00  0.56527883464E+02  0.56527883464E+02  0.00000000000E+00 0. -1.
         21   -1    0    0  501  503 -0.00000000000E+00 -0.00000000000E+00 -0.11812204838E+04  0.11812204838E+04  0.00000000000E+00 0. -1.
          6    2    1    2  501    0 -0.15994894061E+03 -0.14321088503E+01 -0.30666243718E+03  0.38614022873E+03  0.17168783103E+03 0.  0.
         24    2    3    3    0    0 -0.32034745273E+02 -0.24433104779E+02 -0.54501372963E+02  0.10241786533E+03  0.76784229960E+02 0.  0.
         -6    2    1    2    0  502  0.15994894061E+03  0.14321088503E+01 -0.81803016314E+03  0.85160813853E+03  0.17457765967E+03 0.  0.
        -24    2    5    5    0    0  0.15661785154E+03  0.46701782948E+02 -0.73357668300E+03  0.75561376445E+03  0.78148597081E+02 0.  0.
          5    1    3    3  501    0 -0.12791419533E+03  0.23000995929E+02 -0.25216106422E+03  0.28372236339E+03  0.47000000000E+01 0. -1.
        -13    1    4    4    0    0 -0.41441257956E+02 -0.99792109363E+01 -0.68178825318E+02  0.80407180859E+02  0.00000000000E+00 0.  1.
         14    1    4    4    0    0  0.94065126827E+01 -0.14453893843E+02  0.13677452355E+02  0.22010684474E+02  0.00000000000E+00 0. -1.
         -5    1    5    5    0  502  0.33310890713E+01 -0.45269674098E+02 -0.84453480141E+02  0.95994374081E+02  0.47000000000E+01 0.  1.
         13    1    6    6    0    0  0.23668445092E+01  0.25185305765E+02 -0.11217736575E+03  0.11499418666E+03  0.00000000000E+00 0. -1.
        -14    1    6    6    0    0  0.15425100703E+03  0.21516477183E+02 -0.62139931725E+03  0.64061957779E+03  0.00000000000E+00 0.  1.
</event>
<event>
12    1  0.8500177E-002  0.2435660E+03  0.7818608E-02  0.1117604E+00
         21   -1    0    0  503  502  0.00000000000E+00  0.00000000000E+00  0.49282305224E+03  0.49282305224E+03  0.00000000000E+00 0.  1.
         21   -1    0    0  501  503 -0.00000000000E+00 -0.00000000000E+00 -0.12659514802E+03  0.12659514802E+03  0.00000000000E+00 0.  1.
          6    2    1    2  501    0 -0.16992137528E+03 -0.11081997953E+02  0.25407251680E+03  0.35127046245E+03  0.17274839954E+03 0.  0.
         24    2    3    3    0    0 -0.10039675305E+03  0.53329131866E+02  0.19428830817E+03  0.23911562153E+03  0.80652522838E+02 0.  0.
         -6    2    1    2    0  502  0.16992137528E+03  0.11081997953E+02  0.11215538742E+03  0.26814773781E+03  0.17415020502E+03 0.  0.
        -24    2    5    5    0    0  0.11532606403E+03  0.57598814720E+02  0.12053511882E+03  0.19578219248E+03  0.84759822560E+02 0.  0.
          5    1    3    3  501    0 -0.69524622235E+02 -0.64411129818E+02  0.59784208627E+02  0.11215484092E+03  0.47000000000E+01 0. -1.
        -13    1    4    4    0    0 -0.35706561407E+02 -0.15366939987E+01  0.12370964675E+03  0.12876877205E+03  0.00000000000E+00 0.  1.
         14    1    4    4    0    0 -0.64690191640E+02  0.54865825864E+02  0.70578661415E+02  0.11034684948E+03  0.00000000000E+00 0. -1.
         -5    1    5    5    0  502  0.54595311249E+02 -0.46516816767E+02 -0.83797313976E+01  0.72365545329E+02  0.47000000000E+01 0.  1.
         11    1    6    6    0    0  0.51721546206E+02  0.27640406408E+02  0.11004699875E+03  0.12469744321E+03  0.00000000000E+00 0. -1.
        -12    1    6    6    0    0  0.63604517827E+02  0.29958408311E+02  0.10488120071E+02  0.71084749273E+02  0.00000000000E+00 0.  1.
</event>
<event>
12    1  0.8500177E-002  0.1914056E+03  0.7818608E-02  0.1157292E+00
         21   -1    0    0  501  502  0.00000000000E+00  0.00000000000E+00  0.34076655273E+02  0.34076655273E+02  0.00000000000E+00 0.  1.
         21   -1    0    0  502  503 -0.00000000000E+00 -0.00000000000E+00 -0.10728513897E+04  0.10728513897E+04  0.00000000000E+00 0.  1.
         -6    2    1    2    0  503 -0.40016576574E+02 -0.71099866806E+02 -0.52444788032E+03  0.55828457272E+03  0.17314608719E+03 0.  0.
        -24    2    3    3    0    0 -0.81135465848E+02 -0.34213304221E+02 -0.22722160843E+03  0.25593224801E+03  0.78218554272E+02 0.  0.
          6    2    1    2  501    0  0.40016576574E+02  0.71099866806E+02 -0.51432685415E+03  0.54864347230E+03  0.17268766409E+03 0.  0.
         24    2    5    5    0    0 -0.42471613760E+02  0.29165908513E+02 -0.31497333559E+03  0.32881018600E+03  0.79078746110E+02 0.  0.
          5    1    5    5  501    0  0.82488190334E+02  0.41933958293E+02 -0.19935351856E+03  0.21983328630E+03  0.47000000000E+01 0. -1.
        -11    1    6    6    0    0 -0.37650443070E+02  0.95477701864E+01 -0.51209561745E+02  0.64273906004E+02  0.00000000000E+00 0.  1.
         12    1    6    6    0    0 -0.48211706902E+01  0.19618138327E+02 -0.26376377385E+03  0.26453627999E+03  0.00000000000E+00 0. -1.
         -5    1    3    3    0  503  0.41118889275E+02 -0.36886562586E+02 -0.29722627189E+03  0.30235232471E+03  0.47000000000E+01 0.  1.
         13    1    4    4    0    0 -0.83045312564E+02 -0.24104934381E+02 -0.22962544149E+03  0.24536791800E+03  0.00000000000E+00 0. -1.
        -14    1    4    4    0    0  0.19098467162E+01 -0.10108369840E+02  0.24038330660E+01  0.10564330017E+02  0.00000000000E+00 0.  1.
</event>
<event>
12    1  0.8500177E-002  0.1869516E+03  0.7818608E-02  0.1161407E+00
         21   -1    0    0  503  502  0.00000000000E+00  0.00000000000E+00  0.76242874850E+03  0.76242874850E+03  0.00000000000E+00 0. -1.
         21   -1    0    0  501  503 -0.00000000000E+00 -0.00000000000E+00 -0.90707497264E+02  0.90707497264E+02  0.00000000000E+00 0. -1.
          6    2    1    2  501    0 -0.61897007501E+02 -0.36573994337E+02  0.35594324453E+02  0.19030991459E+03  0.17257465358E+03 0.  0.
         24    2    3    3    0    0  0.25568303292E+02  0.85766271699E+01 -0.66957607424E+01  0.83075123033E+02  0.78290141066E+02 0.  0.
         -6    2    1    2    0  502  0.61897007501E+02  0.36573994337E+02  0.63612692678E+03  0.66282633117E+03  0.17179168117E+03 0.  0.
        -24    2    5    5    0    0  0.96688114553E+02  0.34110013952E+02  0.58763448211E+03  0.60290889198E+03  0.87594308685E+02 0.  0.
          5    1    3    3  501    0 -0.87465310792E+02 -0.45150621507E+02  0.42290085195E+02  0.10723479156E+03  0.47000000000E+01 0. -1.
        -13    1    4    4    0    0  0.30089420644E+02  0.39532432319E+02  0.44145823555E+01  0.49876597489E+02  0.00000000000E+00 0.  1.
         14    1    4    4    0    0 -0.45211173518E+01 -0.30955805149E+02 -0.11110343098E+02  0.33198525544E+02  0.00000000000E+00 0. -1.
         -5    1    5    5    0  502 -0.34791107052E+02  0.24639803848E+01  0.48492444667E+02  0.59917439190E+02  0.47000000000E+01 0.  1.
         13    1    6    6    0    0 -0.10612361123E+02 -0.11435623210E+01  0.16806810748E+03  0.16840670621E+03  0.00000000000E+00 0. -1.
        -14    1    6    6    0    0  0.10730047568E+03  0.35253576273E+02  0.41956637463E+03  0.43450218577E+03  0.00000000000E+00 0.  1.
</event>
<event>
12    1  0.8500177E-002  0.1996159E+03  0.7818608E-02  0.1151176E+00
         21   -1    0    0  503  502  0.00000000000E+00  0.00000000000E+00  0.19173893818E+03  0.19173893818E+03  0.00000000000E+00 0.  1.
         21   -1    0    0  501  503 -0.00000000000E+00 -0.00000000000E+00 -0.20286242588E+03  0.20286242588E+03  0.00000000000E+00 0.  1.
          6    2    1    2  501    0 -0.56480463765E+02 -0.70240624800E+02 -0.14370490559E+02  0.19495904476E+03  0.17227515775E+03 0.  0.
         24    2    3    3    0    0 -0.76596420537E+02 -0.31890556807E+02 -0.61424187578E+02  0.13083791069E+03  0.80384132771E+02 0.  0.
         -6    2    1    2    0  502  0.56480463765E+02  0.70240624800E+02  0.32470028590E+01  0.19964231929E+03  0.17810874337E+03 0.  0.
        -24    2    5    5    0    0 -0.13947621016E+02 -0.97797978684E+01  0.33687579706E+02  0.88682408111E+02  0.80246718958E+02 0.  0.
          5    1    3    3  501    0  0.20115956772E+02 -0.38350067993E+02  0.47053697019E+02  0.64121134075E+02  0.47000000000E+01 0. -1.
        -11    1    4    4    0    0 -0.11009022514E+02 -0.45900446482E+02 -0.16018505461E+02  0.49846184219E+02  0.00000000000E+00 0.  1.
         12    1    4    4    0    0 -0.65587398023E+02  0.14009889675E+02 -0.45405682117E+02  0.80991726470E+02  0.00000000000E+00 0. -1.
         -5    1    5    5    0  502  0.70428084780E+02  0.80020422668E+02 -0.30440576847E+02  0.11095991118E+03  0.47000000000E+01 0.  1.
         13    1    6    6    0    0 -0.43142069552E+02 -0.14405224052E+02  0.37407949539E+02  0.58890604802E+02  0.00000000000E+00 0. -1.
        -14    1    6    6    0    0  0.29194448536E+02  0.46254261832E+01 -0.37203698326E+01  0.29791803309E+02  0.00000000000E+00 0.  1.
</event>
<event>
12    1  0.8500177E-002  0.1824276E+03  0.7818608E-02  0.1166113E+00
         21   -1    0    0  501  502  0.00000000000E+00  0.00000000000E+00  0.24838647299E+03  0.24838647299E+03  0.00000000000E+00 0.  1.
         21   -1    0    0  502  503 -0.00000000000E+00 -0.00000000000E+00 -0.13216602078E+03  0.13216602078E+03  0.00000000000E+00 0.  1.
         -6    2    1    2    0  503 -0.29739144158E+02  0.51152608251E+02  0.52475463849E+02  0.18982494370E+03  0.17256543373E+03 0.  0.
        -24    2    3    3    0    0 -0.59634905261E+02  0.68363421619E+02 -0.65910004675E+01  0.12126179153E+03  0.80194148517E+02 0.  0.
          6    2    1    2  501    0  0.29739144158E+02 -0.51152608251E+02  0.63744988360E+02  0.19072755008E+03  0.16974265460E+03 0.  0.
         24    2    5    5    0    0  0.59520123270E+02 -0.70435269171E+02  0.84107279183E+02  0.14955182159E+03  0.82388959887E+02 0.  0.
          5    1    5    5  501    0 -0.29780979111E+02  0.19282660919E+02 -0.20362290823E+02  0.41175728488E+02  0.47000000000E+01 0. -1.
        -11    1    6    6    0    0  0.37412476131E+02 -0.71985851884E+02  0.94942536094E+02  0.12488291077E+03  0.00000000000E+00 0.  1.
         12    1    6    6    0    0  0.22107647138E+02  0.15505827132E+01 -0.10835256910E+02  0.24668910820E+02  0.00000000000E+00 0. -1.
         -5    1    3    3    0  503  0.29895761103E+02 -0.17210813368E+02  0.59066464317E+02  0.68563152171E+02  0.47000000000E+01 0.  1.
         11    1    4    4    0    0 -0.24100128874E+01 -0.35623284310E+01 -0.26808642697E+02  0.27151457957E+02  0.00000000000E+00 0. -1.
        -12    1    4    4    0    0 -0.57224892374E+02  0.71925750050E+02  0.20217642229E+02  0.94110333571E+02  0.00000000000E+00 0.  1.
</event>
<event>
12    1  0.8500177E-002  0.1822706E+03  0.7818608E-02  0.1166940E+00
         21   -1    0    0  501  502  0.00000000000E+00  0.00000000000E+00  0.10656595208E+03  0.10656595208E+03  0.00000000000E+00 0. -1.
         21   -1    0    0  502  503 -0.00000000000E+00 -0.00000000000E+00 -0.34252576192E+03  0.34252576192E+03  0.00000000000E+00 0. -1.
         -6    2    1    2    0  503 -0.10769134654E+02  0.60800221811E+02 -0.19313217583E+03  0.26185719298E+03  0.16570006319E+03 0.  0.
        -24    2    3    3    0    0  0.14928854413E+02  0.91177401644E+02 -0.18360012842E+03  0.22067334148E+03  0.80321399508E+02 0.  0.
          6    2    1    2  501    0  0.10769134654E+02 -0.60800221811E+02 -0.42827634011E+02  0.18723452102E+03  0.17149320217E+03 0.  0.
         24    2    5    5    0    0  0.10717835242E+02 -0.10619225509E+03 -0.17657998875E+02  0.13511888181E+03  0.80954556772E+02 0.  0.
          5    1    5    5  501    0  0.51299412336E-01  0.45392033283E+02 -0.25169635136E+02  0.52115639209E+02  0.47000000000E+01 0. -1.
        -13    1    6    6    0    0 -0.22604441835E+02 -0.31709076675E+02 -0.34240093393E+02  0.51853739786E+02  0.00000000000E+00 0.  1.
         14    1    6    6    0    0  0.33322277076E+02 -0.74483178419E+02  0.16582094519E+02  0.83265142020E+02  0.00000000000E+00 0. -1.
         -5    1    3    3    0  503 -0.25697989067E+02 -0.30377179833E+02 -0.95320474083E+01  0.41183851501E+02  0.47000000000E+01 0.  1.
         13    1    4    4    0    0 -0.28903149446E+02  0.46063206982E+02 -0.11724730999E+03  0.12924450776E+03  0.00000000000E+00 0. -1.
        -14    1    4    4    0    0  0.43832003859E+02  0.45114194662E+02 -0.66352818435E+02  0.91428833726E+02  0.00000000000E+00 0.  1.
</event>
<event>
12    1  0.8500177E-002  0.1910438E+03  0.7818608E-02  0.1157728E+00
         21   -1    0    0  503  502  0.00000000000E+00  0.00000000000E+00  0.66478682954E+03  0.66478682954E+03  0.00000000000E+00 0.  1.
         21   -1    0    0  501  503 -0.00000000000E+00 -0.00000000000E+00 -0.91610933699E+02  0.91610933699E+02  0.00000000000E+00 0.  1.
          6    2    1    2  501    0  0.60828191595E+02  0.55254185779E+02  0.45920067111E+02  0.19559793158E+03  0.17145496299E+03 0.  0.
         24    2    3    3    0    0  0.41511127591E+02 -0.18908837632E+02 -0.22044664297E+02  0.93057219084E+02  0.78057420822E+02 0.  0.
         -6    2    1    2    0  502 -0.60828191595E+02 -0.55254185779E+02  0.52725582873E+03  0.56079983166E+03  0.17246636867E+03 0.  0.
        -24    2    5    5    0    0 -0.35412500452E+02  0.22031435935E+02  0.39952055120E+03  0.40928278376E+03  0.78462072953E+02 0.  0.
          5    1    3    3  501    0  0.19317064005E+02  0.74163023411E+02  0.67964731407E+02  0.10254071249E+03  0.47000000000E+01 0. -1.
        -13    1    4    4    0    0  0.59465252179E+02 -0.10298095867E+01 -0.29849475118E+02  0.66544480532E+02  0.00000000000E+00 0.  1.
         14    1    4    4    0    0 -0.17954124589E+02 -0.17879028045E+02  0.78048108210E+01  0.26512738552E+02  0.00000000000E+00 0. -1.
         -5    1    5    5    0  502 -0.25415691143E+02 -0.77285621714E+02  0.12773527753E+03  0.15151704791E+03  0.47000000000E+01 0.  1.
         13    1    6    6    0    0 -0.17837915822E+02  0.39802599718E+02  0.10493505957E+03  0.11363892341E+03  0.00000000000E+00 0. -1.
        -14    1    6    6    0    0 -0.17574584631E+02 -0.17771163783E+02  0.29458549162E+03  0.29564386035E+03  0.00000000000E+00 0.  1.
</event>
<event>
12    1  0.8500177E-002  0.2702258E+03  0.7818608E-02  0.1101208E+00
         21   -1    0    0  503  502  0.00000000000E+00  0.00000000000E+00  0.95364031293E+02  0.95364031293E+02  0.00000000000E+00 0. -1.
         21   -1    0    0  501  503 -0.00000000000E+00 -0.00000000000E+00 -0.10021663061E+04  0.10021663061E+04  0.00000000000E+00 0. -1.
          6    2    1    2  501    0  0.15043828597E+03 -0.14468163672E+03 -0.72033839804E+03  0.76921531213E+03  0.17099805506E+03 0.  0.
         24    2    3    3    0    0  0.14326269205E+03 -0.16245023176E+03 -0.71089012764E+03  0.74733902517E+03  0.78971945880E+02 0.  0.
         -6    2    1    2    0  502 -0.15043828597E+03  0.14468163672E+03 -0.18646387673E+03  0.32831502523E+03  0.17163194508E+03 0.  0.
        -24    2    5    5    0    0 -0.97091301282E+02  0.16761978094E+03 -0.12536512209E+03  0.24389223770E+03  0.79018339800E+02 0.  0.
          5    1    3    3  501    0  0.71755939216E+01  0.17768595034E+02 -0.94482703999E+01  0.21876286960E+02  0.47000000000E+01 0. -1.
        -11    1    4    4    0    0 -0.47701003949E+01 -0.30748405746E+02 -0.72172172944E+02  0.78594152843E+02  0.00000000000E+00 0.  1.
         12    1    4    4    0    0  0.14803279244E+03 -0.13170182601E+03 -0.63871795470E+03  0.66874487233E+03  0.00000000000E+00 0. -1.
         -5    1    5    5    0  502 -0.53346984687E+02 -0.22938144219E+02 -0.61098754638E+02  0.84422787526E+02  0.47000000000E+01 0.  1.
         11    1    6    6    0    0 -0.15849709420E+02  0.82806671734E+02 -0.21261424962E+02  0.86949447173E+02  0.00000000000E+00 0. -1.
        -12    1    6    6    0    0 -0.81241591862E+02  0.84813109210E+02 -0.10410369713E+03  0.15694279053E+03  0.00000000000E+00 0.  1.
</event>
<event>
12    1  0.8500177E-002  0.1819451E+03  0.7818608E-02  0.1166018E+00
         21   -1    0    0  501  502  0.00000000000E+00  0.00000000000E+00  0.63824950841E+03  0.63824950841E+03  0.00000000000E+00 0. -1.
         21   -1    0    0  502  503 -0.00000000000E+00 -0.00000000000E+00 -0.68387150362E+02  0.68387150362E+02  0.00000000000E+00 0. -1.
         -6    2    1    2    0  503  0.59561683174E+02  0.78504916529E+01  0.11095839138E+03  0.21310983293E+03  0.17174053672E+03 0.  0.
        -24    2    3    3    0    0 -0.16775664951E+02  0.33197356729E+02  0.16855031663E+02  0.89225263278E+02  0.79332011738E+02 0.  0.
          6    2    1    2  501    0 -0.59561683174E+02 -0.78504916529E+01  0.45890396667E+03  0.49352682584E+03  0.17136701223E+03 0.  0.
         24    2    5    5    0    0 -0.29444744509E+02  0.54577803956E+02  0.18713546283E+03  0.21301919356E+03  0.80695512359E+02 0.  0.
          5    1    5    5  501    0 -0.30116938665E+02 -0.62428295609E+02  0.27176850384E+03  0.28050763227E+03  0.47000000000E+01 0. -1.
        -13    1    6    6    0    0 -0.28843256108E+02  0.74588426177E+02  0.16375326757E+03  0.18223748073E+03  0.00000000000E+00 0.  1.
         14    1    6    6    0    0 -0.60148840080E+00 -0.20010622222E+02  0.23382195260E+02  0.30781712837E+02  0.00000000000E+00 0. -1.
         -5    1    3    3    0  503  0.76337348124E+02 -0.25346865077E+02  0.94103359719E+02  0.12388456965E+03  0.47000000000E+01 0.  1.
         11    1    4    4    0    0  0.51885933153E+01  0.55016462664E+02  0.18355202470E+02  0.58229254867E+02  0.00000000000E+00 0. -1.
        -12    1    4    4    0    0 -0.21964258266E+02 -0.21819105935E+02 -0.15001708070E+01  0.30996008411E+02  0.00000000000E+00 0.  1.
</event>
<event>
12    1  0.8500177E-002  0.3251068E+03  0.7818608E-02  0.1073457E+00
         21   -1    0    0  501  502  0.00000000000E+00  0.00000000000E+00  0.51824770462E+03  0.51824770462E+03  0.00000000000E+00 0. -1.
         21   -1    0    0  502  503 -0.00000000000E+00 -0.00000000000E+00 -0.68049565871E+03  0.68049565871E+03  0.00000000000E+00 0.  1.
         -6    2    1    2    0  503  0.12215538653E+03  0.24644447282E+03 -0.58313699121E+03  0.66764002402E+03  0.17331368819E+03 0.  0.
        -24    2    3    3    0    0  0.22665972416E+01  0.57008159834E+02 -0.22450313429E+03  0.24467457413E+03  0.78796714189E+02 0.  0.
          6    2    1    2  501    0 -0.12215538653E+03 -0.24644447282E+03  0.42088903712E+03  0.53110333931E+03  0.17107413249E+03 0.  0.
         24    2    5    5    0    0 -0.89684862358E+02 -0.60856322418E+02  0.17027014034E+03  0.21752843926E+03  0.81116180157E+02 0.  0.
          5    1    5    5  501    0 -0.32470524176E+02 -0.18558815040E+03  0.25061889678E+03  0.31357490004E+03  0.47000000000E+01 0. -1.
        -11    1    6    6    0    0 -0.60702852308E+02  0.65439569870E+01  0.90284782994E+02  0.10899083306E+03  0.00000000000E+00 0.  1.
         12    1    6    6    0    0 -0.28982010051E+02 -0.67400279405E+02  0.79985357345E+02  0.10853760620E+03  0.00000000000E+00 0. -1.
         -5    1    3    3    0  503  0.11988878929E+03  0.18943631299E+03 -0.35863385692E+03  0.42296544989E+03  0.47000000000E+01 0.  1.
         13    1    4    4    0    0  0.27802808312E+01 -0.16595874686E+02 -0.14732919589E+02  0.22365418345E+02  0.00000000000E+00 0. -1.
        -14    1    4    4    0    0 -0.51368358963E+00  0.73604034521E+02 -0.20977021470E+03  0.22230915578E+03  0.00000000000E+00 0.  1.
</event>
<event>
12    1  0.8500177E-002  0.2217397E+03  0.7818608E-02  0.1133101E+00
         21   -1    0    0  503  502  0.00000000000E+00  0.00000000000E+00  0.13469633217E+03  0.13469633217E+03  0.00000000000E+00 0.  1.
         21   -1    0    0  501  503 -0.00000000000E+00 -0.00000000000E+00 -0.68495182266E+03  0.68495182266E+03  0.00000000000E+00 0.  1.
          6    2    1    2  501    0 -0.95677540355E+02  0.10169671632E+03 -0.55626836422E+03  0.59782691212E+03  0.16871902673E+03 0.  0.
         24    2    3    3    0    0 -0.44363487816E+02  0.12425797288E+03 -0.46905454190E+03  0.49404597413E+03  0.81615552459E+02 0.  0.
         -6    2    1    2    0  502  0.95677540355E+02 -0.10169671632E+03  0.60128737252E+01  0.22182124272E+03  0.17225590043E+03 0.  0.
        -24    2    5    5    0    0 -0.99331043850E+00 -0.44521704295E+01  0.22626155863E+02  0.83619049385E+02  0.80370355255E+02 0.  0.
          5    1    3    3  501    0 -0.51314052539E+02 -0.22561256559E+02 -0.87213822324E+02  0.10378093799E+03  0.47000000000E+01 0. -1.
        -11    1    4    4    0    0 -0.54018989958E+02  0.10261907662E+03 -0.27363298661E+03  0.29719309804E+03  0.00000000000E+00 0.  1.
         12    1    4    4    0    0  0.96555021417E+01  0.21638896259E+02 -0.19542155529E+03  0.19685287609E+03  0.00000000000E+00 0. -1.
         -5    1    5    5    0  502  0.96670850794E+02 -0.97244545890E+02 -0.16613282138E+02  0.13820219333E+03  0.47000000000E+01 0.  1.
         11    1    6    6    0    0  0.32892724662E+02  0.15210614601E+02 -0.36848832209E+01  0.36426261084E+02  0.00000000000E+00 0. -1.
        -12    1    6    6    0    0 -0.33886035100E+02 -0.19662785030E+02  0.26311039084E+02  0.47192788301E+02  0.00000000000E+00 0.  1.
</event>
<event>
12    1  0.8500177E-002  0.2316675E+03  0.7818608E-02  0.1125687E+00
         21   -1    0    0  503  502  0.00000000000E+00  0.00000000000E+00  0.73375933885E+02  0.73375933885E+02  0.00000000000E+00 0. -1.
         21   -1    0    0  501  503 -0.00000000000E+00 -0.00000000000E+00 -0.90280280812E+03  0.90280280812E+03  0.00000000000E+00 0.  1.
          6    2    1    2  501    0 -0.15013793186E+03 -0.31136872348E+02 -0.63064739428E+03  0.67185263136E+03  0.17366323431E+03 0.  0.
         24    2    3    3    0    0 -0.13545109175E+03  0.33618510918E+02 -0.38437417886E+03  0.41674177395E+03  0.80330531248E+02 0.  0.
         -6    2    1    2    0  502  0.15013793186E+03  0.31136872348E+02 -0.19877947996E+03  0.30432611065E+03  0.17201801233E+03 0.  0.
        -24    2    5    5    0    0  0.11508264391E+03  0.63903023055E+02 -0.19989139154E+03  0.25609935260E+03  0.91119145642E+02 0.  0.
          5    1    3    3  501    0 -0.14686840115E+02 -0.64755383265E+02 -0.24627321542E+03  0.25511085740E+03  0.47000000000E+01 0. -1.
        -11    1    4    4    0    0 -0.15421088287E+02  0.31896868849E+02 -0.48513850430E+02  0.60073404181E+02  0.00000000000E+00 0.  1.
         12    1    4    4    0    0 -0.12003000346E+03  0.17216420682E+01 -0.33586032843E+03  0.35666836977E+03  0.00000000000E+00 0. -1.
         -5    1    5    5    0  502  0.35055287948E+02 -0.32766150707E+02  0.11119115767E+01  0.48226758057E+02  0.47000000000E+01 0.  1.
         11    1    6    6    0    0  0.12909297597E+03  0.48034150798E+02 -0.16151646877E+03  0.21227304533E+03  0.00000000000E+00 0. -1.
        -12    1    6    6    0    0 -0.14010332061E+02  0.15868872257E+02 -0.38374922769E+02  0.43826307267E+02  0.00000000000E+00 0.  1.
</event>
<event>
12    1  0.8500177E-002  0.1803533E+03  0.7818608E-02  0.1168718E+00
         21   -1    0    0  501  502  0.00000000000E+00  0.00000000000E+00  0.45800206512E+03  0.45800206512E+03  0.00000000000E+00 0. -1.
         21   -1    0    0  502  503 -0.00000000000E+00 -0.00000000000E+00 -0.88993827923E+02  0.88993827923E+02  0.00000000000E+00 0. -1.
         -6    2    1    2    0  503 -0.12058469882E+02  0.35835359972E+02  0.56994090320E+02  0.18914447088E+03  0.17634547007E+03 0.  0.
        -24    2    3    3    0    0 -0.22208419781E+02  0.53014331785E+02  0.10079477563E+03  0.14078406778E+03  0.79729753933E+02 0.  0.
          6    2    1    2  501    0  0.12058469882E+02 -0.35835359972E+02  0.31201414687E+03  0.35785142216E+03  0.17110006654E+03 0.  0.
         24    2    5    5    0    0 -0.54543723491E+02 -0.51829750129E+02  0.18726486520E+03  0.21545708956E+03  0.75447246013E+02 0.  0.
          5    1    5    5  501    0  0.66602193372E+02  0.15994390157E+02  0.12474928167E+03  0.14239433260E+03  0.47000000000E+01 0. -1.
        -13    1    6    6    0    0 -0.32012059324E+02 -0.64465530546E+02  0.16937646372E+03  0.18403522226E+03  0.00000000000E+00 0.  1.
         14    1    6    6    0    0 -0.22531664166E+02  0.12635780417E+02  0.17888401486E+02  0.31421867299E+02  0.00000000000E+00 0. -1.
         -5    1    3    3    0  503  0.10149949899E+02 -0.17178971814E+02 -0.43800685305E+02  0.48360403108E+02  0.47000000000E+01 0.  1.
         13    1    4    4    0    0  0.60842268418E+01 -0.18494016416E+02  0.10295698738E+02  0.22023802396E+02  0.00000000000E+00 0. -1.
        -14    1    4    4    0    0 -0.28292646623E+02  0.71508348202E+02  0.90499076888E+02  0.11876026538E+03  0.00000000000E+00 0.  1.
</event>
<event>
12    1  0.8500177E-002  0.1823638E+03  0.7818608E-02  0.1166392E+00
         21   -1    0    0  503  502  0.00000000000E+00  0.00000000000E+00  0.60567801063E+02  0.60567801063E+02  0.00000000000E+00 0. -1.
         21   -1    0    0  501  503 -0.00000000000E+00 -0.00000000000E+00 -0.10147903509E+04  0.10147903509E+04  0.00000000000E+00 0. -1.
          6    2    1    2  501    0 -0.44392198614E+02  0.24199257757E+02 -0.84300185167E+03  0.86175434636E+03  0.17149973811E+03 0.  0.
         24    2    3    3    0    0  0.78828084747E+01  0.27168804417E+02 -0.20993643839E+03  0.22650998230E+03  0.80207115115E+02 0.  0.
         -6    2    1    2    0  502  0.44392198614E+02 -0.24199257757E+02 -0.11122069816E+03  0.21360380560E+03  0.17521492715E+03 0.  0.
        -24    2    5    5    0    0 -0.22399518513E+02  0.38242568366E+02 -0.58593343684E+02  0.10800151602E+03  0.79163849535E+02 0.  0.
          5    1    3    3  501    0 -0.52275007089E+02 -0.29695466604E+01 -0.63306541328E+03  0.63524436405E+03  0.47000000000E+01 0. -1.
        -13    1    4    4    0    0 -0.15578133578E+02 -0.23958838694E+02 -0.78566500405E+02  0.83602626653E+02  0.00000000000E+00 0.  1.
         14    1    4    4    0    0  0.23460942053E+02  0.51127643111E+02 -0.13136993799E+03  0.14290735565E+03  0.00000000000E+00 0. -1.
         -5    1    5    5    0  502  0.66791717127E+02 -0.62441826123E+02 -0.52627354480E+02  0.10560228959E+03  0.47000000000E+01 0.  1.
         13    1    6    6    0    0  0.73907763108E+01  0.81660655574E+01  0.17644008128E+02  0.20799500570E+02  0.00000000000E+00 0. -1.
        -14    1    6    6    0    0 -0.29790294824E+02  0.30076502809E+02 -0.76237351811E+02  0.87202015447E+02  0.00000000000E+00 0.  1.
</event>
<event>
12    1  0.8500177E-002  0.1971386E+03  0.7818608E-02  0.1154031E+00
         21   -1    0    0  503  502  0.00000000000E+00  0.00000000000E+00  0.10558696961E+04  0.10558696961E+04  0.00000000000E+00 0. -1.
         21   -1    0    0  501  503 -0.00000000000E+00 -0.00000000000E+00 -0.37375630035E+02  0.37375630035E+02  0.00000000000E+00 0. -1.
          6    2    1    2  501    0  0.20573987915E+02  0.75141666903E+02  0.38941043232E+03  0.43646774600E+03  0.18109127371E+03 0.  0.
         24    2    3    3    0    0  0.14037900611E+02  0.10828303066E+03  0.37640133844E+03  0.39996573300E+03  0.79826954200E+02 0.  0.
         -6    2    1    2    0  502 -0.20573987915E+02 -0.75141666903E+02  0.62908363378E+03  0.65677758017E+03  0.17187499074E+03 0.  0.
        -24    2    5    5    0    0  0.45644571231E+02 -0.81233184367E+02  0.36741678034E+03  0.38675232885E+03  0.76811563397E+02 0.  0.
          5    1    3    3  501    0  0.65360873036E+01 -0.33141363758E+02  0.13009093879E+02  0.36502012993E+02  0.47000000000E+01 0. -1.
        -13    1    4    4    0    0 -0.30165604304E+02  0.67909840644E+02  0.23325076988E+03  0.24480120872E+03  0.00000000000E+00 0.  1.
         14    1    4    4    0    0  0.44203504916E+02  0.40373190018E+02  0.14315056855E+03  0.15516452428E+03  0.00000000000E+00 0. -1.
         -5    1    5    5    0  502 -0.66218559146E+02  0.60915174640E+01  0.26166685345E+03  0.27002525132E+03  0.47000000000E+01 0.  1.
         13    1    6    6    0    0 -0.41348422655E+01 -0.32280426794E+02  0.23322859284E+03  0.23548821497E+03  0.00000000000E+00 0. -1.
        -14    1    6    6    0    0  0.49779413496E+02 -0.48952757573E+02  0.13418818750E+03  0.15126411388E+03  0.00000000000E+00 0.  1.
</event>
<event>
12    1  0.8500177E-002  0.2156815E+03  0.7818608E-02  0.1137334E+00
         21   -1    0    0  501  502  0.00000000000E+00  0.00000000000E+00  0.35981929468E+03  0.35981929468E+03  0.00000000000E+00 0.  1.
         21   -1    0    0  502  503 -0.00000000000E+00 -0.00000000000E+00 -0.12970480849E+03  0.12970480849E+03  0.00000000000E+00 0. -1.
         -6    2    1    2    0  503  0.44693593322E+02  0.12367191770E+03  0.13696804906E+03  0.25549710675E+03  0.17095690856E+03 0.  0.
        -24    2    3    3    0    0  0.71882986919E+02  0.86541644129E+02  0.15272838073E+03  0.20662586374E+03  0.81924778349E+02 0.  0.
          6    2    1    2  501    0 -0.44693593322E+02 -0.12367191770E+03  0.93146437125E+02  0.23402699642E+03  0.16970596864E+03 0.  0.
         24    2    5    5    0    0 -0.16724467559E+02 -0.44904770341E+01  0.73139867927E+02  0.10989464525E+03  0.80171819087E+02 0.  0.
          5    1    5    5  501    0 -0.27969125762E+02 -0.11918144066E+03  0.20006569198E+02  0.12413235116E+03  0.47000000000E+01 0. -1.
        -11    1    6    6    0    0  0.20546186696E+02 -0.25882629571E+02  0.52946609847E+02  0.62413138004E+02  0.00000000000E+00 0.  1.
         12    1    6    6    0    0 -0.37270654255E+02  0.21392152536E+02  0.20193258080E+02  0.47481507249E+02  0.00000000000E+00 0. -1.
         -5    1    3    3    0  503 -0.27189393598E+02  0.37130273569E+02 -0.15760331669E+02  0.48871243015E+02  0.47000000000E+01 0.  1.
         13    1    4    4    0    0  0.51191084198E+01  0.40912800552E+02  0.97589351901E+01  0.42370972800E+02  0.00000000000E+00 0. -1.
        -14    1    4    4    0    0  0.66763878500E+02  0.45628843577E+02  0.14296944554E+03  0.16425489094E+03  0.00000000000E+00 0.  1.
</event>
<event>
12    1  0.8500177E-002  0.1732884E+03  0.7818608E-02  0.1176083E+00
         21   -1    0    0  503  502  0.00000000000E+00  0.00000000000E+00  0.53108140285E+03  0.53108140285E+03  0.00000000000E+00 0.  1.
         21   -1    0    0  501  503 -0.00000000000E+00 -0.00000000000E+00 -0.66019697638E+02  0.66019697638E+02  0.00000000000E+00 0.  1.
          6    2    1    2  501    0 -0.29314297830E+01  0.31179151685E+02  0.11147991849E+03  0.20605006926E+03  0.17043510799E+03 0.  0.
         24    2    3    3    0    0 -0.33649015007E+02  0.74007567696E+02  0.10013800723E+03  0.15193378510E+03  0.80292454663E+02 0.  0.
         -6    2    1    2    0  502  0.29314297830E+01 -0.31179151685E+02  0.35358178672E+03  0.39105103123E+03  0.16407344802E+03 0.  0.
        -24    2    5    5    0    0 -0.27501104142E+02 -0.47026244480E+01  0.88497456466E+02  0.12287396703E+03  0.80546797372E+02 0.  0.
          5    1    3    3  501    0  0.30717585224E+02 -0.42828416012E+02  0.11341911261E+02  0.54116284159E+02  0.47000000000E+01 0. -1.
        -11    1    4    4    0    0  0.24948775374E+02  0.38048676810E+02  0.38724094749E+02  0.59746955686E+02  0.00000000000E+00 0.  1.
         12    1    4    4    0    0 -0.58597790381E+02  0.35958890887E+02  0.61413912480E+02  0.92186829415E+02  0.00000000000E+00 0. -1.
         -5    1    5    5    0  502  0.30432533924E+02 -0.26476527237E+02  0.26508433026E+03  0.26817706420E+03  0.47000000000E+01 0.  1.
         11    1    6    6    0    0  0.27938287130E+02  0.55831526781E+01  0.35204078328E+02  0.45288482118E+02  0.00000000000E+00 0. -1.
        -12    1    6    6    0    0 -0.55439391272E+02 -0.10285777126E+02  0.53293378138E+02  0.77585484912E+02  0.00000000000E+00 0.  1.
</event>
<event>
12    1  0.8500177E-002  0.2332756E+03  0.7818608E-02  0.1124473E+00
         21   -1    0    0  501  502  0.00000000000E+00  0.00000000000E+00  0.20225399570E+03  0.20225399570E+03  0.00000000000E+00 0.  1.
         21   -1    0    0  502  503 -0.00000000000E+00 -0.00000000000E+00 -0.27517965199E+03  0.27517965199E+03  0.00000000000E+00 0.  1.
         -6    2    1    2    0  503  0.14372317918E+03  0.64076427338E+02  0.13016066803E+01  0.23327918180E+03  0.17220726381E+03 0.  0.
        -24    2    3    3    0    0  0.24736530294E+02  0.61305454640E+02  0.35282038576E+02  0.10941530227E+03  0.79728485651E+02 0.  0.
          6    2    1    2  501    0 -0.14372317918E+03 -0.64076427338E+02 -0.74227262975E+02  0.24415446589E+03  0.17128799103E+03 0.  0.
         24    2    5    5    0    0 -0.16935546597E+03 -0.33614382121E+02 -0.78028738478E+02  0.20388671774E+03  0.75300126852E+02 0.  0.
          5    1    5    5  501    0  0.25632286792E+02 -0.30462045217E+02  0.38014755027E+01  0.40267748149E+02  0.47000000000E+01 0. -1.
        -13    1    6    6    0    0 -0.84032583171E+02 -0.34909094597E+01 -0.76035905496E+02  0.11338042339E+03  0.00000000000E+00 0.  1.
         14    1    6    6    0    0 -0.85322882798E+02 -0.30123472661E+02 -0.19928329821E+01  0.90506294353E+02  0.00000000000E+00 0. -1.
         -5    1    3    3    0  503  0.11898664888E+03  0.27709726984E+01 -0.33980431896E+02  0.12386387954E+03  0.47000000000E+01 0.  1.
         11    1    4    4    0    0 -0.41320121419E+01  0.70577553180E+02  0.13236007573E+02  0.71926743522E+02  0.00000000000E+00 0. -1.
        -12    1    4    4    0    0  0.28868542436E+02 -0.92720985401E+01  0.22046031003E+02  0.37488558744E+02  0.00000000000E+00 0.  1.
</event>
<event>
12    1  0.8500177E-002  0.2167865E+03  0.7818608E-02  0.1136526E+00
         21   -1    0    0  501  502  0.00000000000E+00  0.00000000000E+00  0.12488748794E+03  0.12488748794E+03  0.00000000000E+00 0.  1.
         21   -1    0    0  502  503 -0.00000000000E+00 -0.00000000000E+00 -0.74373966327E+03  0.74373966327E+03  0.00000000000E+00 0.  1.
         -6    2    1    2    0  503  0.85777415940E+02 -0.10005478971E+03 -0.61511450218E+03  0.65180846736E+03  0.17064495684E+03 0.  0.
        -24    2    3    3    0    0  0.81044251560E+02 -0.36777442017E+02 -0.21042405689E+03  0.24214656763E+03  0.80224220442E+02 0.  0.
          6    2    1    2  501    0 -0.85777415940E+02  0.10005478971E+03 -0.37376731515E+01  0.21681868386E+03  0.17212682952E+03 0.  0.
         24    2    5    5    0    0 -0.35787131960E+02  0.62906944769E+02 -0.67789234548E+02  0.12735537633E+03  0.79912508694E+02 0.  0.
          5    1    5    5  501    0 -0.49990283980E+02  0.37147844940E+02  0.64051561397E+02  0.89463307526E+02  0.47000000000E+01 0. -1.
        -13    1    6    6    0    0 -0.54764876628E+02  0.20792854086E+02 -0.52601042896E+02  0.78729944792E+02  0.00000000000E+00 0.  1.
         14    1    6    6    0    0  0.18977744668E+02  0.42114090683E+02 -0.15188191652E+02  0.48625431540E+02  0.00000000000E+00 0. -1.
         -5    1    3    3    0  503  0.47331643803E+01 -0.63277347693E+02 -0.40469044529E+03  0.40966189973E+03  0.47000000000E+01 0.  1.
         11    1    4    4    0    0  0.18948201401E+02 -0.24009514163E+02 -0.10382368600E+02  0.32299917716E+02  0.00000000000E+00 0. -1.
        -12    1    4    4    0    0  0.62096050158E+02 -0.12767927854E+02 -0.20004168829E+03  0.20984664991E+03  0.00000000000E+00 0.  1.
</event>
<event>
12    1  0.8500177E-002  0.2980784E+03  0.7818608E-02  0.1086712E+00
         21   -1    0    0  501  502  0.00000000000E+00  0.00000000000E+00  0.47338337933E+03  0.47338337933E+03  0.00000000000E+00 0.  1.
         21   -1    0    0  502  503 -0.00000000000E+00 -0.00000000000E+00 -0.18575166630E+03  0.18575166630E+03  0.00000000000E+00 0. -1.
         -6    2    1    2    0  503  0.23833514093E+03  0.42549495339E+02  0.16098865170E+03  0.33526903707E+03  0.16695473125E+03 0.  0.
        -24    2    3    3    0    0  0.66552001284E+02  0.54612861341E+02  0.87325184116E+02  0.14791010795E+03  0.82704164062E+02 0.  0.
          6    2    1    2  501    0 -0.23833514093E+03 -0.42549495339E+02  0.12664306133E+03  0.32386600856E+03  0.17388682400E+03 0.  0.
         24    2    5    5    0    0 -0.11190100309E+03  0.30107848807E+02  0.18583925429E+02  0.14230734663E+03  0.80484169676E+02 0.  0.
          5    1    5    5  501    0 -0.12643413784E+03 -0.72657344146E+02  0.10805913590E+03  0.18155866193E+03  0.47000000000E+01 0. -1.
        -11    1    6    6    0    0 -0.20717877610E+02 -0.61941453958E+01  0.36612500328E+02  0.42521442475E+02  0.00000000000E+00 0.  1.
         12    1    6    6    0    0 -0.91183125478E+02  0.36301994203E+02 -0.18028574899E+02  0.99785904155E+02  0.00000000000E+00 0. -1.
         -5    1    3    3    0  503  0.17178313965E+03 -0.12063366001E+02  0.73663467580E+02  0.18735892912E+03  0.47000000000E+01 0.  1.
         11    1    4    4    0    0  0.19338178854E+02 -0.93147572343E+01 -0.87897199444E+01  0.23194590758E+02  0.00000000000E+00 0. -1.
        -12    1    4    4    0    0  0.47213822430E+02  0.63927618575E+02  0.96114904060E+02  0.12471551719E+03  0.00000000000E+00 0.  1.
</event>
<event>
12    1  0.8500177E-002  0.2112328E+03  0.7818608E-02  0.1140848E+00
         21   -1    0    0  503  502  0.00000000000E+00  0.00000000000E+00  0.54146517626E+03  0.54146517626E+03  0.00000000000E+00 0. -1.
         21   -1    0    0  501  503 -0.00000000000E+00 -0.00000000000E+00 -0.11922458279E+03  0.11922458279E+03  0.00000000000E+00 0.  1.
          6    2    1    2  501    0 -0.96245285894E+02  0.73553953128E+02  0.25847488429E+02  0.21152743956E+03  0.17147135607E+03 0.  0.
         24    2    3    3    0    0 -0.88098949773E+02  0.77431848625E+02  0.74747930307E+02  0.16158002640E+03  0.82241934037E+02 0.  0.
         -6    2    1    2    0  502  0.96245285894E+02 -0.73553953128E+02  0.39639310504E+03  0.44916231949E+03  0.17304900015E+03 0.  0.
        -24    2    5    5    0    0  0.18982235599E+02 -0.17326884651E+02  0.30649979457E+03  0.31788414371E+03  0.80297313462E+02 0.  0.
          5    1    3    3  501    0 -0.81463361218E+01 -0.38778954966E+01 -0.48900441878E+02  0.49947413162E+02  0.47000000000E+01 0. -1.
        -11    1    4    4    0    0 -0.49697171278E+02  0.64152605245E+02  0.55570585340E+01  0.81340312837E+02  0.00000000000E+00 0.  1.
         12    1    4    4    0    0 -0.38401778494E+02  0.13279243380E+02  0.69190871773E+02  0.80239713565E+02  0.00000000000E+00 0. -1.
         -5    1    5    5    0  502  0.77263050295E+02 -0.56227068477E+02  0.89893310468E+02  0.13127817578E+03  0.47000000000E+01 0.  1.
         13    1    6    6    0    0  0.42473895380E+02 -0.33007047505E+02  0.23338261303E+03  0.23950144266E+03  0.00000000000E+00 0. -1.
        -14    1    6    6    0    0 -0.23491659782E+02  0.15680162854E+02  0.73117181540E+02  0.78382701043E+02  0.00000000000E+00 0.  1.
</event>
<event>
12    1  0.8500177E-002  0.1768824E+03  0.7818608E-02  0.1170895E+00
         21   -1    0    0  501  502  0.00000000000E+00  0.00000000000E+00  0.29948933701E+03  0.29948933701E+03  0.00000000000E+00 0.  1.
         21   -1    0    0  502  503 -0.00000000000E+00 -0.00000000000E+00 -0.10465482513E+03  0.10465482513E+03  0.00000000000E+00 0.  1.
         -6    2    1    2    0  503  0.16252035113E+02 -0.36913633881E+02  0.86908866516E+02  0.19693573298E+03  0.17205751025E+03 0.  0.
        -24    2    3    3    0    0 -0.20895894874E+02  0.72350746654E+01  0.10509646997E+03  0.13625660899E+03  0.83854700317E+02 0.  0.
          6    2    1    2  501    0 -0.16252035113E+02  0.36913633881E+02  0.10792564536E+03  0.20720842916E+03  0.17222265582E+03 0.  0.
         24    2    5    5    0    0  0.59389031473E+02  0.12252021451E+02  0.66118480942E+02  0.11721012318E+03  0.75428047608E+02 0.  0.
          5    1    5    5  501    0 -0.75641066586E+02  0.24661612429E+02  0.41807164416E+02  0.89998305975E+02  0.47000000000E+01 0. -1.
        -13    1    6    6    0    0 -0.11705117531E+01  0.11610918133E+02  0.54255422546E+02  0.55496255669E+02  0.00000000000E+00 0.  1.
         14    1    6    6    0    0  0.60559543226E+02  0.64110331793E+00  0.11863058396E+02  0.61713867515E+02  0.00000000000E+00 0. -1.
         -5    1    3    3    0  503  0.37147929988E+02 -0.44148708546E+02 -0.18187603453E+02  0.60679123989E+02  0.47000000000E+01 0.  1.
         13    1    4    4    0    0 -0.13718361207E+02 -0.26913864467E+02  0.95357439026E+02  0.10002794966E+03  0.00000000000E+00 0. -1.
        -14    1    4    4    0    0 -0.71775336675E+01  0.34148939132E+02  0.97390309435E+01  0.36228659334E+02  0.00000000000E+00 0.  1.
</event>
<event>
12    1  0.8500177E-002  0.1735966E+03  0.7818608E-02  0.1174462E+00
         21   -1    0    0  501  502  0.00000000000E+00  0.00000000000E+00  0.90735021208E+02  0.90735021208E+02  0.00000000000E+00 0.  1.
         21   -1    0    0  502  503 -0.00000000000E+00 -0.00000000000E+00 -0.35524836288E+03  0.35524836288E+03  0.00000000000E+00 0.  1.
         -6    2    1    2    0  503  0.82863283656E+01  0.36242443809E+01 -0.19153086964E+03  0.25766925756E+03  0.17212662166E+03 0.  0.
        -24    2    3    3    0    0 -0.57483124195E+02  0.23811783300E+01 -0.76820123212E+02  0.12535217080E+03  0.80634085948E+02 0.  0.
          6    2    1    2  501    0 -0.82863283656E+01 -0.36242443809E+01 -0.72982472037E+02  0.18831412653E+03  0.17336081057E+03 0.  0.
         24    2    5    5    0    0 -0.29421185670E+02  0.59554629117E+02 -0.57565920575E+02  0.11977207879E+03  0.81358193377E+02 0.  0.
          5    1    5    5  501    0  0.21134857304E+02 -0.63178873498E+02 -0.15416551462E+02  0.68542047742E+02  0.47000000000E+01 0. -1.
        -11    1    6    6    0    0 -0.53035757775E+02  0.28248151241E+02 -0.15075323149E+02  0.61951715225E+02  0.00000000000E+00 0.  1.
         12    1    6    6    0    0  0.23614572105E+02  0.31306477876E+02 -0.42490597426E+02  0.57820363561E+02  0.00000000000E+00 0. -1.
         -5    1    3    3    0  503  0.65769452561E+02  0.12430660509E+01 -0.11471074642E+03  0.13231708676E+03  0.47000000000E+01 0.  1.
         11    1    4    4    0    0 -0.27721245196E+02  0.24239014142E+02  0.34607703820E+01  0.36986134881E+02  0.00000000000E+00 0. -1.
        -12    1    4    4    0    0 -0.29761879000E+02 -0.21857835812E+02 -0.80280893594E+02  0.88366035920E+02  0.00000000000E+00 0.  1.
</event>
<event>
12    1  0.8500177E-002  0.1928829E+03  0.7818608E-02  0.1156005E+00
         21   -1    0    0  503  502  0.00000000000E+00  0.00000000000E+00  0.78980128957E+03  0.78980128957E+03  0.00000000000E+00 0.  1.
         21   -1    0    0  501  503 -0.00000000000E+00 -0.00000000000E+00 -0.54157445773E+02  0.54157445773E+02  0.00000000000E+00 0.  1.
          6    2    1    2  501    0  0.14593905934E+02  0.85420155473E+02  0.21458995527E+03  0.28853537813E+03  0.17232013950E+03 0.  0.
         24    2    3    3    0    0  0.55603605820E+02  0.80751990214E+02  0.85229335430E+02  0.15266835778E+03  0.80193160227E+02 0.  0.
         -6    2    1    2    0  502 -0.14593905934E+02 -0.85420155473E+02  0.52105388852E+03  0.55542335721E+03  0.17172176897E+03 0.  0.
        -24    2    5    5    0    0 -0.42675602079E+02 -0.26639165723E+02  0.44619481055E+03  0.45607670166E+03  0.79908051349E+02 0.  0.
          5    1    3    3  501    0 -0.41009699886E+02  0.46681652588E+01  0.12936061984E+03  0.13586702035E+03  0.47000000000E+01 0. -1.
        -11    1    4    4    0    0 -0.21682200650E+01 -0.77252421196E+01 -0.83063136262E+01  0.11548826352E+02  0.00000000000E+00 0.  1.
         12    1    4    4    0    0  0.57771825885E+02  0.88477232334E+02  0.93535649056E+02  0.14111953143E+03  0.00000000000E+00 0. -1.
         -5    1    5    5    0  502  0.28081696145E+02 -0.58780989750E+02  0.74859077966E+02  0.99346655547E+02  0.47000000000E+01 0.  1.
         11    1    6    6    0    0 -0.28102196876E+02  0.26719989784E+02  0.20304458732E+03  0.20671428534E+03  0.00000000000E+00 0. -1.
        -12    1    6    6    0    0 -0.14573405203E+02 -0.53359155507E+02  0.24315022323E+03  0.24936241632E+03  0.00000000000E+00 0.  1.
</event>
<event>
12    1  0.8500177E-002  0.1820374E+03  0.7818608E-02  0.1166630E+00
         21   -1    0    0  501  502  0.00000000000E+00  0.00000000000E+00  0.56391895709E+03  0.56391895709E+03  0.00000000000E+00 0. -1.
         21   -1    0    0  502  503 -0.00000000000E+00 -0.00000000000E+00 -0.21704546621E+03  0.21704546621E+03  0.00000000000E+00 0. -1.
         -6    2    1    2    0  503 -0.24579788359E+02 -0.42155805716E+02 -0.16153555433E+03  0.24094832575E+03  0.17199151845E+03 0.  0.
        -24    2    3    3    0    0 -0.50179698950E+02  0.16987357329E+02 -0.14701352185E+03  0.17471956625E+03  0.78149719955E+02 0.  0.
          6    2    1    2  501    0  0.24579788359E+02  0.42155805716E+02  0.50840904521E+03  0.54001609755E+03  0.17537488533E+03 0.  0.
         24    2    5    5    0    0  0.44559222251E+02  0.84046894159E+02  0.27689180864E+03  0.30384590065E+03  0.81264093840E+02 0.  0.
          5    1    5    5  501    0 -0.19979433892E+02 -0.41891088443E+02  0.23151723658E+03  0.23617019689E+03  0.47000000000E+01 0. -1.
        -11    1    6    6    0    0  0.23312658198E+02  0.97142624788E+02  0.21345988548E+03  0.23568048772E+03  0.00000000000E+00 0.  1.
         12    1    6    6    0    0  0.21246564054E+02 -0.13095730629E+02  0.63431923159E+02  0.68165412934E+02  0.00000000000E+00 0. -1.
         -5    1    3    3    0  503  0.25599910591E+02 -0.59143163045E+02 -0.14522032480E+02  0.66228759497E+02  0.47000000000E+01 0.  1.
         11    1    4    4    0    0 -0.46987425401E+02  0.12221249692E+02 -0.28970628220E+02  0.56537371616E+02  0.00000000000E+00 0. -1.
        -12    1    4    4    0    0 -0.31922735490E+01  0.47661076365E+01 -0.11804289363E+03  0.11818219464E+03  0.00000000000E+00 0.  1.
</event>
<event>
12    1  0.8500177E-002  0.1812521E+03  0.7818608E-02  0.1167210E+00
         21   -1    0    0  503  502  0.00000000000E+00  0.00000000000E+00  0.42978629480E+03  0.42978629480E+03  0.00000000000E+00 0.  1.
         21   -1    0    0  501  503 -0.00000000000E+00 -0.00000000000E+00 -0.12726593856E+03  0.12726593856E+03  0.00000000000E+00 0.  1.
          6    2    1    2  501    0  0.32221319597E+02 -0.45830380727E+02 -0.25962281681E+02  0.18310205478E+03  0.17237657950E+03 0.  0.
         24    2    3    3    0    0 -0.21442236028E+02 -0.68308806998E+02  0.16025626216E+02  0.11119842998E+03  0.83560801426E+02 0.  0.
         -6    2    1    2    0  502 -0.32221319597E+02  0.45830380727E+02  0.32848263792E+03  0.37395017857E+03  0.16970343368E+03 0.  0.
        -24    2    5    5    0    0  0.58698261840E+01  0.43175463201E+02  0.32311898554E+03  0.33510635357E+03  0.77406807867E+02 0.  0.
          5    1    3    3  501    0  0.53663555625E+02  0.22478426271E+02 -0.41987907897E+02  0.71903624801E+02  0.47000000000E+01 0. -1.
        -11    1    4    4    0    0  0.23143112211E+02 -0.36834385528E+02 -0.17786911184E+02  0.46997338323E+02  0.00000000000E+00 0.  1.
         12    1    4    4    0    0 -0.44585348238E+02 -0.31474421470E+02  0.33812537400E+02  0.64201091656E+02  0.00000000000E+00 0. -1.
         -5    1    5    5    0  502 -0.38091145781E+02  0.26549175263E+01  0.53636523818E+01  0.38843825003E+02  0.47000000000E+01 0.  1.
         13    1    6    6    0    0  0.31399718068E+02  0.48032320031E+02  0.16107746889E+03  0.17099414331E+03  0.00000000000E+00 0. -1.
        -14    1    6    6    0    0 -0.25529891884E+02 -0.48568568307E+01  0.16204151665E+03  0.16411221026E+03  0.00000000000E+00 0.  1.
</event>
<event>
12    1  0.8500177E-002  0.1950797E+03  0.7818608E-02  0.1154229E+00
         21   -1    0    0  501  502  0.00000000000E+00  0.00000000000E+00  0.18610559793E+04  0.18610559793E+04  0.00000000000E+00 0.  1.
         21   -1    0    0  502  503 -0.00000000000E+00 -0.00000000000E+00 -0.72788827535E+02  0.72788827535E+02  0.00000000000E+00 0.  1.
         -6    2    1    2    0  503  0.90974444878E+02 -0.19584739538E+01  0.73984563188E+02  0.20863794872E+03  0.17255692630E+03 0.  0.
        -24    2    3    3    0    0  0.14497614341E+02 -0.25727238535E+01  0.98025681130E+02  0.12833135955E+03  0.81505238815E+02 0.  0.
          6    2    1    2  501    0 -0.90974444878E+02  0.19584739538E+01  0.17142825886E+04  0.17252068581E+04  0.17115409589E+03 0.  0.
         24    2    5    5    0    0  0.13995623680E+02 -0.11983204988E+02  0.96380867466E+03  0.96728451963E+03  0.79829229466E+02 0.  0.
          5    1    5    5  501    0 -0.10497006856E+03  0.13941678942E+02  0.75047391391E+03  0.75792233848E+03  0.47000000000E+01 0. -1.
        -11    1    6    6    0    0 -0.27983685247E+02  0.15242332066E+02  0.36286994147E+03  0.36426639942E+03  0.00000000000E+00 0.  1.
         12    1    6    6    0    0  0.41979308927E+02 -0.27225537054E+02  0.60093873319E+03  0.60301812021E+03  0.00000000000E+00 0. -1.
         -5    1    3    3    0  503  0.76476830537E+02  0.61424989972E+00 -0.24041117942E+02  0.80306589168E+02  0.47000000000E+01 0.  1.
         13    1    4    4    0    0  0.38430773684E+02  0.23978945557E+02  0.67688042689E+02  0.81446825101E+02  0.00000000000E+00 0. -1.
        -14    1    4    4    0    0 -0.23933159343E+02 -0.26551669411E+02  0.30337638441E+02  0.46884534452E+02  0.00000000000E+00 0.  1.
</event>
<event>
12    1  0.8500177E-002  0.2072960E+03  0.7818608E-02  0.1144306E+00
         21   -1    0    0  503  502  0.00000000000E+00  0.00000000000E+00  0.37670867413E+03  0.37670867413E+03  0.00000000000E+00 0.  1.
         21   -1    0    0  501  503 -0.00000000000E+00 -0.00000000000E+00 -0.15447525712E+03  0.15447525712E+03  0.00000000000E+00 0. -1.
          6    2    1    2  501    0  0.48405444823E+02 -0.99491960276E+02 -0.26763500527E+02  0.20901650910E+03  0.17529939780E+03 0.  0.
         24    2    3    3    0    0  0.74686750579E+02 -0.39546782568E+02 -0.65833670353E+02  0.13264439683E+03  0.78220234820E+02 0.  0.
         -6    2    1    2    0  502 -0.48405444823E+02  0.99491960276E+02  0.24899691754E+03  0.32216742214E+03  0.17190301247E+03 0.  0.
        -24    2    5    5    0    0 -0.58728146741E+02  0.12896831660E+03  0.17082306378E+03  0.23785458108E+03  0.85512927172E+02 0.  0.
          5    1    3    3  501    0 -0.26281305756E+02 -0.59945177708E+02  0.39070169826E+02  0.76372112272E+02  0.47000000000E+01 0. -1.
        -13    1    4    4    0    0  0.35691595027E+01 -0.67403428907E+01  0.17008869968E+02  0.18640621756E+02  0.00000000000E+00 0.  1.
         14    1    4    4    0    0  0.71117591076E+02 -0.32806439677E+02 -0.82842540321E+02  0.11400377508E+03  0.00000000000E+00 0. -1.
         -5    1    5    5    0  502  0.10322701918E+02 -0.29476356324E+02  0.78173853760E+02  0.84312841067E+02  0.47000000000E+01 0.  1.
         13    1    6    6    0    0 -0.37620746397E+02  0.68957545871E+02  0.31383678807E+02  0.84589591484E+02  0.00000000000E+00 0. -1.
        -14    1    6    6    0    0 -0.21107400343E+02  0.60010770729E+02  0.13943938498E+03  0.15326498959E+03  0.00000000000E+00 0.  1.
</event>
<event>
12    1  0.8500177E-002  0.2603827E+03  0.7818608E-02  0.1107363E+00
         21   -1    0    0  503  502  0.00000000000E+00  0.00000000000E+00  0.40921141120E+03  0.40921141120E+03  0.00000000000E+00 0.  1.
         21   -1    0    0  501  503 -0.00000000000E+00 -0.00000000000E+00 -0.17281667598E+03  0.17281667598E+03  0.00000000000E+00 0. -1.
          6    2    1    2  501    0 -0.12457979868E+03 -0.14899635706E+03  0.52338683034E+02  0.26559081025E+03  0.17343327273E+03 0.  0.
         24    2    3    3    0    0 -0.11815357144E+03 -0.74727645059E+02  0.87488674283E+02  0.18303931199E+03  0.79401726856E+02 0.  0.
         -6    2    1    2    0  502  0.12457979868E+03  0.14899635706E+03  0.18405605219E+03  0.31643727693E+03  0.16892566184E+03 0.  0.
        -24    2    5    5    0    0  0.12440727885E+03  0.16351806179E+03  0.11818925114E+03  0.24882488790E+03  0.75695430434E+02 0.  0.
          5    1    3    3  501    0 -0.64262272411E+01 -0.74268712004E+02 -0.35149991249E+02  0.82551498255E+02  0.47000000000E+01 0. -1.
        -13    1    4    4    0    0 -0.42986521790E+02 -0.41424253936E+02  0.80927217515E+02  0.10056353417E+03  0.00000000000E+00 0.  1.
         14    1    4    4    0    0 -0.75167049646E+02 -0.33303391123E+02  0.65614567682E+01  0.82475777824E+02  0.00000000000E+00 0. -1.
         -5    1    5    5    0  502  0.17251982528E+00 -0.14521704727E+02  0.65866801044E+02  0.67612389036E+02  0.47000000000E+01 0.  1.
         11    1    6    6    0    0  0.56641083567E+02  0.20542182963E+02  0.25272286173E+02  0.65336682476E+02  0.00000000000E+00 0. -1.
        -12    1    6    6    0    0  0.67766195285E+02  0.14297587883E+03  0.92916964969E+02  0.18348820542E+03  0.00000000000E+00 0.  1.
</event>
<event>
12    1  0.8500177E-002  0.1845513E+03  0.7818608E-02  0.1164039E+00
         21   -1    0    0  503  502  0.00000000000E+00  0.00000000000E+00  0.24431207675E+03  0.24431207675E+03  0.00000000000E+00 0.  1.
         21   -1    0    0  501  503 -0.00000000000E+00 -0.00000000000E+00 -0.14148785560E+03  0.14148785560E+03  0.00000000000E+00 0.  1.
          6    2    1    2  501    0  0.35340785558E+02 -0.48318701938E+02  0.19075638088E+02  0.18313516162E+03  0.17202017141E+03 0.  0.
         24    2    3    3    0    0  0.14278528300E+02  0.29175650761E+02 -0.20932361334E+02  0.93292391185E+02  0.84912964465E+02 0.  0.
         -6    2    1    2    0  502 -0.35340785558E+02  0.48318701938E+02  0.83748583060E+02  0.20266477073E+03  0.17457238055E+03 0.  0.
        -24    2    5    5    0    0  0.17259190038E+02 -0.55146494635E+01  0.96130282363E+02  0.12624367656E+03  0.79800649657E+02 0.  0.
          5    1    3    3  501    0  0.21062257258E+02 -0.77494352700E+02  0.40007999423E+02  0.89842770432E+02  0.47000000000E+01 0. -1.
        -13    1    4    4    0    0  0.36984910046E+02 -0.47108714187E+01 -0.34001068487E+02  0.50459375134E+02  0.00000000000E+00 0.  1.
         14    1    4    4    0    0 -0.22706381746E+02  0.33886522180E+02  0.13068707153E+02  0.42833016052E+02  0.00000000000E+00 0. -1.
         -5    1    5    5    0  502 -0.52599975596E+02  0.53833351402E+02 -0.12381699303E+02  0.76421094165E+02  0.47000000000E+01 0.  1.
         13    1    6    6    0    0  0.21856984602E+02  0.30223528876E+02  0.20721083397E+02  0.42667936097E+02  0.00000000000E+00 0. -1.
        -14    1    6    6    0    0 -0.45977945636E+01 -0.35738178340E+02  0.75409198966E+02  0.83575740467E+02  0.00000000000E+00 0.  1.
</event>
<event>
12    1  0.8500177E-002  0.2130989E+03  0.7818608E-02  0.1139146E+00
         21   -1    0    0  503  502  0.00000000000E+00  0.00000000000E+00  0.11330748815E+04  0.11330748815E+04  0.00000000000E+00 0.  1.
         21   -1    0    0  501  503 -0.00000000000E+00 -0.00000000000E+00 -0.40141519014E+02  0.40141519014E+02  0.00000000000E+00 0. -1.
          6    2    1    2  501    0  0.11866316087E+03 -0.42893655617E+02  0.52115141437E+03  0.56301499418E+03  0.17165743658E+03 0.  0.
         24    2    3    3    0    0  0.11469276493E+03 -0.68466564714E+02  0.28169816555E+03  0.32212147809E+03  0.81032643813E+02 0.  0.
         -6    2    1    2    0  502 -0.11866316087E+03  0.42893655617E+02  0.57178194815E+03  0.61020140636E+03  0.17172754194E+03 0.  0.
        -24    2    5    5    0    0 -0.13729289972E+03  0.78005986828E+01  0.52541478840E+03  0.54895931856E+03  0.79908972690E+02 0.  0.
          5    1    3    3  501    0  0.39703959411E+01  0.25572909096E+02  0.23945324882E+03  0.24089351609E+03  0.47000000000E+01 0. -1.
        -13    1    4    4    0    0  0.56360658954E+02 -0.35472424066E+02  0.22399770094E+03  0.23368736974E+03  0.00000000000E+00 0.  1.
         14    1    4    4    0    0  0.58332105973E+02 -0.32994140648E+02  0.57700464601E+02  0.88434108349E+02  0.00000000000E+00 0. -1.
         -5    1    5    5    0  502  0.18629738855E+02  0.35093056935E+02  0.46367159750E+02  0.61242087800E+02  0.47000000000E+01 0.  1.
         13    1    6    6    0    0 -0.12141839438E+03  0.16069309195E+02  0.31795253333E+03  0.34072637503E+03  0.00000000000E+00 0. -1.
        -14    1    6    6    0    0 -0.15874505340E+02 -0.82687105124E+01  0.20746225507E+03  0.20823294353E+03  0.00000000000E+00 0.  1.
</event>
<event>
12    1  0.8500177E-002  0.2177659E+03  0.7818608E-02  0.1136035E+00
         21   -1    0    0  501  502  0.00000000000E+00  0.00000000000E+00  0.59094993941E+03  0.59094993941E+03  0.00000000000E+00 0. -1.
         21   -1    0    0  502  503 -0.00000000000E+00 -0.00000000000E+00 -0.81096498260E+02  0.81096498260E+02  0.00000000000E+00 0. -1.
         -6    2    1    2    0  503  0.13401206782E+03  0.49631770497E+00  0.30600136699E+03  0.37557801180E+03  0.17164651379E+03 0.  0.
        -24    2    3    3    0    0  0.10014455150E+03 -0.11471973051E+02  0.85018234720E+02  0.15164524646E+03  0.74884198461E+02 0.  0.
          6    2    1    2  501    0 -0.13401206782E+03 -0.49631770497E+00  0.20385207416E+03  0.29646842586E+03  0.16845883397E+03 0.  0.
         24    2    5    5    0    0 -0.46042372757E+02 -0.46196465598E+02  0.15253894643E+03  0.18474422148E+03  0.81291350516E+02 0.  0.
          5    1    5    5  501    0 -0.87969695067E+02  0.45700147893E+02  0.51313127721E+02  0.11172420438E+03  0.47000000000E+01 0. -1.
        -11    1    6    6    0    0 -0.29452815060E+02 -0.57759034400E+02  0.54669592114E+02  0.84807656917E+02  0.00000000000E+00 0.  1.
         12    1    6    6    0    0 -0.16589557696E+02  0.11562568802E+02  0.97869354321E+02  0.99936564565E+02  0.00000000000E+00 0. -1.
         -5    1    3    3    0  503  0.33867516325E+02  0.11968290756E+02  0.22098313227E+03  0.22393276534E+03  0.47000000000E+01 0.  1.
         11    1    4    4    0    0  0.95553818689E+02  0.10056069903E+02  0.86903485629E+02  0.12955258632E+03  0.00000000000E+00 0. -1.
        -12    1    4    4    0    0  0.45907328103E+01 -0.21528042954E+02 -0.18852509090E+01  0.22092660142E+02  0.00000000000E+00 0.  1.
</event>
<event>
12    1  0.8500177E-002  0.2022800E+03  0.7818608E-02  0.1147920E+00
         21   -1    0    0  501  502  0.00000000000E+00  0.00000000000E+00  0.90925794216E+02  0.90925794216E+02  0.00000000000E+00 0.  1.
         21   -1    0    0  502  503 -0.00000000000E+00 -0.00000000000E+00 -0.70111756044E+03  0.70111756044E+03  0.00000000000E+00 0.  1.
         -6    2    1    2    0  503 -0.38964165026E+02  0.97890503625E+02 -0.54234572039E+03  0.57868851527E+03  0.17216492215E+03 0.  0.
        -24    2    3    3    0    0 -0.43200931205E+02  0.12670341014E+03 -0.33868249852E+03  0.37289995457E+03  0.80177719586E+02 0.  0.
          6    2    1    2  501    0  0.38964165026E+02 -0.97890503625E+02 -0.67846045835E+02  0.21335483939E+03  0.17267438924E+03 0.  0.
         24    2    5    5    0    0  0.79444671258E+02 -0.85775992143E+02 -0.12305641009E+02  0.14341015166E+03  0.82134439673E+02 0.  0.
          5    1    5    5  501    0 -0.40480506231E+02 -0.12114511481E+02 -0.55540404827E+02  0.69944687729E+02  0.47000000000E+01 0. -1.
        -13    1    6    6    0    0  0.82743008700E+02 -0.54049853729E+02 -0.34355988656E+02  0.10463329362E+03  0.00000000000E+00 0.  1.
         14    1    6    6    0    0 -0.32983374426E+01 -0.31726138414E+02  0.22050347648E+02  0.38776858046E+02  0.00000000000E+00 0. -1.
         -5    1    3    3    0  503  0.42367661783E+01 -0.28812906514E+02 -0.20366322188E+03  0.20578856070E+03  0.47000000000E+01 0.  1.
         11    1    4    4    0    0 -0.36719678903E+02  0.49601073763E+02 -0.70102311851E+02  0.93396656600E+02  0.00000000000E+00 0. -1.
        -12    1    4    4    0    0 -0.64812523017E+01  0.77102336376E+02 -0.26858018667E+03  0.27950329797E+03  0.00000000000E+00 0.  1.
</event>
<event>
12    1  0.8500177E-002  0.2116443E+03  0.7818608E-02  0.1142076E+00
         21   -1    0    0  501  502  0.00000000000E+00  0.00000000000E+00  0.46451285228E+03  0.46451285228E+03  0.00000000000E+00 0. -1.
         21   -1    0    0  502  503 -0.00000000000E+00 -0.00000000000E+00 -0.26723935239E+03  0.26723935239E+03  0.00000000000E+00 0. -1.
         -6    2    1    2    0  503  0.95063262718E+02  0.56882882159E+02 -0.19804336967E+03  0.28334530440E+03  0.16967822209E+03 0.  0.
        -24    2    3    3    0    0  0.24840293631E+02  0.36432648094E+02 -0.18785637767E+03  0.20934974868E+03  0.81196801684E+02 0.  0.
          6    2    1    2  501    0 -0.95063262718E+02 -0.56882882159E+02  0.39531686957E+03  0.44840690027E+03  0.18033478489E+03 0.  0.
         24    2    5    5    0    0 -0.95455665814E+02 -0.94682084729E+02  0.23940113342E+03  0.28790537232E+03  0.86603229863E+02 0.  0.
          5    1    5    5  501    0  0.39240309596E+00  0.37799202571E+02  0.15591573615E+03  0.16050152795E+03  0.47000000000E+01 0. -1.
        -11    1    6    6    0    0 -0.25153136627E+02 -0.15229998701E+01  0.44850843085E+01  0.25595229869E+02  0.00000000000E+00 0.  1.
         12    1    6    6    0    0 -0.70302529187E+02 -0.93159084859E+02  0.23491604911E+03  0.26231014245E+03  0.00000000000E+00 0. -1.
         -5    1    3    3    0  503  0.70222969087E+02  0.20450234064E+02 -0.10186992001E+02  0.73995555723E+02  0.47000000000E+01 0.  1.
         13    1    4    4    0    0  0.22507957996E+02  0.31701418166E+02 -0.24599901218E+02  0.46008077844E+02  0.00000000000E+00 0. -1.
        -14    1    4    4    0    0  0.23323356348E+01  0.47312299280E+01 -0.16325647645E+03  0.16334167083E+03  0.00000000000E+00 0.  1.
</event>
<event>
12    1  0.8500177E-002  0.1966854E+03  0.7818608E-02  0.1152781E+00
         21   -1    0    0  503  502  0.00000000000E+00  0.00000000000E+00  0.81741287643E+02  0.81741287643E+02  0.00000000000E+00 0.  1.
         21   -1    0    0  501  503 -0.00000000000E+00 -0.00000000000E+00 -0.48643257320E+03  0.48643257320E+03  0.00000000000E+00 0. -1.
          6    2    1    2  501    0  0.29796648424E+02  0.90388921580E+02 -0.25266195230E+03  0.31958168502E+03  0.17098653123E+03 0.  0.
         24    2    3    3    0    0  0.79061543957E+02  0.23126499742E+02 -0.15920003505E+03  0.19424819669E+03  0.74847498510E+02 0.  0.
         -6    2    1    2    0  502 -0.29796648424E+02 -0.90388921580E+02 -0.15202933326E+03  0.24859217582E+03  0.17212540285E+03 0.  0.
        -24    2    5    5    0    0  0.37168763496E+02 -0.79979512550E+01 -0.53676149742E+02  0.10378859474E+03  0.80283616903E+02 0.  0.
          5    1    3    3  501    0 -0.49264895533E+02  0.67262421838E+02 -0.93461917244E+02  0.12533348833E+03  0.47000000000E+01 0. -1.
        -13    1    4    4    0    0  0.69443844933E+02  0.44774471284E+02 -0.95483376457E+02  0.12627064606E+03  0.00000000000E+00 0.  1.
         14    1    4    4    0    0  0.96176990234E+01 -0.21647971542E+02 -0.63716658594E+02  0.67977550624E+02  0.00000000000E+00 0. -1.
         -5    1    5    5    0  502 -0.66965411920E+02 -0.82390970325E+02 -0.98353183518E+02  0.14480358108E+03  0.47000000000E+01 0.  1.
         11    1    6    6    0    0  0.23117729155E+02  0.31453372730E+02 -0.46507376987E+01  0.39311237815E+02  0.00000000000E+00 0. -1.
        -12    1    6    6    0    0  0.14051034341E+02 -0.39451323985E+02 -0.49025412043E+02  0.64477356926E+02  0.00000000000E+00 0.  1.
</event>
<event>
12    1  0.8500177E-002  0.2240158E+03  0.7818608E-02  0.1131885E+00
         21   -1    0    0  503  502  0.00000000000E+00  0.00000000000E+00  0.12289837284E+03  0.12289837284E+03  0.00000000000E+00 0.  1.
         21   -1    0    0  501  503 -0.00000000000E+00 -0.00000000000E+00 -0.10966250516E+04  0.10966250516E+04  0.00000000000E+00 0. -1.
          6    2    1    2  501    0  0.13577982146E+03 -0.45866024253E+02 -0.97114896020E+03  0.99549275129E+03  0.16533500194E+03 0.  0.
         24    2    3    3    0    0  0.25827035961E+02 -0.49557007045E+02 -0.61985133143E+03  0.62734148839E+03  0.78858970604E+02 0.  0.
         -6    2    1    2    0  502 -0.13577982146E+03  0.45866024253E+02 -0.25777185986E+01  0.22403067319E+03  0.17217214002E+03 0.  0.
        -24    2    5    5    0    0 -0.11753821696E+03  0.66514459091E+02  0.50359725132E+02  0.16416768843E+03  0.78584491433E+02 0.  0.
          5    1    3    3  501    0  0.10995278550E+03  0.36909827915E+01 -0.35129762877E+03  0.36815126290E+03  0.47000000000E+01 0. -1.
        -13    1    4    4    0    0  0.34875368988E+02 -0.26398614659E+01 -0.11415326620E+03  0.11939107343E+03  0.00000000000E+00 0.  1.
         14    1    4    4    0    0 -0.90483330266E+01 -0.46917145579E+02 -0.50569806523E+03  0.50795041496E+03  0.00000000000E+00 0. -1.
         -5    1    5    5    0  502 -0.18241604500E+02 -0.20648434838E+02 -0.52937443730E+02  0.59862984762E+02  0.47000000000E+01 0.  1.
         11    1    6    6    0    0 -0.30149970169E+02 -0.16662624156E+02  0.30651394273E+01  0.34584083400E+02  0.00000000000E+00 0. -1.
        -12    1    6    6    0    0 -0.87388246790E+02  0.83177083247E+02  0.47294585704E+02  0.12958360503E+03  0.00000000000E+00 0.  1.
</event>
<event>
12    1  0.8500177E-002  0.1737651E+03  0.7818608E-02  0.1174690E+00
         21   -1    0    0  501  502  0.00000000000E+00  0.00000000000E+00  0.80592563936E+02  0.80592563936E+02  0.00000000000E+00 0.  1.
         21   -1    0    0  502  503 -0.00000000000E+00 -0.00000000000E+00 -0.37288506343E+03  0.37288506343E+03  0.00000000000E+00 0.  1.
         -6    2    1    2    0  503 -0.83410588067E+01  0.92459514360E+01 -0.12085210855E+03  0.20937498292E+03  0.17052152489E+03 0.  0.
        -24    2    3    3    0    0  0.98671442110E+01 -0.59248430752E+02 -0.72881956932E+02  0.12366474727E+03  0.79833908772E+02 0.  0.
          6    2    1    2  501    0  0.83410588067E+01 -0.92459514360E+01 -0.17144039095E+03  0.24410264445E+03  0.17331829823E+03 0.  0.
         24    2    5    5    0    0  0.26627973327E+02 -0.45908167471E+02 -0.17793141799E+03  0.20235635408E+03  0.80448093359E+02 0.  0.
          5    1    5    5  501    0 -0.18286914521E+02  0.36662216035E+02  0.64910270460E+01  0.41746290367E+02  0.47000000000E+01 0. -1.
        -13    1    6    6    0    0  0.54615195776E+02 -0.19925524322E+02 -0.10412861507E+03  0.11925860390E+03  0.00000000000E+00 0.  1.
         14    1    6    6    0    0 -0.27987222449E+02 -0.25982643149E+02 -0.73802802925E+02  0.83097750180E+02  0.00000000000E+00 0. -1.
         -5    1    3    3    0  503 -0.18208203018E+02  0.68494382188E+02 -0.47970151619E+02  0.85710235648E+02  0.47000000000E+01 0.  1.
         11    1    4    4    0    0  0.36591662294E+02 -0.38336894321E+02 -0.72404424207E+02  0.89727742981E+02  0.00000000000E+00 0. -1.
        -12    1    4    4    0    0 -0.26724518083E+02 -0.20911536431E+02 -0.47753272420E+00  0.33937004290E+02  0.00000000000E+00 0.  1.
</event>
<event>
12    1  0.8500177E-002  0.2066587E+03  0.7818608E-02  0.1144626E+00
         21   -1    0    0  501  502  0.00000000000E+00  0.00000000000E+00  0.27392026193E+03  0.27392026193E+03  0.00000000000E+00 0.  1.
         21   -1    0    0  502  503 -0.00000000000E+00 -0.00000000000E+00 -0.18736238394E+03  0.18736238394E+03  0.00000000000E+00 0.  1.
         -6    2    1    2    0  503 -0.10575301569E+03 -0.31089694163E+02 -0.53173102485E+02  0.21338974714E+03  0.17480713929E+03 0.  0.
        -24    2    3    3    0    0 -0.52241002858E+00 -0.36828974964E+02 -0.63468382405E+02  0.10739681105E+03  0.78416791252E+02 0.  0.
          6    2    1    2  501    0  0.10575301569E+03  0.31089694163E+02  0.13973098048E+03  0.24789289873E+03  0.17255686866E+03 0.  0.
         24    2    5    5    0    0  0.41899529090E+02 -0.47835097862E+02  0.84227450049E+02  0.13209513348E+03  0.79442393098E+02 0.  0.
          5    1    5    5  501    0  0.63853486598E+02  0.78924792024E+02  0.55503530435E+02  0.11579776525E+03  0.47000000000E+01 0. -1.
        -11    1    6    6    0    0  0.48606209460E+02 -0.84789974440E+01  0.77106441128E+02  0.91541576670E+02  0.00000000000E+00 0.  1.
         12    1    6    6    0    0 -0.67066803692E+01 -0.39356100418E+02  0.71210089204E+01  0.40553556807E+02  0.00000000000E+00 0. -1.
         -5    1    3    3    0  503 -0.10523060566E+03  0.57392808018E+01  0.10295279920E+02  0.10599293609E+03  0.47000000000E+01 0.  1.
         11    1    4    4    0    0 -0.10916214405E+02  0.60316144453E+01  0.13692642947E+02  0.18521138751E+02  0.00000000000E+00 0. -1.
        -12    1    4    4    0    0  0.10393804376E+02 -0.42860589410E+02 -0.77161025352E+02  0.88875672303E+02  0.00000000000E+00 0.  1.
</event>
<event>
12    1  0.8500177E-002  0.2226762E+03  0.7818608E-02  0.1132196E+00
         21   -1    0    0  501  502  0.00000000000E+00  0.00000000000E+00  0.25978603911E+04  0.25978603911E+04  0.00000000000E+00 0. -1.
         21   -1    0    0  502  503 -0.00000000000E+00 -0.00000000000E+00 -0.25490225718E+02  0.25490225718E+02  0.00000000000E+00 0.  1.
         -6    2    1    2    0  503 -0.42958405114E+02 -0.13363410192E+03  0.61841041411E+03  0.65674354035E+03  0.17081317203E+03 0.  0.
        -24    2    3    3    0    0 -0.32851323464E+02 -0.33702854667E+02  0.45825702287E+03  0.46764143564E+03  0.80460682649E+02 0.  0.
          6    2    1    2  501    0  0.42958405114E+02  0.13363410192E+03  0.19539597513E+04  0.19666070765E+04  0.17286175368E+03 0.  0.
         24    2    5    5    0    0  0.80840988061E+02  0.40564299481E+02  0.11813565691E+04  0.11874826671E+04  0.79567666235E+02 0.  0.
          5    1    5    5  501    0 -0.37882582947E+02  0.93069802440E+02  0.77260318220E+03  0.77912440942E+03  0.47000000000E+01 0. -1.
        -13    1    6    6    0    0  0.45869836389E+02  0.38803013278E+02  0.33120200435E+03  0.33660731337E+03  0.00000000000E+00 0.  1.
         14    1    6    6    0    0  0.34971151672E+02  0.17612862037E+01  0.85015456476E+03  0.85087535372E+03  0.00000000000E+00 0. -1.
         -5    1    3    3    0  503 -0.10107081650E+02 -0.99931247254E+02  0.16015339124E+03  0.18910210470E+03  0.47000000000E+01 0.  1.
         13    1    4    4    0    0  0.23894260916E+02 -0.26892984437E+02  0.18698876094E+03  0.19041786953E+03  0.00000000000E+00 0. -1.
        -14    1    4    4    0    0 -0.56745584381E+02 -0.68098702298E+01  0.27126826193E+03  0.27722356612E+03  0.00000000000E+00 0.  1.
</event>
<event>
12    1  0.8500177E-002  0.1947771E+03  0.7818608E-02  0.1155433E+00
         21   -1    0    0  503  502  0.00000000000E+00  0.00000000000E+00  0.29246542926E+03  0.29246542926E+03  0.00000000000E+00 0. -1.
         21   -1    0    0  501  503 -0.00000000000E+00 -0.00000000000E+00 -0.29671730407E+03  0.29671730407E+03  0.00000000000E+00 0. -1.
          6    2    1    2  501    0  0.64581536925E+02 -0.63913949662E+02 -0.22548794884E+03  0.29442261060E+03  0.16608458895E+03 0.  0.
         24    2    3    3    0    0 -0.78433566380E+01 -0.69645952980E+02 -0.81216692115E+02  0.13282277586E+03  0.78317697230E+02 0.  0.
         -6    2    1    2    0  502 -0.64581536925E+02  0.63913949662E+02  0.22123607403E+03  0.29476012273E+03  0.17228569769E+03 0.  0.
        -24    2    5    5    0    0 -0.60565217628E+02  0.25529810700E+02  0.46614953416E+02  0.11586322866E+03  0.83255132294E+02 0.  0.
          5    1    3    3  501    0  0.72424893563E+02  0.57320033183E+01 -0.14427125672E+03  0.16159983473E+03  0.47000000000E+01 0. -1.
        -13    1    4    4    0    0 -0.18101303827E+02  0.98237794719E+01 -0.34188223948E+02  0.39912385297E+02  0.00000000000E+00 0.  1.
         14    1    4    4    0    0  0.10257947189E+02 -0.79469732452E+02 -0.47028468166E+02  0.92910390563E+02  0.00000000000E+00 0. -1.
         -5    1    5    5    0  502 -0.40163192970E+01  0.38384138962E+02  0.17462112061E+03  0.17889689407E+03  0.47000000000E+01 0.  1.
         11    1    6    6    0    0 -0.75811279013E+02  0.34639233384E+02  0.50807777005E+02  0.97614838622E+02  0.00000000000E+00 0. -1.
        -12    1    6    6    0    0  0.15246061385E+02 -0.91094226841E+01 -0.41928235891E+01  0.18248390040E+02  0.00000000000E+00 0.  1.
</event>
<event>
12    1  0.8500177E-002  0.2036063E+03  0.7818608E-02  0.1147890E+00
         21   -1    0    0  501  502  0.00000000000E+00  0.00000000000E+00  0.56162644677E+03  0.56162644677E+03  0.00000000000E+00 0. -1.
         21   -1    0    0  502  503 -0.00000000000E+00 -0.00000000000E+00 -0.17062285778E+03  0.17062285778E+03  0.00000000000E+00 0. -1.
         -6    2    1    2    0  503 -0.66851982884E+02  0.73211597189E+02 -0.81962471146E+02  0.21948433768E+03  0.17783813492E+03 0.  0.
        -24    2    3    3    0    0 -0.43417378079E+02  0.11574885005E+03 -0.84200237710E+02  0.17064074872E+03  0.82132332767E+02 0.  0.
          6    2    1    2  501    0  0.66851982884E+02 -0.73211597189E+02  0.47296606013E+03  0.51276496687E+03  0.17146979803E+03 0.  0.
         24    2    5    5    0    0  0.39291201730E+02  0.26758790317E+02  0.25178689933E+03  0.26843734623E+03  0.80013341289E+02 0.  0.
          5    1    5    5  501    0  0.27560781153E+02 -0.99970387505E+02  0.22117916080E+03  0.24432762064E+03  0.47000000000E+01 0. -1.
        -11    1    6    6    0    0  0.12254524530E+02  0.24023531408E+02  0.16562348110E+02  0.31648298654E+02  0.00000000000E+00 0.  1.
         12    1    6    6    0    0  0.27036677201E+02  0.27352589084E+01  0.23522455122E+03  0.23678904758E+03  0.00000000000E+00 0. -1.
         -5    1    3    3    0  503 -0.23434604805E+02 -0.42537252862E+02  0.22377665640E+01  0.48843588961E+02  0.47000000000E+01 0.  1.
         11    1    4    4    0    0 -0.53698745867E+02  0.76596729365E+02 -0.89925543900E+02  0.12975830495E+03  0.00000000000E+00 0. -1.
        -12    1    4    4    0    0  0.10281367789E+02  0.39152120685E+02  0.57253061900E+01  0.40882443771E+02  0.00000000000E+00 0.  1.
</event>
<event>
12    1  0.8500177E-002  0.1996561E+03  0.7818608E-02  0.1150352E+00
         21   -1    0    0  501  502  0.00000000000E+00  0.00000000000E+00  0.14714936981E+04  0.14714936981E+04  0.00000000000E+00 0. -1.
         21   -1    0    0  502  503 -0.00000000000E+00 -0.00000000000E+00 -0.28016367819E+02  0.28016367819E+02  0.00000000000E+00 0.  1.
         -6    2    1    2    0  503 -0.10615264768E+02  0.98486544857E+02  0.56839245123E+03  0.60193772062E+03  0.17160057553E+03 0.  0.
        -24    2    3    3    0    0  0.25000516677E+01  0.13595925044E+03  0.46037799096E+03  0.48676207729E+03  0.80611768891E+02 0.  0.
          6    2    1    2  501    0  0.10615264768E+02 -0.98486544857E+02  0.87508487902E+03  0.89757234527E+03  0.17335018357E+03 0.  0.
         24    2    5    5    0    0  0.35817194179E+02 -0.10344853028E+03  0.41329854865E+03  0.43504833134E+03  0.80416978752E+02 0.  0.
          5    1    5    5  501    0 -0.25201929412E+02  0.49619854196E+01  0.46178633037E+03  0.46252401393E+03  0.47000000000E+01 0. -1.
        -13    1    6    6    0    0 -0.21854168924E+02 -0.15563281890E+02  0.48729408363E+02  0.55627112831E+02  0.00000000000E+00 0.  1.
         14    1    6    6    0    0  0.57671363103E+02 -0.87885248386E+02  0.36456914028E+03  0.37942121851E+03  0.00000000000E+00 0. -1.
         -5    1    3    3    0  503 -0.13115316435E+02 -0.37472705588E+02  0.10801446027E+03  0.11517564333E+03  0.47000000000E+01 0.  1.
         13    1    4    4    0    0 -0.28121109229E+02  0.38630095984E+02  0.22827787391E+03  0.23322493181E+03  0.00000000000E+00 0. -1.
        -14    1    4    4    0    0  0.30621160896E+02  0.97329154460E+02  0.23210011705E+03  0.25353714548E+03  0.00000000000E+00 0.  1.
</event>
<event>
12    1  0.8500177E-002  0.1814456E+03  0.7818608E-02  0.1166439E+00
         21   -1    0    0  501  502  0.00000000000E+00  0.00000000000E+00  0.59253125661E+03  0.59253125661E+03  0.00000000000E+00 0. -1.
         21   -1    0    0  502  503 -0.00000000000E+00 -0.00000000000E+00 -0.12686358086E+03  0.12686358086E+03  0.00000000000E+00 0. -1.
         -6    2    1    2    0  503  0.13301551255E+02 -0.56086800591E+02 -0.36924846523E+02  0.18505249181E+03  0.17192533253E+03 0.  0.
        -24    2    3    3    0    0 -0.46322647403E+02 -0.14876024478E+02 -0.59000608309E+02  0.10913936783E+03  0.77866848294E+02 0.  0.
          6    2    1    2  501    0 -0.13301551255E+02  0.56086800591E+02  0.50259252227E+03  0.53434234567E+03  0.17204603588E+03 0.  0.
         24    2    5    5    0    0 -0.43406396184E+02  0.47667048413E+01  0.14192548271E+03  0.16877038648E+03  0.80210747446E+02 0.  0.
          5    1    5    5  501    0  0.30104844929E+02  0.51320095750E+02  0.36066703956E+03  0.36557195919E+03  0.47000000000E+01 0. -1.
        -11    1    6    6    0    0 -0.32405700825E+02  0.37993870987E+02  0.11234720244E+03  0.12294534385E+03  0.00000000000E+00 0.  1.
         12    1    6    6    0    0 -0.11000695359E+02 -0.33227166145E+02  0.29578280272E+02  0.45825042633E+02  0.00000000000E+00 0. -1.
         -5    1    3    3    0  503  0.59624198658E+02 -0.41210776113E+02  0.22075761786E+02  0.75913123976E+02  0.47000000000E+01 0.  1.
         13    1    4    4    0    0  0.18371053188E+02 -0.11159377188E+02 -0.32858281533E+02  0.39264410855E+02  0.00000000000E+00 0. -1.
        -14    1    4    4    0    0 -0.64693700591E+02 -0.37166472901E+01 -0.26142326776E+02  0.69874956977E+02  0.00000000000E+00 0.  1.
</event>
<event>
12    1  0.8500177E-002  0.1970976E+03  0.7818608E-02  0.1152308E+00
         21   -1    0    0  501  502  0.00000000000E+00  0.00000000000E+00  0.36947969910E+02  0.36947969910E+02  0.00000000000E+00 0. -1.
         21   -1    0    0  502  503 -0.00000000000E+00 -0.00000000000E+00 -0.12719650408E+04  0.12719650408E+04  0.00000000000E+00 0.  1.
         -6    2    1    2    0  503 -0.81641254877E+02  0.46524037105E+02 -0.89092599037E+03  0.91237026919E+03  0.17274434076E+03 0.  0.
        -24    2    3    3    0    0 -0.95985108495E+01  0.47688900478E+02 -0.24620853495E+03  0.26362208908E+03  0.80694488848E+02 0.  0.
          6    2    1    2  501    0  0.81641254877E+02 -0.46524037105E+02 -0.34409108049E+03  0.39654274148E+03  0.17325615033E+03 0.  0.
         24    2    5    5    0    0 -0.18189611446E+02 -0.71205070594E+01 -0.95348259096E+02  0.12559270689E+03  0.79376784559E+02 0.  0.
          5    1    5    5  501    0  0.99830866322E+02 -0.39403530046E+02 -0.24874282139E+03  0.27095003459E+03  0.47000000000E+01 0. -1.
        -13    1    6    6    0    0  0.17627715802E+02 -0.20797063004E+02 -0.79609627670E+02  0.84148363095E+02  0.00000000000E+00 0.  1.
         14    1    6    6    0    0 -0.35817327247E+02  0.13676555944E+02 -0.15738631426E+02  0.41444343798E+02  0.00000000000E+00 0. -1.
         -5    1    3    3    0  503 -0.72042744027E+02 -0.11648633727E+01 -0.64471745542E+03  0.64874818011E+03  0.47000000000E+01 0.  1.
         11    1    4    4    0    0 -0.44040312862E+02  0.31602839547E+02 -0.11717357832E+03  0.12910436120E+03  0.00000000000E+00 0. -1.
        -12    1    4    4    0    0  0.34441802013E+02  0.16086060930E+02 -0.12903495662E+03  0.13451772788E+03  0.00000000000E+00 0.  1.
</event>
<event>
12    1  0.8500177E-002  0.1770163E+03  0.7818608E-02  0.1171226E+00
         21   -1    0    0  503  502  0.00000000000E+00  0.00000000000E+00  0.15627433417E+04  0.15627433417E+04  0.00000000000E+00 0. -1.
         21   -1    0    0  501  503 -0.00000000000E+00 -0.00000000000E+00 -0.19830354623E+02  0.19830354623E+02  0.00000000000E+00 0. -1.
          6    2    1    2  501    0 -0.18987545717E+02 -0.27485434164E+02  0.75122787121E+03  0.77134001463E+03  0.17177347785E+03 0.  0.
         24    2    3    3    0    0  0.36724811373E+02 -0.61553639767E+02  0.52894055877E+03  0.53961118898E+03  0.79148962173E+02 0.  0.
         -6    2    1    2    0  502  0.18987545717E+02  0.27485434164E+02  0.79168511586E+03  0.81123368169E+03  0.17383551897E+03 0.  0.
        -24    2    5    5    0    0  0.51710273706E+02  0.52815162600E+02  0.72251035176E+03  0.73048957938E+03  0.78297020241E+02 0.  0.
          5    1    3    3  501    0 -0.55712357090E+02  0.34068205603E+02  0.22228731244E+03  0.23172882565E+03  0.47000000000E+01 0. -1.
        -11    1    4    4    0    0  0.19406256775E+02  0.17328641430E+02  0.12725076380E+03  0.12988318407E+03  0.00000000000E+00 0.  1.
         12    1    4    4    0    0  0.17318554598E+02 -0.78882281197E+02  0.40168979497E+03  0.40972800491E+03  0.00000000000E+00 0. -1.
         -5    1    5    5    0  502 -0.32722727989E+02 -0.25329728436E+02  0.69174764101E+02  0.80744102311E+02  0.47000000000E+01 0.  1.
         11    1    6    6    0    0 -0.28375788113E+01  0.51780191411E+02  0.29662923828E+03  0.30112812071E+03  0.00000000000E+00 0. -1.
        -12    1    6    6    0    0  0.54547852517E+02  0.10349711892E+01  0.42588111348E+03  0.42936145868E+03  0.00000000000E+00 0.  1.
</event>
<event>
12    1  0.8500177E-002  0.2030167E+03  0.7818608E-02  0.1148023E+00
         21   -1    0    0  503  502  0.00000000000E+00  0.00000000000E+00  0.11506828064E+03  0.11506828064E+03  0.00000000000E+00 0.  1.
         21   -1    0    0  501  503 -0.00000000000E+00 -0.00000000000E+00 -0.36881069465E+03  0.36881069465E+03  0.00000000000E+00 0. -1.
          6    2    1    2  501    0  0.39681802946E+02  0.10155954447E+03 -0.18055973390E+03  0.27169395566E+03  0.17125069775E+03 0.  0.
         24    2    3    3    0    0  0.43728758797E+02 -0.84244462315E+01 -0.99492720242E+02  0.13492112662E+03  0.79509328927E+02 0.  0.
         -6    2    1    2    0  502 -0.39681802946E+02 -0.10155954447E+03 -0.73182680109E+02  0.21218501962E+03  0.16666670732E+03 0.  0.
        -24    2    5    5    0    0 -0.58272155376E+02 -0.26507742477E+02  0.57134255501E+01  0.10161802783E+03  0.78710074613E+02 0.  0.
          5    1    3    3  501    0 -0.40469558508E+01  0.10998399070E+03 -0.81067013655E+02  0.13677282905E+03  0.47000000000E+01 0. -1.
        -11    1    4    4    0    0 -0.18356488592E+01  0.30472211523E+02 -0.41701753865E+02  0.51681346318E+02  0.00000000000E+00 0.  1.
         12    1    4    4    0    0  0.45564407656E+02 -0.38896657755E+02 -0.57790966377E+02  0.83239780300E+02  0.00000000000E+00 0. -1.
         -5    1    5    5    0  502  0.18590352431E+02 -0.75051801992E+02 -0.78896105659E+02  0.11056699179E+03  0.47000000000E+01 0.  1.
         11    1    6    6    0    0 -0.44921170636E+02 -0.14888760306E+02 -0.33911488074E+02  0.58220063364E+02  0.00000000000E+00 0. -1.
        -12    1    6    6    0    0 -0.13350984741E+02 -0.11618982171E+02  0.39624913624E+02  0.43397964468E+02  0.00000000000E+00 0.  1.
</event>
<event>
12    1  0.8500177E-002  0.1886925E+03  0.7818608E-02  0.1159788E+00
         21   -1    0    0  503  502  0.00000000000E+00  0.00000000000E+00  0.52970081753E+02  0.52970081753E+02  0.00000000000E+00 0.  1.
         21   -1    0    0  501  503 -0.00000000000E+00 -0.00000000000E+00 -0.96376768284E+03  0.96376768284E+03  0.00000000000E+00 0.  1.
          6    2    1    2  501    0 -0.77872927194E+02  0.73712449576E+01 -0.73661866335E+03  0.76040247431E+03  0.17171586906E+03 0.  0.
         24    2    3    3    0    0  0.22835083706E+02  0.19890277500E+02 -0.26624893048E+03  0.27918671684E+03  0.78356018839E+02 0.  0.
         -6    2    1    2    0  502  0.77872927194E+02 -0.73712449576E+01 -0.17417893773E+03  0.25633529029E+03  0.17102909301E+03 0.  0.
        -24    2    5    5    0    0  0.79286275525E+01  0.16597165822E+02 -0.18703205756E+02  0.84110196292E+02  0.79914868245E+02 0.  0.
          5    1    3    3  501    0 -0.10070801090E+03 -0.12519032542E+02 -0.47036973287E+03  0.48121575747E+03  0.47000000000E+01 0. -1.
        -11    1    4    4    0    0  0.16008653796E+02  0.36713175034E+01 -0.25999224419E+03  0.26051050384E+03  0.00000000000E+00 0.  1.
         12    1    4    4    0    0  0.68264299101E+01  0.16218959996E+02 -0.62566862877E+01  0.18676212999E+02  0.00000000000E+00 0. -1.
         -5    1    5    5    0  502  0.69944299642E+02 -0.23968410779E+02 -0.15547573198E+03  0.17222509399E+03  0.47000000000E+01 0.  1.
         11    1    6    6    0    0 -0.16336669510E+02 -0.14777512019E+02  0.19219804730E+02  0.29234611781E+02  0.00000000000E+00 0. -1.
        -12    1    6    6    0    0  0.24265297062E+02  0.31374677841E+02 -0.37923010486E+02  0.54875584511E+02  0.00000000000E+00 0.  1.
</event>
<event>
12    1  0.8500177E-002  0.1911966E+03  0.7818608E-02  0.1157640E+00
         21   -1    0    0  503  502  0.00000000000E+00  0.00000000000E+00  0.38122899922E+03  0.38122899922E+03  0.00000000000E+00 0.  1.
         21   -1    0    0  501  503 -0.00000000000E+00 -0.00000000000E+00 -0.95638230803E+02  0.95638230803E+02  0.00000000000E+00 0.  1.
          6    2    1    2  501    0  0.38884948322E+02 -0.74578190838E+02  0.15688998733E+03  0.24732695501E+03  0.17170384036E+03 0.  0.
         24    2    3    3    0    0 -0.33897874219E+00 -0.73298460303E+01  0.88835747525E+01  0.80028286460E+02  0.79194489606E+02 0.  0.
         -6    2    1    2    0  502 -0.38884948322E+02  0.74578190838E+02  0.12870078109E+03  0.22954027502E+03  0.17044324876E+03 0.  0.
        -24    2    5    5    0    0 -0.23168671758E+02 -0.20639172432E+02  0.93291535308E+02  0.12663618227E+03  0.79816347387E+02 0.  0.
          5    1    3    3  501    0  0.39223927064E+02 -0.67248344807E+02  0.14800641258E+03  0.16729866855E+03  0.47000000000E+01 0. -1.
        -11    1    4    4    0    0 -0.30212608824E+02 -0.17360086168E+02  0.26635963216E+02  0.43859421567E+02  0.00000000000E+00 0.  1.
         12    1    4    4    0    0  0.29873630082E+02  0.10030240138E+02 -0.17752388464E+02  0.36168864893E+02  0.00000000000E+00 0. -1.
         -5    1    5    5    0  502 -0.15716276564E+02  0.95217363269E+02  0.35409245780E+02  0.10290409275E+03  0.47000000000E+01 0.  1.
         11    1    6    6    0    0 -0.53852438897E+01 -0.46203682027E+02  0.27987698849E+02  0.54287128967E+02  0.00000000000E+00 0. -1.
        -12    1    6    6    0    0 -0.17783427869E+02  0.25564509596E+02  0.65303836459E+02  0.72349053303E+02  0.00000000000E+00 0.  1.
</event>
<event>
12    1  0.8500177E-002  0.2345632E+03  0.7818608E-02  0.1123628E+00
         21   -1    0    0  503  502  0.00000000000E+00  0.00000000000E+00  0.17585889499E+03  0.17585889499E+03  0.00000000000E+00 0. -1.
         21   -1    0    0  501  503 -0.00000000000E+00 -0.00000000000E+00 -0.35314925382E+03  0.35314925382E+03  0.00000000000E+00 0. -1.
          6    2    1    2  501    0 -0.15604278035E+03  0.30731754121E+02 -0.17918463046E+03  0.29443733502E+03  0.17115029200E+03 0.  0.
         24    2    3    3    0    0 -0.80554378744E+02 -0.21415668949E+02 -0.16489754648E+03  0.20146388033E+03  0.80304765919E+02 0.  0.
         -6    2    1    2    0  502  0.15604278035E+03 -0.30731754121E+02  0.18942716324E+01  0.23457081379E+03  0.17241255293E+03 0.  0.
        -24    2    5    5    0    0  0.66729336125E+02 -0.65085612087E+02  0.42380038638E+02  0.13055991914E+03  0.80999281545E+02 0.  0.
          5    1    3    3  501    0 -0.75488401605E+02  0.52147423069E+02 -0.14287083984E+02  0.92973454697E+02  0.47000000000E+01 0. -1.
        -11    1    4    4    0    0 -0.39033138175E+02 -0.52115965999E+00 -0.10792178464E+02  0.40500970349E+02  0.00000000000E+00 0.  1.
         12    1    4    4    0    0 -0.41521240568E+02 -0.20894509289E+02 -0.15410536802E+03  0.16096290998E+03  0.00000000000E+00 0. -1.
         -5    1    5    5    0  502  0.89313444223E+02  0.34353857966E+02 -0.40485767006E+02  0.10401089465E+03  0.47000000000E+01 0.  1.
         11    1    6    6    0    0  0.78266197793E+02 -0.25733066300E+02  0.25894075861E+02  0.86361401001E+02  0.00000000000E+00 0. -1.
        -12    1    6    6    0    0 -0.11536861668E+02 -0.39352545787E+02  0.16485962778E+02  0.44198518140E+02  0.00000000000E+00 0.  1.
</event>
<event>
12    1  0.8500177E-002  0.1937298E+03  0.7818608E-02  0.1157468E+00
         21   -1    0    0  501  502  0.00000000000E+00  0.00000000000E+00  0.33866617529E+02  0.33866617529E+02  0.00000000000E+00 0.  1.
         21   -1    0    0  502  503 -0.00000000000E+00 -0.00000000000E+00 -0.10814442826E+04  0.10814442826E+04  0.00000000000E+00 0.  1.
         -6    2    1    2    0  503 -0.32268339772E+02 -0.82157524580E+02 -0.41510084815E+03  0.45382910808E+03  0.16081368291E+03 0.  0.
        -24    2    3    3    0    0 -0.65442016305E+02 -0.10057589523E+03 -0.32042139300E+03  0.35172123170E+03  0.81484891461E+02 0.  0.
          6    2    1    2  501    0  0.32268339772E+02  0.82157524580E+02 -0.63247681690E+03  0.66148179202E+03  0.17245327677E+03 0.  0.
         24    2    5    5    0    0 -0.46945948273E+02  0.60746785884E+02 -0.36438862929E+03  0.38107728154E+03  0.80911848939E+02 0.  0.
          5    1    5    5  501    0  0.79214288045E+02  0.21410738696E+02 -0.26808818761E+03  0.28040451048E+03  0.47000000000E+01 0. -1.
        -13    1    6    6    0    0  0.22743844170E+01 -0.65426007804E+01 -0.16256187169E+03  0.16270937458E+03  0.00000000000E+00 0.  1.
         14    1    6    6    0    0 -0.49220332690E+02  0.67289386664E+02 -0.20182675760E+03  0.21836790696E+03  0.00000000000E+00 0. -1.
         -5    1    3    3    0  503  0.33173676533E+02  0.18418370649E+02 -0.94679455146E+02  0.10210787638E+03  0.47000000000E+01 0.  1.
         13    1    4    4    0    0 -0.23518434358E+02  0.96158881845E+01 -0.38361748951E+02  0.46013105120E+02  0.00000000000E+00 0. -1.
        -14    1    4    4    0    0 -0.41923581947E+02 -0.11019178341E+03 -0.28205964405E+03  0.30570812658E+03  0.00000000000E+00 0.  1.
</event>
<event>
12    1  0.8500177E-002  0.2039807E+03  0.7818608E-02  0.1146518E+00
         21   -1    0    0  501  502  0.00000000000E+00  0.00000000000E+00  0.43234214095E+03  0.43234214095E+03  0.00000000000E+00 0. -1.
         21   -1    0    0  502  503 -0.00000000000E+00 -0.00000000000E+00 -0.10621771833E+03  0.10621771833E+03  0.00000000000E+00 0. -1.
         -6    2    1    2    0  503  0.48622919682E+02  0.98652317077E+02  0.24632527552E+03  0.31952555336E+03  0.17124243022E+03 0.  0.
        -24    2    3    3    0    0  0.21887073144E+02  0.30769118287E+02  0.22552355572E+03  0.24351413504E+03  0.83740534817E+02 0.  0.
          6    2    1    2  501    0 -0.48622919682E+02 -0.98652317077E+02  0.79799147099E+02  0.21903430592E+03  0.17178956693E+03 0.  0.
         24    2    5    5    0    0  0.29664877505E+02 -0.20037842063E+02  0.62775745706E+02  0.10669063202E+03  0.78489340929E+02 0.  0.
          5    1    5    5  501    0 -0.78287797187E+02 -0.78614475014E+02  0.17023401393E+02  0.11234367390E+03  0.47000000000E+01 0. -1.
        -11    1    6    6    0    0 -0.75681640717E+01 -0.35890739748E+02  0.54004877405E+02  0.65283605067E+02  0.00000000000E+00 0.  1.
         12    1    6    6    0    0  0.37233041577E+02  0.15852897685E+02  0.87708683012E+01  0.41407026950E+02  0.00000000000E+00 0. -1.
         -5    1    3    3    0  503  0.26735846538E+02  0.67883198789E+02  0.20801719806E+02  0.76011418319E+02  0.47000000000E+01 0.  1.
         13    1    4    4    0    0  0.35614010311E+02 -0.12734767411E+02  0.15480708323E+03  0.15936048773E+03  0.00000000000E+00 0. -1.
        -14    1    4    4    0    0 -0.13726937167E+02  0.43503885699E+02  0.70716472482E+02  0.84153647307E+02  0.00000000000E+00 0.  1.
</event>
<event>
12    1  0.8500177E-002  0.2765735E+03  0.7818608E-02  0.1097624E+00
         21   -1    0    0  503  502  0.00000000000E+00  0.00000000000E+00  0.10006431554E+03  0.10006431554E+03  0.00000000000E+00 0. -1.
         21   -1    0    0  501  503 -0.00000000000E+00 -0.00000000000E+00 -0.13728723405E+04  0.13728723405E+04  0.00000000000E+00 0.  1.
          6    2    1    2  501    0 -0.64242910800E+02  0.20676185448E+03 -0.11268535170E+04  0.11602137833E+04  0.17152130508E+03 0.  0.
         24    2    3    3    0    0  0.16460656003E+02  0.12436640136E+03 -0.79529428435E+03  0.80913588432E+03  0.80435847642E+02 0.  0.
         -6    2    1    2    0  502  0.64242910800E+02 -0.20676185448E+03 -0.14595450792E+03  0.31272287271E+03  0.17209085007E+03 0.  0.
        -24    2    5    5    0    0  0.27520989545E+02 -0.23535934764E+02 -0.38959149775E+02  0.97338718649E+02  0.81520952559E+02 0.  0.
          5    1    3    3  501    0 -0.80703566803E+02  0.82395453123E+02 -0.33155923266E+03  0.35107789898E+03  0.47000000000E+01 0. -1.
        -13    1    4    4    0    0  0.43537990140E+02  0.39260919865E+02 -0.26861399024E+03  0.27493717858E+03  0.00000000000E+00 0.  1.
         14    1    4    4    0    0 -0.27077334137E+02  0.85105481491E+02 -0.52668029412E+03  0.53419870574E+03  0.00000000000E+00 0. -1.
         -5    1    5    5    0  502  0.36721921255E+02 -0.18322591971E+03 -0.10699535814E+03  0.21538415406E+03  0.47000000000E+01 0.  1.
         11    1    6    6    0    0  0.52530750064E+02 -0.41510824175E+01 -0.84207343821E+01  0.53363095442E+02  0.00000000000E+00 0. -1.
        -12    1    6    6    0    0 -0.25009760519E+02 -0.19384852347E+02 -0.30538415393E+02  0.43975623207E+02  0.00000000000E+00 0.  1.
</event>
<event>
12    1  0.8500177E-002  0.1723969E+03  0.7818608E-02  0.1175742E+00
         21   -1    0    0  503  502  0.00000000000E+00  0.00000000000E+00  0.69249809010E+02  0.69249809010E+02  0.00000000000E+00 0.  1.
         21   -1    0    0  501  503 -0.00000000000E+00 -0.00000000000E+00 -0.49816681447E+03  0.49816681447E+03  0.00000000000E+00 0.  1.
          6    2    1    2  501    0 -0.61784655821E+01 -0.11004927193E+02 -0.10540321244E+03  0.20083532039E+03  0.17048667650E+03 0.  0.
         24    2    3    3    0    0 -0.10455871091E+02 -0.13551653021E+02 -0.14210478211E+03  0.16350065517E+03  0.79029884239E+02 0.  0.
         -6    2    1    2    0  502  0.61784655821E+01  0.11004927193E+02 -0.32351379302E+03  0.36658130309E+03  0.17193427709E+03 0.  0.
        -24    2    5    5    0    0  0.68865772344E+02  0.26791638683E+01 -0.16596915778E+03  0.19675368797E+03  0.80103557197E+02 0.  0.
          5    1    3    3  501    0  0.42774055089E+01  0.25467258281E+01  0.36701569675E+02  0.37334665218E+02  0.47000000000E+01 0. -1.
        -13    1    4    4    0    0 -0.29414552563E+02 -0.15021021531E+02 -0.17355308248E+02  0.37310236058E+02  0.00000000000E+00 0.  1.
         14    1    4    4    0    0  0.18958681472E+02  0.14693685096E+01 -0.12474947387E+03  0.12619041912E+03  0.00000000000E+00 0. -1.
         -5    1    5    5    0  502 -0.62687306762E+02  0.83257633249E+01 -0.15754463524E+03  0.16982761512E+03  0.47000000000E+01 0.  1.
         11    1    6    6    0    0 -0.18112391635E+02 -0.31392849426E+01 -0.25531226346E+02  0.31460409397E+02  0.00000000000E+00 0. -1.
        -12    1    6    6    0    0  0.86978163979E+02  0.58184488109E+01 -0.14043793144E+03  0.16529327858E+03  0.00000000000E+00 0.  1.
</event>
<event>
12    1  0.8500177E-002  0.2212982E+03  0.7818608E-02  0.1133206E+00
         21   -1    0    0  503  502  0.00000000000E+00  0.00000000000E+00  0.20463747238E+04  0.20463747238E+04  0.00000000000E+00 0.  1.
         21   -1    0    0  501  503 -0.00000000000E+00 -0.00000000000E+00 -0.10076384628E+03  0.10076384628E+03  0.00000000000E+00 0. -1.
          6    2    1    2  501    0 -0.12575385064E+03  0.56749903629E+02  0.33532226420E+02  0.22229632955E+03  0.17104579916E+03 0.  0.
         24    2    3    3    0    0 -0.94386719580E+02 -0.26908313386E+02  0.38196098588E+02  0.13270595122E+03  0.80740432126E+02 0.  0.
         -6    2    1    2    0  502  0.12575385064E+03 -0.56749903629E+02  0.19120786511E+04  0.19248422405E+04  0.17302687777E+03 0.  0.
        -24    2    5    5    0    0 -0.64578060025E+01 -0.15782004954E+02  0.91524765101E+03  0.91843654519E+03  0.74542940143E+02 0.  0.
          5    1    3    3  501    0 -0.31367131057E+02  0.83658217015E+02 -0.46638721678E+01  0.89590378325E+02  0.47000000000E+01 0. -1.
        -13    1    4    4    0    0 -0.46843400111E+02  0.24422106319E+02  0.33561883256E+02  0.62587086677E+02  0.00000000000E+00 0.  1.
         14    1    4    4    0    0 -0.47543319469E+02 -0.51330419705E+02  0.46342153317E+01  0.70118864544E+02  0.00000000000E+00 0. -1.
         -5    1    5    5    0  502  0.13221165664E+03 -0.40967898675E+02  0.99683100005E+03  0.10064056953E+04  0.47000000000E+01 0.  1.
         13    1    6    6    0    0  0.89836259831E+01 -0.13732194807E+02  0.42620892571E+02  0.45670769575E+02  0.00000000000E+00 0. -1.
        -14    1    6    6    0    0 -0.15441431986E+02 -0.20498101461E+01  0.87262675844E+03  0.87276577562E+03  0.00000000000E+00 0.  1.
</event>
<event>
12    1  0.8500177E-002  0.1945020E+03  0.7818608E-02  0.1155660E+00
         21   -1    0    0  501  502  0.00000000000E+00  0.00000000000E+00  0.52141878532E+03  0.52141878532E+03  0.00000000000E+00 0. -1.
         21   -1    0    0  502  503 -0.00000000000E+00 -0.00000000000E+00 -0.11521793470E+03  0.11521793470E+03  0.00000000000E+00 0. -1.
         -6    2    1    2    0  503  0.13227632581E+02 -0.91048821428E+02  0.31767196593E+01  0.18913312332E+03  0.16521618759E+03 0.  0.
        -24    2    3    3    0    0  0.59993965612E+01  0.13571794260E+02 -0.12539232316E+02  0.82987931394E+02  0.80681956170E+02 0.  0.
          6    2    1    2  501    0 -0.13227632581E+02  0.91048821428E+02  0.40302413096E+03  0.44750359670E+03  0.17136557640E+03 0.  0.
         24    2    5    5    0    0  0.19808017796E+02  0.11896972975E+03  0.35180787891E+03  0.38030147031E+03  0.79462384132E+02 0.  0.
          5    1    5    5  501    0 -0.33035650377E+02 -0.27920908318E+02  0.51216252054E+02  0.67202126391E+02  0.47000000000E+01 0. -1.
        -11    1    6    6    0    0  0.19387526708E+02  0.85960587034E+02  0.13646673505E+03  0.16244466286E+03  0.00000000000E+00 0.  1.
         12    1    6    6    0    0  0.42049108813E+00  0.33009142712E+02  0.21534114386E+03  0.21785680745E+03  0.00000000000E+00 0. -1.
         -5    1    3    3    0  503  0.72282360197E+01 -0.10462061569E+03  0.15715951976E+02  0.10614519193E+03  0.47000000000E+01 0.  1.
         11    1    4    4    0    0 -0.37387544590E+02  0.51090940056E+01 -0.77717037867E+01  0.38527012754E+02  0.00000000000E+00 0. -1.
        -12    1    4    4    0    0  0.43386941151E+02  0.84627002545E+01 -0.47675285297E+01  0.44460918640E+02  0.00000000000E+00 0.  1.
</event>
<event>
12    1  0.8500177E-002  0.2618417E+03  0.7818608E-02  0.1106056E+00
         21   -1    0    0  503  502  0.00000000000E+00  0.00000000000E+00  0.19907959314E+04  0.19907959314E+04  0.00000000000E+00 0.  1.
         21   -1    0    0  501  503 -0.00000000000E+00 -0.00000000000E+00 -0.44174728557E+02  0.44174728557E+02  0.00000000000E+00 0. -1.
          6    2    1    2  501    0  0.87891638670E+02 -0.17655103202E+03  0.49519761840E+03  0.56011762089E+03  0.17209259401E+03 0.  0.
         24    2    3    3    0    0  0.52180955320E+02 -0.19102943250E+03  0.35553040326E+03  0.41515590881E+03  0.82082061376E+02 0.  0.
         -6    2    1    2    0  502 -0.87891638670E+02  0.17655103202E+03  0.14514235845E+04  0.14748530391E+04  0.17223779579E+03 0.  0.
        -24    2    5    5    0    0 -0.54044292270E+02  0.32818695839E+02  0.38545910236E+03  0.39869924225E+03  0.79903152992E+02 0.  0.
          5    1    3    3  501    0  0.35710683350E+02  0.14478400481E+02  0.13966721513E+03  0.14496171208E+03  0.47000000000E+01 0. -1.
        -13    1    4    4    0    0  0.43067363917E+02 -0.39433420872E+02  0.13810284842E+03  0.14994061911E+03  0.00000000000E+00 0.  1.
         14    1    4    4    0    0  0.91135914033E+01 -0.15159601163E+03  0.21742755484E+03  0.26521528971E+03  0.00000000000E+00 0. -1.
         -5    1    5    5    0  502 -0.33847346400E+02  0.14373233618E+03  0.10659644821E+04  0.10761537969E+04  0.47000000000E+01 0.  1.
         11    1    6    6    0    0  0.20879404146E+02  0.10482960118E+02  0.75509404631E+02  0.79041205444E+02  0.00000000000E+00 0. -1.
        -12    1    6    6    0    0 -0.74923696416E+02  0.22335735721E+02  0.30994969773E+03  0.31965803681E+03  0.00000000000E+00 0.  1.
</event>
<event>
12    1  0.8500177E-002  0.1967913E+03  0.7818608E-02  0.1153477E+00
         21   -1    0    0  503  502  0.00000000000E+00  0.00000000000E+00  0.30738436600E+02  0.30738436600E+02  0.00000000000E+00 0.  1.
         21   -1    0    0  501  503 -0.00000000000E+00 -0.00000000000E+00 -0.17079137356E+04  0.17079137356E+04  0.00000000000E+00 0. -1.
          6    2    1    2  501    0  0.84767698621E+02  0.23865344577E+02 -0.13052399345E+04  0.13199916991E+04  0.17598773149E+03 0.  0.
         24    2    3    3    0    0  0.81409574568E+02 -0.14166796736E+02 -0.48594055133E+03  0.49978971785E+03  0.82603424096E+02 0.  0.
         -6    2    1    2    0  502 -0.84767698621E+02 -0.23865344577E+02 -0.37193536445E+03  0.41866047307E+03  0.17083781484E+03 0.  0.
        -24    2    5    5    0    0 -0.75414747169E+02 -0.78231554509E+02 -0.28882847419E+03  0.31880053269E+03  0.80027069979E+02 0.  0.
          5    1    3    3  501    0  0.33581240536E+01  0.38032141313E+02 -0.81929938321E+03  0.82020198128E+03  0.47000000000E+01 0. -1.
        -13    1    4    4    0    0 -0.13444021256E+00 -0.31567510319E+02 -0.96825387978E+02  0.10184145295E+03  0.00000000000E+00 0.  1.
         14    1    4    4    0    0  0.81544014780E+02  0.17400713583E+02 -0.38911516336E+03  0.39794826490E+03  0.00000000000E+00 0. -1.
         -5    1    5    5    0  502 -0.93529514524E+01  0.54366209932E+02 -0.83106890263E+02  0.99859940379E+02  0.47000000000E+01 0.  1.
         11    1    6    6    0    0 -0.35269973675E+02 -0.46712650799E+02 -0.24383011922E+03  0.25075719297E+03  0.00000000000E+00 0. -1.
        -12    1    6    6    0    0 -0.40144773494E+02 -0.31518903711E+02 -0.44998354964E+02  0.68043339715E+02  0.00000000000E+00 0.  1.
</event>
<event>
12    1  0.8500177E-002  0.2110678E+03  0.7818608E-02  0.1140749E+00
         21   -1    0    0  501  502  0.00000000000E+00  0.00000000000E+00  0.17119110390E+03  0.17119110390E+03  0.00000000000E+00 0.  1.
         21   -1    0    0  502  503 -0.00000000000E+00 -0.00000000000E+00 -0.81084726630E+03  0.81084726630E+03  0.00000000000E+00 0. -1.
         -6    2    1    2    0  503  0.11443503729E+03 -0.45865369654E+02 -0.72454368006E+03  0.75466096208E+03  0.17132020746E+03 0.  0.
        -24    2    3    3    0    0  0.72751155482E+02  0.40010638487E+02 -0.40237178344E+03  0.41861177558E+03  0.80244530840E+02 0.  0.
          6    2    1    2  501    0 -0.11443503729E+03  0.45865369654E+02  0.84887517660E+02  0.22737740811E+03  0.17115953135E+03 0.  0.
         24    2    5    5    0    0 -0.10141915820E+03  0.85098541273E+02  0.31986546463E+02  0.16007764870E+03  0.84107711187E+02 0.  0.
          5    1    5    5  501    0 -0.13015879087E+02 -0.39233171619E+02  0.52900971197E+02  0.67299759415E+02  0.47000000000E+01 0. -1.
        -11    1    6    6    0    0 -0.46483109147E+02  0.22560226287E+02  0.53215784384E+02  0.74172521554E+02  0.00000000000E+00 0.  1.
         12    1    6    6    0    0 -0.54936049052E+02  0.62538314986E+02 -0.21229237921E+02  0.85905127143E+02  0.00000000000E+00 0. -1.
         -5    1    3    3    0  503  0.41683881803E+02 -0.85876008141E+02 -0.32217189662E+03  0.33604918650E+03  0.47000000000E+01 0.  1.
         13    1    4    4    0    0  0.23736122675E+01 -0.12334694663E+02 -0.16628320004E+03  0.16675695291E+03  0.00000000000E+00 0. -1.
        -14    1    4    4    0    0  0.70377543215E+02  0.52345333150E+02 -0.23608858340E+03  0.25185482267E+03  0.00000000000E+00 0.  1.
</event>
<event>
12    1  0.8500177E-002  0.1985242E+03  0.7818608E-02  0.1153681E+00
         21   -1    0    0  501  502  0.00000000000E+00  0.00000000000E+00  0.19292622376E+03  0.19292622376E+03  0.00000000000E+00 0. -1.
         21   -1    0    0  502  503 -0.00000000000E+00 -0.00000000000E+00 -0.25631680003E+03  0.25631680003E+03  0.00000000000E+00 0. -1.
         -6    2    1    2    0  503 -0.42667221351E+02  0.56465070256E+02 -0.14500250327E+03  0.24584058457E+03  0.18548064894E+03 0.  0.
        -24    2    3    3    0    0  0.46492198790E+02  0.44344398637E+02 -0.48104274097E+02  0.11352403346E+03  0.80285333334E+02 0.  0.
          6    2    1    2  501    0  0.42667221351E+02 -0.56465070256E+02  0.81611926998E+02  0.20340243922E+03  0.17234630752E+03 0.  0.
         24    2    5    5    0    0  0.61207768938E+02 -0.97718559487E+02  0.59930710617E+02  0.15302618070E+03  0.80808502386E+02 0.  0.
          5    1    5    5  501    0 -0.18540547587E+02  0.41253489231E+02  0.21681216381E+02  0.50376258518E+02  0.47000000000E+01 0. -1.
        -11    1    6    6    0    0  0.56543283566E+02 -0.28520476657E+02  0.31751787840E+01  0.63408534642E+02  0.00000000000E+00 0.  1.
         12    1    6    6    0    0  0.46644853717E+01 -0.69198082830E+02  0.56755531833E+02  0.89617646057E+02  0.00000000000E+00 0. -1.
         -5    1    3    3    0  503 -0.89159420141E+02  0.12120671620E+02 -0.96898229174E+02  0.13231655111E+03  0.47000000000E+01 0.  1.
         13    1    4    4    0    0  0.56666719399E+02  0.47912466083E+02 -0.61463904425E+02  0.96356281792E+02  0.00000000000E+00 0. -1.
        -14    1    4    4    0    0 -0.10174520610E+02 -0.35680674466E+01  0.13359630328E+02  0.17167751671E+02  0.00000000000E+00 0.  1.
</event>
<event>
12    1  0.8500177E-002  0.1800399E+03  0.7818608E-02  0.1169139E+00
         21   -1    0    0  503  502  0.00000000000E+00  0.00000000000E+00  0.48658843469E+03  0.48658843469E+03  0.00000000000E+00 0. -1.
         21   -1    0    0  501  503 -0.00000000000E+00 -0.00000000000E+00 -0.78278091182E+02  0.78278091182E+02  0.00000000000E+00 0. -1.
          6    2    1    2  501    0 -0.25050711672E+02 -0.45934823548E+02  0.83294101615E+02  0.19331584483E+03  0.16641983754E+03 0.  0.
         24    2    3    3    0    0  0.35178237686E+02  0.16762659134E+02  0.40590862722E+02  0.96340810476E+02  0.78201269035E+02 0.  0.
         -6    2    1    2    0  502  0.25050711672E+02  0.45934823548E+02  0.32501624189E+03  0.37155068104E+03  0.17226957050E+03 0.  0.
        -24    2    5    5    0    0  0.53233764830E+02 -0.28612887292E+02  0.19935168262E+03  0.22267047036E+03  0.78667108556E+02 0.  0.
          5    1    3    3  501    0 -0.60228949358E+02 -0.62697482682E+02  0.42703238893E+02  0.96975034351E+02  0.47000000000E+01 0. -1.
        -13    1    4    4    0    0  0.32583334584E+02 -0.95736327142E+01  0.56165171989E+02  0.65634249295E+02  0.00000000000E+00 0.  1.
         14    1    4    4    0    0  0.25949031014E+01  0.26336291848E+02 -0.15574309267E+02  0.30706561181E+02  0.00000000000E+00 0. -1.
         -5    1    5    5    0  502 -0.28183053158E+02  0.74547710841E+02  0.12566455927E+03  0.14888021069E+03  0.47000000000E+01 0.  1.
         13    1    6    6    0    0 -0.71266003332E+01 -0.35571258364E+02  0.98024821981E+02  0.10452257449E+03  0.00000000000E+00 0. -1.
        -14    1    6    6    0    0  0.60360365163E+02  0.69583710713E+01  0.10132686064E+03  0.11814789586E+03  0.00000000000E+00 0.  1.
</event>
<event>
12    1  0.8500177E-002  0.2068654E+03  0.7818608E-02  0.1146390E+00
         21   -1    0    0  503  502  0.00000000000E+00  0.00000000000E+00  0.18085590085E+03  0.18085590085E+03  0.00000000000E+00 0.  1.
         21   -1    0    0  501  503 -0.00000000000E+00 -0.00000000000E+00 -0.28489429316E+03  0.28489429316E+03  0.00000000000E+00 0. -1.
          6    2    1    2  501    0 -0.50692000425E+02  0.11410640761E+03 -0.15848156931E+03  0.25184049022E+03  0.15072250507E+03 0.  0.
         24    2    3    3    0    0 -0.26537960861E+02  0.13567349257E+03 -0.14840596952E+03  0.21760360234E+03  0.78838036552E+02 0.  0.
         -6    2    1    2    0  502  0.50692000425E+02 -0.11410640761E+03  0.54443177000E+02  0.21390970378E+03  0.16493438297E+03 0.  0.
        -24    2    5    5    0    0 -0.41540887086E+02 -0.55489730644E+02 -0.33975155973E+01  0.90174276045E+02  0.57576917608E+02 0.  0.
          5    1    3    3  501    0 -0.24154039564E+02 -0.21567084955E+02 -0.10075599792E+02  0.34236887883E+02  0.47000000000E+01 0. -1.
        -11    1    4    4    0    0 -0.47638439017E+02  0.61981875564E+02 -0.49722584879E+02  0.92647229950E+02  0.00000000000E+00 0.  1.
         12    1    4    4    0    0  0.21100478156E+02  0.73691617005E+02 -0.98683384643E+02  0.12495637239E+03  0.00000000000E+00 0. -1.
         -5    1    5    5    0  502  0.92232887512E+02 -0.58616676970E+02  0.57840692597E+02  0.12373542774E+03  0.47000000000E+01 0.  1.
         13    1    6    6    0    0 -0.41435767414E+02 -0.25990729040E+02  0.19677354861E+02  0.52722282875E+02  0.00000000000E+00 0. -1.
        -14    1    6    6    0    0 -0.10511967244E+00 -0.29499001604E+02 -0.23074870458E+02  0.37451993171E+02  0.00000000000E+00 0.  1.
</event>
<event>
12    1  0.8500177E-002  0.1849976E+03  0.7818608E-02  0.1163266E+00
         21   -1    0    0  503  502  0.00000000000E+00  0.00000000000E+00  0.89240682243E+03  0.89240682243E+03  0.00000000000E+00 0. -1.
         21   -1    0    0  501  503 -0.00000000000E+00 -0.00000000000E+00 -0.48882465114E+02  0.48882465114E+02  0.00000000000E+00 0. -1.
          6    2    1    2  501    0 -0.65391288763E+02  0.24605851869E+01  0.20216432338E+03  0.27403380273E+03  0.17303767297E+03 0.  0.
         24    2    3    3    0    0  0.91174507546E+01  0.50670964625E+02  0.86199104515E+02  0.12793173246E+03  0.79281574076E+02 0.  0.
         -6    2    1    2    0  502  0.65391288763E+02 -0.24605851869E+01  0.64136003394E+03  0.66725548481E+03  0.17206136625E+03 0.  0.
        -24    2    5    5    0    0  0.99579186416E+02 -0.46147812742E+01  0.60084181013E+03  0.61398946030E+03  0.77684399891E+02 0.  0.
          5    1    3    3  501    0 -0.74508739518E+02 -0.48210379438E+02  0.11596521886E+03  0.14610207026E+03  0.47000000000E+01 0. -1.
        -11    1    4    4    0    0 -0.12259516768E+02 -0.18450889495E+02  0.18916439411E+02  0.29130100489E+02  0.00000000000E+00 0.  1.
         12    1    4    4    0    0  0.21376967523E+02  0.69121854120E+02  0.67282665104E+02  0.98801631975E+02  0.00000000000E+00 0. -1.
         -5    1    5    5    0  502 -0.34187897653E+02  0.21541960874E+01  0.40518223805E+02  0.53266024509E+02  0.47000000000E+01 0.  1.
         13    1    6    6    0    0  0.20189559063E+02  0.27373018836E+02  0.27492602933E+03  0.27702206060E+03  0.00000000000E+00 0. -1.
        -14    1    6    6    0    0  0.79389627353E+02 -0.31987800110E+02  0.32591578080E+03  0.33696739970E+03  0.00000000000E+00 0.  1.
</event>
<event>
12    1  0.8500177E-002  0.2159411E+03  0.7818608E-02  0.1137498E+00
         21   -1    0    0  503  502  0.00000000000E+00  0.00000000000E+00  0.10753727135E+03  0.10753727135E+03  0.00000000000E+00 0.  1.
         21   -1    0    0  501  503 -0.00000000000E+00 -0.00000000000E+00 -0.43380625039E+03  0.43380625039E+03  0.00000000000E+00 0.  1.
          6    2    1    2  501    0  0.66027576469E+02  0.10330641652E+03 -0.19587114871E+03  0.29154088015E+03  0.17776029183E+03 0.  0.
         24    2    3    3    0    0  0.90180423047E+02  0.13219458800E+02 -0.98958789707E+02  0.15695590596E+03  0.80839665778E+02 0.  0.
         -6    2    1    2    0  502 -0.66027576469E+02 -0.10330641652E+03 -0.13039783033E+03  0.24980264159E+03  0.17425816779E+03 0.  0.
        -24    2    5    5    0    0 -0.27405891926E+01 -0.27358598429E+02  0.45544871645E+01  0.82448132157E+02  0.77594764035E+02 0.  0.
          5    1    3    3  501    0 -0.24152846578E+02  0.90086957721E+02 -0.96912359008E+02  0.13458497419E+03  0.47000000000E+01 0. -1.
        -13    1    4    4    0    0 -0.85802555573E+01  0.52432828236E+01 -0.40896624246E+02  0.42114684789E+02  0.00000000000E+00 0.  1.
         14    1    4    4    0    0  0.98760678605E+02  0.79761759768E+01 -0.58062165461E+02  0.11484122117E+03  0.00000000000E+00 0. -1.
         -5    1    5    5    0  502 -0.63286987277E+02 -0.75947818092E+02 -0.13495231749E+03  0.16735450943E+03  0.47000000000E+01 0.  1.
         13    1    6    6    0    0 -0.33635323742E+02  0.68627645756E+01 -0.67331326609E+01  0.34982390088E+02  0.00000000000E+00 0. -1.
        -14    1    6    6    0    0  0.30894734550E+02 -0.34221363004E+02  0.11287619825E+02  0.47465742068E+02  0.00000000000E+00 0.  1.
</event>
<event>
12    1  0.8500177E-002  0.1824703E+03  0.7818608E-02  0.1165593E+00
         21   -1    0    0  503  502  0.00000000000E+00  0.00000000000E+00  0.14847399884E+03  0.14847399884E+03  0.00000000000E+00 0.  1.
         21   -1    0    0  501  503 -0.00000000000E+00 -0.00000000000E+00 -0.39182044771E+03  0.39182044771E+03  0.00000000000E+00 0.  1.
          6    2    1    2  501    0  0.50335669035E+02  0.32636181490E+02 -0.29864434921E+03  0.34962911360E+03  0.17161954971E+03 0.  0.
         24    2    3    3    0    0  0.83080376856E+02  0.58970092979E+01 -0.27950701631E+03  0.30298657153E+03  0.82094863565E+02 0.  0.
         -6    2    1    2    0  502 -0.50335669035E+02 -0.32636181490E+02  0.55297900342E+02  0.19066533296E+03  0.17232704805E+03 0.  0.
        -24    2    5    5    0    0 -0.79035857723E+01 -0.41346046469E+01 -0.34126611002E+02  0.87555416841E+02  0.80135908407E+02 0.  0.
          5    1    3    3  501    0 -0.32744707821E+02  0.26739172193E+02 -0.19137332893E+02  0.46642542063E+02  0.47000000000E+01 0. -1.
        -11    1    4    4    0    0  0.74648673664E+02  0.26689231969E+02 -0.13348886055E+03  0.15525467940E+03  0.00000000000E+00 0.  1.
         12    1    4    4    0    0  0.84317031919E+01 -0.20792222671E+02 -0.14601815576E+03  0.14773189214E+03  0.00000000000E+00 0. -1.
         -5    1    5    5    0  502 -0.42432083263E+02 -0.28501576844E+02  0.89424511344E+02  0.10310991612E+03  0.47000000000E+01 0.  1.
         11    1    6    6    0    0  0.25413470832E+02  0.25517934806E+02 -0.16091960640E+02  0.39445667617E+02  0.00000000000E+00 0. -1.
        -12    1    6    6    0    0 -0.33317056604E+02 -0.29652539453E+02 -0.18034650362E+02  0.48109749225E+02  0.00000000000E+00 0.  1.
</event>
<event>
12    1  0.8500177E-002  0.2897011E+03  0.7818608E-02  0.1090532E+00
         21   -1    0    0  501  502  0.00000000000E+00  0.00000000000E+00  0.18377632335E+03  0.18377632335E+03  0.00000000000E+00 0.  1.
         21   -1    0    0  502  503 -0.00000000000E+00 -0.00000000000E+00 -0.72987298078E+03  0.72987298078E+03  0.00000000000E+00 0.  1.
         -6    2    1    2    0  503 -0.14319260908E+03  0.18380433909E+03 -0.55276337745E+03  0.62407858111E+03  0.17215854780E+03 0.  0.
        -24    2    3    3    0    0 -0.55363500810E+02  0.15907412703E+03 -0.28014906177E+03  0.33656129334E+03  0.80126851020E+02 0.  0.
          6    2    1    2  501    0  0.14319260908E+03 -0.18380433909E+03  0.66667200250E+01  0.28957072302E+03  0.17180977886E+03 0.  0.
         24    2    5    5    0    0  0.11360958617E+02 -0.41947813111E+02  0.30841699891E+02  0.94354489887E+02  0.77864426436E+02 0.  0.
          5    1    5    5  501    0  0.13183165046E+03 -0.14185652598E+03 -0.24174979866E+02  0.19521623313E+03  0.47000000000E+01 0. -1.
        -11    1    6    6    0    0  0.44090806525E+02 -0.32911616108E+02  0.16006841012E+02  0.57300895752E+02  0.00000000000E+00 0.  1.
         12    1    6    6    0    0 -0.32729847908E+02 -0.90361970032E+01  0.14834858879E+02  0.37053594135E+02  0.00000000000E+00 0. -1.
         -5    1    3    3    0  503 -0.87829108270E+02  0.24730212058E+02 -0.27261431568E+03  0.28751728776E+03  0.47000000000E+01 0.  1.
         11    1    4    4    0    0 -0.47151182299E+02  0.52744335520E+02 -0.63410365204E+02  0.95005648973E+02  0.00000000000E+00 0. -1.
        -12    1    4    4    0    0 -0.82123185109E+01  0.10632979151E+03 -0.21673869657E+03  0.24155564437E+03  0.00000000000E+00 0.  1.
</event>
<event>
12    1  0.8500177E-002  0.1808612E+03  0.7818608E-02  0.1167132E+00
         21   -1    0    0  503  502  0.00000000000E+00  0.00000000000E+00  0.14794835764E+02  0.14794835764E+02  0.00000000000E+00 0.  1.
         21   -1    0    0  501  503 -0.00000000000E+00 -0.00000000000E+00 -0.27537223348E+04  0.27537223348E+04  0.00000000000E+00 0.  1.
          6    2    1    2  501    0  0.30531153483E+02  0.42391082359E+02 -0.19905962420E+04  0.19987956833E+04  0.17315204179E+03 0.  0.
         24    2    3    3    0    0  0.13017407664E+01 -0.36914343173E+02 -0.72927631982E+03  0.73463835715E+03  0.80530751155E+02 0.  0.
         -6    2    1    2    0  502 -0.30531153483E+02 -0.42391082359E+02 -0.74833125703E+03  0.76972148729E+03  0.17245968386E+03 0.  0.
        -24    2    5    5    0    0  0.20996343872E+02 -0.69219202732E+02 -0.61296015119E+03  0.62233676176E+03  0.79691615615E+02 0.  0.
          5    1    3    3  501    0  0.29229412717E+02  0.79305425532E+02 -0.12613199222E+04  0.12641573261E+04  0.47000000000E+01 0. -1.
        -11    1    4    4    0    0  0.12568991703E+02 -0.36233469095E+02 -0.71675450844E+03  0.71777981945E+03  0.00000000000E+00 0.  1.
         12    1    4    4    0    0 -0.11267250937E+02 -0.68087407853E+00 -0.12521811378E+02  0.16858537699E+02  0.00000000000E+00 0. -1.
         -5    1    5    5    0  502 -0.51527497355E+02  0.26828120374E+02 -0.13537110584E+03  0.14738472554E+03  0.47000000000E+01 0.  1.
         11    1    6    6    0    0  0.89259637258E+01  0.15394704024E+02 -0.18972040208E+03  0.19055314404E+03  0.00000000000E+00 0. -1.
        -12    1    6    6    0    0  0.12070380146E+02 -0.84613906756E+02 -0.42323974912E+03  0.43178361771E+03  0.00000000000E+00 0.  1.
</event>
<event>
12    1  0.8500177E-002  0.2407106E+03  0.7818608E-02  0.1119477E+00
         21   -1    0    0  501  502  0.00000000000E+00  0.00000000000E+00  0.15615073180E+03  0.15615073180E+03  0.00000000000E+00 0. -1.
         21   -1    0    0  502  503 -0.00000000000E+00 -0.00000000000E+00 -0.37728037032E+03  0.37728037032E+03  0.00000000000E+00 0.  1.
         -6    2    1    2    0  503  0.43345375774E+02  0.16041605687E+03 -0.14838370886E+03  0.28196823883E+03  0.17284741754E+03 0.  0.
        -24    2    3    3    0    0  0.16242792460E+02  0.17751329439E+03 -0.89754120879E+02  0.21498776302E+03  0.79932083925E+02 0.  0.
          6    2    1    2  501    0 -0.43345375774E+02 -0.16041605687E+03 -0.72745929658E+02  0.25146286330E+03  0.17415357714E+03 0.  0.
         24    2    5    5    0    0 -0.68309787062E+02 -0.11521298239E+03 -0.10728688117E+03  0.18915951583E+03  0.79565000089E+02 0.  0.
          5    1    5    5  501    0  0.24964411287E+02 -0.45203074483E+02  0.34540951514E+02  0.62303347463E+02  0.47000000000E+01 0. -1.
        -13    1    6    6    0    0 -0.53378126989E+02 -0.16720492848E+02 -0.43636037999E+02  0.70942956903E+02  0.00000000000E+00 0.  1.
         14    1    6    6    0    0 -0.14931660073E+02 -0.98492489540E+02 -0.63650843173E+02  0.11821655893E+03  0.00000000000E+00 0. -1.
         -5    1    3    3    0  503  0.27102583314E+02 -0.17097237520E+02 -0.58629587977E+02  0.66980475808E+02  0.47000000000E+01 0.  1.
         13    1    4    4    0    0  0.43420718981E-01  0.11080158998E+03 -0.12289503162E+02  0.11148105721E+03  0.00000000000E+00 0. -1.
        -14    1    4    4    0    0  0.16199371741E+02  0.66711704408E+02 -0.77464617717E+02  0.10350670581E+03  0.00000000000E+00 0.  1.
</event>
<event>
12    1  0.8500177E-002  0.2103575E+03  0.7818608E-02  0.1141358E+00
         21   -1    0    0  501  502  0.00000000000E+00  0.00000000000E+00  0.20294911807E+02  0.20294911807E+02  0.00000000000E+00 0. -1.
         21   -1    0    0  502  503 -0.00000000000E+00 -0.00000000000E+00 -0.22193518116E+04  0.22193518116E+04  0.00000000000E+00 0.  1.
         -6    2    1    2    0  503 -0.11633462771E+03  0.32437273837E+02 -0.12561575877E+04  0.12736491601E+04  0.17223349128E+03 0.  0.
        -24    2    3    3    0    0  0.31529770059E+01  0.31537522599E+01 -0.65846510709E+03  0.66340887652E+03  0.80716496249E+02 0.  0.
          6    2    1    2  501    0  0.11633462771E+03 -0.32437273837E+02 -0.94289931201E+03  0.96599756324E+03  0.17177385497E+03 0.  0.
         24    2    5    5    0    0  0.59174915113E+02 -0.75331752951E+02 -0.41457232306E+03  0.43283842533E+03  0.79387327775E+02 0.  0.
          5    1    5    5  501    0  0.57159712602E+02  0.42894479115E+02 -0.52832698895E+03  0.53315913791E+03  0.47000000000E+01 0. -1.
        -13    1    6    6    0    0  0.18863186090E+02 -0.79843224887E+02 -0.31006048123E+03  0.32073082541E+03  0.00000000000E+00 0.  1.
         14    1    6    6    0    0  0.40311729023E+02  0.45114719354E+01 -0.10451184184E+03  0.11210759992E+03  0.00000000000E+00 0. -1.
         -5    1    3    3    0  503 -0.11948760472E+03  0.29283521577E+02 -0.59769248065E+03  0.61024028361E+03  0.47000000000E+01 0.  1.
         11    1    4    4    0    0  0.13919235679E+02  0.23206544693E+02 -0.79174553575E+02  0.83671373672E+02  0.00000000000E+00 0. -1.
        -12    1    4    4    0    0 -0.10766258673E+02 -0.20052792434E+02 -0.57929055352E+03  0.57973750285E+03  0.00000000000E+00 0.  1.
</event>
<event>
12    1  0.8500177E-002  0.2421697E+03  0.7818608E-02  0.1119133E+00
         21   -1    0    0  503  502  0.00000000000E+00  0.00000000000E+00  0.65096730225E+03  0.65096730225E+03  0.00000000000E+00 0. -1.
         21   -1    0    0  501  503 -0.00000000000E+00 -0.00000000000E+00 -0.16672191826E+03  0.16672191826E+03  0.00000000000E+00 0.  1.
          6    2    1    2  501    0  0.11652222306E+03 -0.12583053299E+03 -0.36913313847E+02  0.24496683170E+03  0.17098363779E+03 0.  0.
         24    2    3    3    0    0  0.11938468009E+03 -0.88957562482E+02 -0.80790894090E+02  0.18738956481E+03  0.80134453686E+02 0.  0.
         -6    2    1    2    0  502 -0.11652222306E+03  0.12583053299E+03  0.52115869784E+03  0.57272238882E+03  0.16429788442E+03 0.  0.
        -24    2    5    5    0    0 -0.86423717233E+02  0.13684533626E+03  0.50516667801E+03  0.53659648894E+03  0.80911769279E+02 0.  0.
          5    1    3    3  501    0 -0.28624570305E+01 -0.36872970506E+02  0.43877580243E+02  0.57577266887E+02  0.47000000000E+01 0. -1.
        -13    1    4    4    0    0  0.13075183823E+03 -0.83820073016E+02 -0.68073247497E+02  0.16957539581E+03  0.00000000000E+00 0.  1.
         14    1    4    4    0    0 -0.11367158136E+02 -0.51374894663E+01 -0.12717646593E+02  0.17814168995E+02  0.00000000000E+00 0. -1.
         -5    1    5    5    0  502 -0.30098505829E+02 -0.11014803274E+02  0.15992019826E+02  0.36125899884E+02  0.47000000000E+01 0.  1.
         11    1    6    6    0    0 -0.80447381829E+02  0.12386626914E+03  0.33851345331E+03  0.36933181821E+03  0.00000000000E+00 0. -1.
        -12    1    6    6    0    0 -0.59763354040E+01  0.12979067125E+02  0.16665322470E+03  0.16726467072E+03  0.00000000000E+00 0.  1.
</event>
<event>
12    1  0.8500177E-002  0.2283436E+03  0.7818608E-02  0.1127843E+00
         21   -1    0    0  501  502  0.00000000000E+00  0.00000000000E+00  0.56668805953E+02  0.56668805953E+02  0.00000000000E+00 0.  1.
         21   -1    0    0  502  503 -0.00000000000E+00 -0.00000000000E+00 -0.93813576994E+03  0.93813576994E+03  0.00000000000E+00 0. -1.
         -6    2    1    2    0  503  0.11220704475E+03  0.99143794682E+02 -0.51091791423E+03  0.55954904080E+03  0.17215719871E+03 0.  0.
        -24    2    3    3    0    0  0.39294052472E+02  0.74590207069E+02 -0.43439378575E+03  0.45093405405E+03  0.86809207190E+02 0.  0.
          6    2    1    2  501    0 -0.11220704475E+03 -0.99143794682E+02 -0.37054904976E+03  0.43525553509E+03  0.17239741771E+03 0.  0.
         24    2    5    5    0    0 -0.21925030239E+02 -0.10407823022E+03 -0.17318563980E+03  0.21811595697E+03  0.79172721891E+02 0.  0.
          5    1    5    5  501    0 -0.90282014513E+02  0.49344355432E+01 -0.19736340996E+03  0.21713957812E+03  0.47000000000E+01 0. -1.
        -11    1    6    6    0    0 -0.19962412795E+02  0.72440461502E+01 -0.29104538478E+02  0.36028437231E+02  0.00000000000E+00 0.  1.
         12    1    6    6    0    0 -0.19626174437E+01 -0.11132227638E+03 -0.14408110132E+03  0.18208751974E+03  0.00000000000E+00 0. -1.
         -5    1    3    3    0  503  0.72912992280E+02  0.24553587612E+02 -0.76524128480E+02  0.10861498675E+03  0.47000000000E+01 0.  1.
         13    1    4    4    0    0  0.19955223081E+01  0.40940528308E+02 -0.35239805839E+03  0.35477387238E+03  0.00000000000E+00 0. -1.
        -14    1    4    4    0    0  0.37298530164E+02  0.33649678762E+02 -0.81995727359E+02  0.96160181667E+02  0.00000000000E+00 0.  1.
</event>
<event>
12    1  0.8500177E-002  0.1981905E+03  0.7818608E-02  0.1151483E+00
         21   -1    0    0  503  502  0.00000000000E+00  0.00000000000E+00  0.13582428677E+03  0.13582428677E+03  0.00000000000E+00 0. -1.
         21   -1    0    0  501  503 -0.00000000000E+00 -0.00000000000E+00 -0.33822806175E+03  0.33822806175E+03  0.00000000000E+00 0. -1.
          6    2    1    2  501    0  0.91355917504E+02  0.15842402135E+02 -0.98672321681E+01  0.19843596556E+03  0.17516445070E+03 0.  0.
         24    2    3    3    0    0  0.55883788531E+02 -0.44359734297E+02 -0.48192215142E+02  0.11860199106E+03  0.81566897912E+02 0.  0.
         -6    2    1    2    0  502 -0.91355917504E+02 -0.15842402135E+02 -0.19253654281E+03  0.27561638296E+03  0.17406086542E+03 0.  0.
        -24    2    5    5    0    0 -0.97178354034E+02  0.33364432742E+02 -0.18102448030E+03  0.22452987839E+03  0.84184238178E+02 0.  0.
          5    1    3    3  501    0  0.35472128973E+02  0.60202136432E+02  0.38324982974E+02  0.79833974502E+02  0.47000000000E+01 0. -1.
        -11    1    4    4    0    0 -0.15427227149E+00 -0.50698487269E+02 -0.13785941692E+02  0.52539628849E+02  0.00000000000E+00 0.  1.
         12    1    4    4    0    0  0.56038060802E+02  0.63387529722E+01 -0.34406273450E+02  0.66062362208E+02  0.00000000000E+00 0. -1.
         -5    1    5    5    0  502  0.58224365297E+01 -0.49206834877E+02 -0.11512062511E+02  0.51086504568E+02  0.47000000000E+01 0.  1.
         13    1    6    6    0    0 -0.25630943392E+02  0.42706715931E+02 -0.12037056554E+03  0.13026849923E+03  0.00000000000E+00 0. -1.
        -14    1    6    6    0    0 -0.71547410642E+02 -0.93422831890E+01 -0.60653914765E+02  0.94261379160E+02  0.00000000000E+00 0.  1.
</event>
<event>
12    1  0.8500177E-002  0.2824951E+03  0.7818608E-02  0.1094371E+00
         21   -1    0    0  501  502  0.00000000000E+00  0.00000000000E+00  0.45078364655E+03  0.45078364655E+03  0.00000000000E+00 0.  1.
         21   -1    0    0  502  503 -0.00000000000E+00 -0.00000000000E+00 -0.19134750825E+03  0.19134750825E+03  0.00000000000E+00 0. -1.
         -6    2    1    2    0  503  0.17069846341E+03  0.14474257351E+03  0.41310469734E+02  0.28522460209E+03  0.17192481127E+03 0.  0.
        -24    2    3    3    0    0  0.45144457281E+02  0.10676781150E+03 -0.14717794610E+02  0.14251108692E+03  0.81580689029E+02 0.  0.
          6    2    1    2  501    0 -0.17069846341E+03 -0.14474257351E+03  0.21812566857E+03  0.35690655271E+03  0.17238068941E+03 0.  0.
         24    2    5    5    0    0 -0.13285095958E+03 -0.11859763749E+03  0.23673474548E+03  0.30706300780E+03  0.80805779246E+02 0.  0.
          5    1    5    5  501    0 -0.37847503835E+02 -0.26144936023E+02 -0.18609076912E+02  0.49843544915E+02  0.47000000000E+01 0. -1.
        -11    1    6    6    0    0 -0.10336127399E+03 -0.12739991455E+03  0.20843877371E+03  0.26525650524E+03  0.00000000000E+00 0.  1.
         12    1    6    6    0    0 -0.29489685586E+02  0.88022770560E+01  0.28295971775E+02  0.41806502557E+02  0.00000000000E+00 0. -1.
         -5    1    3    3    0  503  0.12555400613E+03  0.37974762013E+02  0.56028264344E+02  0.14271351517E+03  0.47000000000E+01 0.  1.
         11    1    4    4    0    0  0.39006905802E+02  0.30800929455E+02  0.26011146318E+02  0.56096485526E+02  0.00000000000E+00 0. -1.
        -12    1    4    4    0    0  0.61375514782E+01  0.75966882045E+02 -0.40728940928E+02  0.86414601399E+02  0.00000000000E+00 0.  1.
</event>
<event>
12    1  0.8500177E-002  0.1882626E+03  0.7818608E-02  0.1160242E+00
         21   -1    0    0  501  502  0.00000000000E+00  0.00000000000E+00  0.31210482727E+03  0.31210482727E+03  0.00000000000E+00 0. -1.
         21   -1    0    0  502  503 -0.00000000000E+00 -0.00000000000E+00 -0.12032849158E+03  0.12032849158E+03  0.00000000000E+00 0.  1.
         -6    2    1    2    0  503  0.79340185203E+02  0.40369082585E+00  0.14894940432E+03  0.23936093704E+03  0.16974305636E+03 0.  0.
        -24    2    3    3    0    0  0.13476631281E+02  0.40763990845E+02  0.30139341161E+02  0.97569249486E+02  0.82268195674E+02 0.  0.
          6    2    1    2  501    0 -0.79340185203E+02 -0.40369082585E+00  0.42826931365E+02  0.19307238180E+03  0.17072718181E+03 0.  0.
         24    2    5    5    0    0 -0.11813353606E+03 -0.21295037945E+02  0.33093509404E+02  0.14770497105E+03  0.79451665336E+02 0.  0.
          5    1    5    5  501    0  0.38793350858E+02  0.20891347119E+02  0.97334219613E+01  0.45367410752E+02  0.47000000000E+01 0. -1.
        -13    1    6    6    0    0 -0.19940815387E+02 -0.17607318381E+02 -0.22469637993E+02  0.34821522230E+02  0.00000000000E+00 0.  1.
         14    1    6    6    0    0 -0.98192720673E+02 -0.36877195642E+01  0.55563147396E+02  0.11288344882E+03  0.00000000000E+00 0. -1.
         -5    1    3    3    0  503  0.65863553921E+02 -0.40360300019E+02  0.11881006316E+03  0.14179168756E+03  0.47000000000E+01 0.  1.
         13    1    4    4    0    0  0.15915867153E+02  0.31996759644E+02  0.58074548723E+02  0.68189153569E+02  0.00000000000E+00 0. -1.
        -14    1    4    4    0    0 -0.24392358718E+01  0.87672312007E+01 -0.27935207563E+02  0.29380095918E+02  0.00000000000E+00 0.  1.
</event>
<event>
12    1  0.8500177E-002  0.1849542E+03  0.7818608E-02  0.1163198E+00
         21   -1    0    0  503  502  0.00000000000E+00  0.00000000000E+00  0.89204706380E+02  0.89204706380E+02  0.00000000000E+00 0.  1.
         21   -1    0    0  501  503 -0.00000000000E+00 -0.00000000000E+00 -0.39574130917E+03  0.39574130917E+03  0.00000000000E+00 0.  1.
          6    2    1    2  501    0  0.66824965897E+02  0.27728783955E+00 -0.19736438501E+03  0.27017493866E+03  0.17197716143E+03 0.  0.
         24    2    3    3    0    0  0.70118911659E+02  0.57730953983E+02 -0.14836006682E+03  0.19444326078E+03  0.86878923905E+02 0.  0.
         -6    2    1    2    0  502 -0.66824965897E+02 -0.27728783955E+00 -0.10917221779E+03  0.21477107690E+03  0.17245981961E+03 0.  0.
        -24    2    5    5    0    0 -0.53585901753E+01  0.51967323921E+02 -0.87092829361E+02  0.13100232260E+03  0.82747388824E+02 0.  0.
          5    1    3    3  501    0 -0.32939457619E+01 -0.57453666144E+02 -0.49004318193E+02  0.75731677874E+02  0.47000000000E+01 0. -1.
        -11    1    4    4    0    0  0.61799225520E+02  0.22808818996E+02 -0.33101116994E+02  0.73722930254E+02  0.00000000000E+00 0.  1.
         12    1    4    4    0    0  0.83196861383E+01  0.34922134988E+02 -0.11525894982E+03  0.12072033053E+03  0.00000000000E+00 0. -1.
         -5    1    5    5    0  502 -0.61466375722E+02 -0.52244611761E+02 -0.22079388425E+02  0.83768754292E+02  0.47000000000E+01 0.  1.
         11    1    6    6    0    0 -0.42734384390E+02  0.26374281791E+02 -0.31453728761E+02  0.59255104440E+02  0.00000000000E+00 0. -1.
        -12    1    6    6    0    0  0.37375794215E+02  0.25593042130E+02 -0.55639100600E+02  0.71747218164E+02  0.00000000000E+00 0.  1.
</event>
<event>
12    1  0.8500177E-002  0.2225858E+03  0.7818608E-02  0.1132100E+00
         21   -1    0    0  501  502  0.00000000000E+00  0.00000000000E+00  0.13219050038E+03  0.13219050038E+03  0.00000000000E+00 0. -1.
         21   -1    0    0  502  503 -0.00000000000E+00 -0.00000000000E+00 -0.37447240226E+03  0.37447240226E+03  0.00000000000E+00 0.  1.
         -6    2    1    2    0  503  0.59043987884E+02 -0.12808162551E+03 -0.13315369413E+03  0.25876489388E+03  0.17128417541E+03 0.  0.
        -24    2    3    3    0    0  0.10203716713E+03 -0.12130780405E+03 -0.97471749404E+02  0.20228844482E+03  0.79326579253E+02 0.  0.
          6    2    1    2  501    0 -0.59043987884E+02  0.12808162551E+03 -0.10912820774E+03  0.24789800876E+03  0.17220151487E+03 0.  0.
         24    2    5    5    0    0  0.33978179711E+02  0.38480177723E+02 -0.57679801634E+02  0.10879167677E+03  0.76638297502E+02 0.  0.
          5    1    5    5  501    0 -0.93022167595E+02  0.89601447782E+02 -0.51448406107E+02  0.13910633199E+03  0.47000000000E+01 0. -1.
        -11    1    6    6    0    0 -0.14351986323E+02  0.30778907916E+02 -0.48167658093E+02  0.58935931061E+02  0.00000000000E+00 0.  1.
         12    1    6    6    0    0  0.48330166034E+02  0.77012698069E+01 -0.95121435413E+01  0.49855745709E+02  0.00000000000E+00 0. -1.
         -5    1    3    3    0  503 -0.42993179244E+02 -0.67738214545E+01 -0.35681944729E+02  0.56476449059E+02  0.47000000000E+01 0.  1.
         13    1    4    4    0    0  0.88639097852E+02 -0.13087299392E+03 -0.97704575375E+02  0.18582468688E+03  0.00000000000E+00 0. -1.
        -14    1    4    4    0    0  0.13398069276E+02  0.95651898667E+01  0.23282597091E+00  0.16463757938E+02  0.00000000000E+00 0.  1.
</event>
<event>
12    1  0.8500177E-002  0.1779087E+03  0.7818608E-02  0.1171088E+00
         21   -1    0    0  503  502  0.00000000000E+00  0.00000000000E+00  0.50703997089E+03  0.50703997089E+03  0.00000000000E+00 0. -1.
         21   -1    0    0  501  503 -0.00000000000E+00 -0.00000000000E+00 -0.14132518833E+03  0.14132518833E+03  0.00000000000E+00 0. -1.
          6    2    1    2  501    0 -0.59683146095E+01  0.43725421279E+02 -0.60897172482E+02  0.18804248277E+03  0.17234841590E+03 0.  0.
         24    2    3    3    0    0  0.63608095727E+02  0.32445399660E+02 -0.28479002730E+02  0.11031768947E+03  0.79121711389E+02 0.  0.
         -6    2    1    2    0  502  0.59683146095E+01 -0.43725421279E+02  0.42661195505E+03  0.46032267645E+03  0.16718753846E+03 0.  0.
        -24    2    5    5    0    0  0.55193396553E+02  0.10445518742E+02  0.24431251427E+03  0.26382133919E+03  0.82205075869E+02 0.  0.
          5    1    3    3  501    0 -0.69576410337E+02  0.11280021620E+02 -0.32418169752E+02  0.77724793297E+02  0.47000000000E+01 0. -1.
        -13    1    4    4    0    0  0.15247669718E+02 -0.25216814356E+02 -0.17475114720E+02  0.34260163347E+02  0.00000000000E+00 0.  1.
         14    1    4    4    0    0  0.48360426009E+02  0.57662214016E+02 -0.11003888010E+02  0.76057526126E+02  0.00000000000E+00 0. -1.
         -5    1    5    5    0  502 -0.49225081944E+02 -0.54170940022E+02  0.18229944078E+03  0.19650133726E+03  0.47000000000E+01 0.  1.
         11    1    6    6    0    0  0.75890010454E+01  0.39149470450E+02  0.14065894430E+03  0.14620264220E+03  0.00000000000E+00 0. -1.
        -12    1    6    6    0    0  0.47604395508E+02 -0.28703951708E+02  0.10365356997E+03  0.11761869700E+03  0.00000000000E+00 0.  1.
</event>
<event>
12    1  0.8500177E-002  0.2096407E+03  0.7818608E-02  0.1141994E+00
         21   -1    0    0  503  502  0.00000000000E+00  0.00000000000E+00  0.20276177759E+03  0.20276177759E+03  0.00000000000E+00 0.  1.
         21   -1    0    0  501  503 -0.00000000000E+00 -0.00000000000E+00 -0.30593613975E+03  0.30593613975E+03  0.00000000000E+00 0.  1.
          6    2    1    2  501    0  0.15738135326E+01 -0.11909172082E+03 -0.18954669289E+03  0.28262552657E+03  0.17252224387E+03 0.  0.
         24    2    3    3    0    0  0.33766136417E+02 -0.14410504254E+03 -0.15858391092E+03  0.23121739703E+03  0.80038819515E+02 0.  0.
         -6    2    1    2    0  502 -0.15738135326E+01  0.11909172082E+03  0.86372330737E+02  0.22607239076E+03  0.17164856974E+03 0.  0.
        -24    2    5    5    0    0  0.15891629987E+02  0.28230431601E+01  0.70049469026E+02  0.10727856544E+03  0.79631959758E+02 0.  0.
          5    1    3    3  501    0 -0.32192322885E+02  0.25013321724E+02 -0.30962781967E+02  0.51408129547E+02  0.47000000000E+01 0. -1.
        -13    1    4    4    0    0 -0.30822820448E+01 -0.57195410281E+02 -0.11234186608E+03  0.12610119069E+03  0.00000000000E+00 0.  1.
         14    1    4    4    0    0  0.36848418462E+02 -0.86909632260E+02 -0.46242044845E+02  0.10511620633E+03  0.00000000000E+00 0. -1.
         -5    1    5    5    0  502 -0.17465443520E+02  0.11626867766E+03  0.16322861710E+02  0.11879382533E+03  0.47000000000E+01 0.  1.
         11    1    6    6    0    0 -0.32132808649E+02  0.85451174010E-01  0.36517628456E+02  0.48642182122E+02  0.00000000000E+00 0. -1.
        -12    1    6    6    0    0  0.48024438636E+02  0.27375919861E+01  0.33531840571E+02  0.58636383315E+02  0.00000000000E+00 0.  1.
</event>
<event>
12    1  0.8500177E-002  0.1846305E+03  0.7818608E-02  0.1163579E+00
         21   -1    0    0  501  502  0.00000000000E+00  0.00000000000E+00  0.43310942528E+03  0.43310942528E+03  0.00000000000E+00 0. -1.
         21   -1    0    0  502  503 -0.00000000000E+00 -0.00000000000E+00 -0.74545386618E+03  0.74545386618E+03  0.00000000000E+00 0.  1.
         -6    2    1    2    0  503  0.50690169908E+02 -0.41246959858E+02 -0.71365159808E+03  0.73714790838E+03  0.17267782245E+03 0.  0.
        -24    2    3    3    0    0  0.23478123308E+02  0.16395430056E+02 -0.17224340687E+03  0.19197998920E+03  0.79802836055E+02 0.  0.
          6    2    1    2  501    0 -0.50690169908E+02  0.41246959858E+02  0.40130715718E+03  0.44141538308E+03  0.17184091768E+03 0.  0.
         24    2    5    5    0    0 -0.50016844017E+01 -0.41247265042E+02  0.19845398010E+03  0.21766499470E+03  0.79168895264E+02 0.  0.
          5    1    5    5  501    0 -0.45688485507E+02  0.82494224899E+02  0.20285317708E+03  0.22375038838E+03  0.47000000000E+01 0. -1.
        -13    1    6    6    0    0 -0.28056568478E+02  0.10773906734E+01  0.24849257486E+02  0.37494231597E+02  0.00000000000E+00 0.  1.
         14    1    6    6    0    0  0.23054884076E+02 -0.42324655715E+02  0.17360472262E+03  0.18017076310E+03  0.00000000000E+00 0. -1.
         -5    1    3    3    0  503  0.27212046601E+02 -0.57642389913E+02 -0.54140819121E+03  0.54516791918E+03  0.47000000000E+01 0.  1.
         13    1    4    4    0    0  0.17766802783E+02 -0.31065358860E+02 -0.58191666465E+02  0.68315341236E+02  0.00000000000E+00 0. -1.
        -14    1    4    4    0    0  0.57113205244E+01  0.47460788916E+02 -0.11405174040E+03  0.12366464796E+03  0.00000000000E+00 0.  1.
</event>
<event>
12    1  0.8500177E-002  0.1831044E+03  0.7818608E-02  0.1165307E+00
         21   -1    0    0  503  502  0.00000000000E+00  0.00000000000E+00  0.50971751380E+02  0.50971751380E+02  0.00000000000E+00 0.  1.
         21   -1    0    0  501  503 -0.00000000000E+00 -0.00000000000E+00 -0.65167526862E+03  0.65167526862E+03  0.00000000000E+00 0.  1.
          6    2    1    2  501    0 -0.56394690237E+02  0.11937888236E+01 -0.31614291089E+03  0.36534033340E+03  0.17419940552E+03 0.  0.
         24    2    3    3    0    0 -0.75351186419E+02 -0.41939405797E+02 -0.14345907451E+03  0.18628274888E+03  0.81755987049E+02 0.  0.
         -6    2    1    2    0  502  0.56394690237E+02 -0.11937888236E+01 -0.28456060635E+03  0.33730668660E+03  0.17210251573E+03 0.  0.
        -24    2    5    5    0    0 -0.15233454378E+02  0.46293343963E+02 -0.13452872591E+03  0.16434058001E+03  0.80837592217E+02 0.  0.
          5    1    3    3  501    0  0.18956496183E+02  0.43133194621E+02 -0.17268383639E+03  0.17905758452E+03  0.47000000000E+01 0. -1.
        -13    1    4    4    0    0 -0.92327121637E+02 -0.41531737940E+02 -0.12898348572E+03  0.16396927223E+03  0.00000000000E+00 0.  1.
         14    1    4    4    0    0  0.16975935218E+02 -0.40766785750E+00 -0.14475588784E+02  0.22313476651E+02  0.00000000000E+00 0. -1.
         -5    1    5    5    0  502  0.71628144615E+02 -0.47487132787E+02 -0.15003188044E+03  0.17296610659E+03  0.47000000000E+01 0.  1.
         13    1    6    6    0    0 -0.38414680221E+02 -0.31270773657E+01 -0.42780438506E+02  0.57581526448E+02  0.00000000000E+00 0. -1.
        -14    1    6    6    0    0  0.23181225843E+02  0.49420421329E+02 -0.91748287403E+02  0.10675905356E+03  0.00000000000E+00 0.  1.
</event>
<event>
12    1  0.8500177E-002  0.1927518E+03  0.7818608E-02  0.1156259E+00
         21   -1    0    0  503  502  0.00000000000E+00  0.00000000000E+00  0.12259613574E+03  0.12259613574E+03  0.00000000000E+00 0.  1.
         21   -1    0    0  501  503 -0.00000000000E+00 -0.00000000000E+00 -0.47646007673E+03  0.47646007673E+03  0.00000000000E+00 0.  1.
          6    2    1    2  501    0 -0.85091595548E+02  0.28619045300E+01 -0.35890695697E+03  0.40739105376E+03  0.17292916698E+03 0.  0.
         24    2    3    3    0    0 -0.36845926303E+02 -0.50923388879E+02 -0.29177553328E+03  0.30865291303E+03  0.78631069445E+02 0.  0.
         -6    2    1    2    0  502  0.85091595548E+02 -0.28619045300E+01  0.50430159887E+01  0.19166515871E+03  0.17164303342E+03 0.  0.
        -24    2    5    5    0    0  0.54948059083E+02 -0.48824866341E+02  0.51542077629E+02  0.11951615052E+03  0.78894662047E+02 0.  0.
          5    1    3    3  501    0 -0.48245669244E+02  0.53785293409E+02 -0.67131423694E+02  0.98738140731E+02  0.47000000000E+01 0. -1.
        -13    1    4    4    0    0 -0.51328782609E+00 -0.83468709737E+01 -0.20637753194E+03  0.20654689397E+03  0.00000000000E+00 0.  1.
         14    1    4    4    0    0 -0.36332638477E+02 -0.42576517905E+02 -0.85398001343E+02  0.10210601906E+03  0.00000000000E+00 0. -1.
         -5    1    5    5    0  502  0.30143536465E+02  0.45962961811E+02 -0.46499061641E+02  0.72149008188E+02  0.47000000000E+01 0.  1.
         11    1    6    6    0    0  0.61642768583E+01 -0.49477354634E+02  0.50135585571E+02  0.70707735583E+02  0.00000000000E+00 0. -1.
        -12    1    6    6    0    0  0.48783782225E+02  0.65248829309E+00  0.14064920585E+01  0.48808414941E+02  0.00000000000E+00 0.  1.
</event>
<event>
12    1  0.8500177E-002  0.1944169E+03  0.7818608E-02  0.1154549E+00
         21   -1    0    0  503  502  0.00000000000E+00  0.00000000000E+00  0.45680986422E+02  0.45680986422E+02  0.00000000000E+00 0. -1.
         21   -1    0    0  501  503 -0.00000000000E+00 -0.00000000000E+00 -0.14572983023E+04  0.14572983023E+04  0.00000000000E+00 0. -1.
          6    2    1    2  501    0  0.89759671656E+02  0.16511728323E+02 -0.11998974306E+04  0.12155367187E+04  0.17159905229E+03 0.  0.
         24    2    3    3    0    0  0.22378414416E+02  0.40788851163E+02 -0.97939853735E+03  0.98364996953E+03  0.78620886429E+02 0.  0.
         -6    2    1    2    0  502 -0.89759671656E+02 -0.16511728323E+02 -0.21171988530E+03  0.28744257003E+03  0.17166387333E+03 0.  0.
        -24    2    5    5    0    0 -0.39631540996E+02  0.34067509802E+02 -0.19141472781E+03  0.21324366011E+03  0.78115339657E+02 0.  0.
          5    1    3    3  501    0  0.67381257240E+02 -0.24277122840E+02 -0.22049889322E+03  0.23188674915E+03  0.47000000000E+01 0. -1.
        -13    1    4    4    0    0 -0.61341237485E+01  0.56776501577E+02 -0.70554437328E+03  0.70785172266E+03  0.00000000000E+00 0.  1.
         14    1    4    4    0    0  0.28512538165E+02 -0.15987650414E+02 -0.27385416407E+03  0.27579824687E+03  0.00000000000E+00 0. -1.
         -5    1    5    5    0  502 -0.50128130660E+02 -0.50579238125E+02 -0.20305157492E+02  0.74198909921E+02  0.47000000000E+01 0.  1.
         13    1    6    6    0    0 -0.19866258156E+02  0.96631699341E+01 -0.30762770007E+01  0.22304899607E+02  0.00000000000E+00 0. -1.
        -14    1    6    6    0    0 -0.19765282840E+02  0.24404339868E+02 -0.18833845081E+03  0.19093876050E+03  0.00000000000E+00 0.  1.
</event>
<event>
12    1  0.8500177E-002  0.1998151E+03  0.7818608E-02  0.1149908E+00
         21   -1    0    0  503  502  0.00000000000E+00  0.00000000000E+00  0.34415459323E+03  0.34415459323E+03  0.00000000000E+00 0.  1.
         21   -1    0    0  501  503 -0.00000000000E+00 -0.00000000000E+00 -0.14436038733E+03  0.14436038733E+03  0.00000000000E+00 0. -1.
          6    2    1    2  501    0 -0.62008873591E+00  0.10314012957E+03 -0.83968005463E+01  0.19999148864E+03  0.17113684125E+03 0.  0.
         24    2    3    3    0    0 -0.36141078647E+02  0.13114347687E+02 -0.38493366516E+02  0.98530779939E+02  0.82148716659E+02 0.  0.
         -6    2    1    2    0  502  0.62008873591E+00 -0.10314012957E+03  0.20819100645E+03  0.28852349192E+03  0.17106735337E+03 0.  0.
        -24    2    5    5    0    0 -0.56216915766E+02 -0.88069462167E+02  0.18281060502E+03  0.22430647803E+03  0.77311751971E+02 0.  0.
          5    1    3    3  501    0  0.35520989911E+02  0.90025781881E+02  0.30096565970E+02  0.10146070870E+03  0.47000000000E+01 0. -1.
        -13    1    4    4    0    0  0.20908064833E+02  0.20814113730E+02 -0.40555658148E+00  0.29504897587E+02  0.00000000000E+00 0.  1.
         14    1    4    4    0    0 -0.57049143480E+02 -0.76997660435E+01 -0.38087809935E+02  0.69025882353E+02  0.00000000000E+00 0. -1.
         -5    1    5    5    0  502  0.56837004502E+02 -0.15070667401E+02  0.25380401423E+02  0.64217013891E+02  0.47000000000E+01 0.  1.
         13    1    6    6    0    0  0.19425262009E+02 -0.12790838505E+02  0.32708879698E+02  0.40134986794E+02  0.00000000000E+00 0. -1.
        -14    1    6    6    0    0 -0.75642177775E+02 -0.75278623662E+02  0.15010172533E+03  0.18417149124E+03  0.00000000000E+00 0.  1.
</event>
<event>
12    1  0.8500177E-002  0.2027145E+03  0.7818608E-02  0.1147515E+00
         21   -1    0    0  503  502  0.00000000000E+00  0.00000000000E+00  0.13842125177E+03  0.13842125177E+03  0.00000000000E+00 0. -1.
         21   -1    0    0  501  503 -0.00000000000E+00 -0.00000000000E+00 -0.61939211733E+03  0.61939211733E+03  0.00000000000E+00 0. -1.
          6    2    1    2  501    0 -0.78876589167E+02 -0.72082899985E+02 -0.51410603892E+03  0.55262843432E+03  0.17226638203E+03 0.  0.
         24    2    3    3    0    0  0.15133051857E+02 -0.16548200683E+02 -0.11965956198E+03  0.14332166844E+03  0.75629608387E+02 0.  0.
         -6    2    1    2    0  502  0.78876589167E+02  0.72082899985E+02  0.33135173350E+02  0.20518493478E+03  0.17200423529E+03 0.  0.
        -24    2    5    5    0    0  0.70128954152E+02 -0.16318431921E+02 -0.65358540168E+00  0.11002671486E+03  0.83193084913E+02 0.  0.
          5    1    3    3  501    0 -0.94009641023E+02 -0.55534699302E+02 -0.39444647693E+03  0.40930676588E+03  0.47000000000E+01 0. -1.
        -11    1    4    4    0    0 -0.15619328831E+02  0.22257543907E+02 -0.59410961537E+02  0.65337768899E+02  0.00000000000E+00 0.  1.
         12    1    4    4    0    0  0.30752380688E+02 -0.38805744591E+02 -0.60248600447E+02  0.77983899538E+02  0.00000000000E+00 0. -1.
         -5    1    5    5    0  502  0.87476350150E+01  0.88401331906E+02  0.33788758751E+02  0.95158219924E+02  0.47000000000E+01 0.  1.
         11    1    6    6    0    0  0.39806191196E+02  0.32189870958E+02 -0.97175298181E+01  0.52107111181E+02  0.00000000000E+00 0. -1.
        -12    1    6    6    0    0  0.30322762956E+02 -0.48508302880E+02  0.90639444164E+01  0.57919603676E+02  0.00000000000E+00 0.  1.
</event>
<event>
12    1  0.8500177E-002  0.2037803E+03  0.7818608E-02  0.1147330E+00
         21   -1    0    0  503  502  0.00000000000E+00  0.00000000000E+00  0.17691560698E+03  0.17691560698E+03  0.00000000000E+00 0. -1.
         21   -1    0    0  501  503 -0.00000000000E+00 -0.00000000000E+00 -0.38543274478E+03  0.38543274478E+03  0.00000000000E+00 0.  1.
          6    2    1    2  501    0  0.13545937570E+02  0.10745366699E+03 -0.28189612410E+03  0.34575909688E+03  0.16838689176E+03 0.  0.
         24    2    3    3    0    0  0.63578284115E+02  0.27585038697E+02 -0.14260698696E+03  0.17751585865E+03  0.79824775411E+02 0.  0.
         -6    2    1    2    0  502 -0.13545937570E+02 -0.10745366699E+03  0.73378986292E+02  0.21658925488E+03  0.17261705224E+03 0.  0.
        -24    2    5    5    0    0 -0.52362249311E+01 -0.37871884460E+00 -0.92170204686E+01  0.81022717055E+02  0.80325374155E+02 0.  0.
          5    1    3    3  501    0 -0.50032346545E+02  0.79868628297E+02 -0.13928913714E+03  0.16824323823E+03  0.47000000000E+01 0. -1.
        -11    1    4    4    0    0 -0.15146224304E+02 -0.91846578674E+01 -0.34839416260E+02  0.39083896634E+02  0.00000000000E+00 0.  1.
         12    1    4    4    0    0  0.78724508419E+02  0.36769696564E+02 -0.10776757070E+03  0.13843196201E+03  0.00000000000E+00 0. -1.
         -5    1    5    5    0  502 -0.83097126394E+01 -0.10707494815E+03  0.82596006761E+02  0.13556653783E+03  0.47000000000E+01 0.  1.
         11    1    6    6    0    0  0.83897705571E+01  0.81594665620E+01  0.33443599879E+02  0.35432181946E+02  0.00000000000E+00 0. -1.
        -12    1    6    6    0    0 -0.13625995488E+02 -0.85381854066E+01 -0.42660620348E+02  0.45590535109E+02  0.00000000000E+00 0.  1.
</event>
<event>
12    1  0.8500177E-002  0.1835407E+03  0.7818608E-02  0.1167724E+00
         21   -1    0    0  503  502  0.00000000000E+00  0.00000000000E+00  0.86091293277E+02  0.86091293277E+02  0.00000000000E+00 0.  1.
         21   -1    0    0  501  503 -0.00000000000E+00 -0.00000000000E+00 -0.38323679510E+03  0.38323679510E+03  0.00000000000E+00 0. -1.
          6    2    1    2  501    0 -0.29928953903E+02 -0.11855864758E+02 -0.19690804561E+03  0.26019956353E+03  0.16701715667E+03 0.  0.
         24    2    3    3    0    0 -0.81513058813E+02 -0.24722820469E+02 -0.13554706146E+03  0.17887466694E+03  0.79796892130E+02 0.  0.
         -6    2    1    2    0  502  0.29928953903E+02  0.11855864758E+02 -0.10023745621E+03  0.20912852485E+03  0.18069556848E+03 0.  0.
        -24    2    5    5    0    0 -0.58815539939E+02 -0.84686992339E+01 -0.79211623075E+02  0.11557186422E+03  0.59593522841E+02 0.  0.
          5    1    3    3  501    0  0.51584104910E+02  0.12866955711E+02 -0.61360984153E+02  0.81324896587E+02  0.47000000000E+01 0. -1.
        -13    1    4    4    0    0 -0.39186891667E+01  0.22421785430E+02 -0.12537119225E+02  0.25985995173E+02  0.00000000000E+00 0.  1.
         14    1    4    4    0    0 -0.77594369646E+02 -0.47144605899E+02 -0.12300994224E+03  0.15288867177E+03  0.00000000000E+00 0. -1.
         -5    1    5    5    0  502  0.88744493842E+02  0.20324563992E+02 -0.21025833134E+02  0.93556660627E+02  0.47000000000E+01 0.  1.
         13    1    6    6    0    0 -0.44565870753E+02 -0.28187554416E+02 -0.73707845076E+02  0.90628370203E+02  0.00000000000E+00 0. -1.
        -14    1    6    6    0    0 -0.14249669186E+02  0.19718855182E+02 -0.55037779993E+01  0.24943494019E+02  0.00000000000E+00 0.  1.
</event>
<event>
12    1  0.8500177E-002  0.2725815E+03  0.7818608E-02  0.1099831E+00
         21   -1    0    0  501  502  0.00000000000E+00  0.00000000000E+00  0.51878138225E+03  0.51878138225E+03  0.00000000000E+00 0.  1.
         21   -1    0    0  502  503 -0.00000000000E+00 -0.00000000000E+00 -0.15549930518E+03  0.15549930518E+03  0.00000000000E+00 0.  1.
         -6    2    1    2    0  503 -0.14879616807E+03  0.14994969997E+03  0.86587239784E+02  0.28587279776E+03  0.17204852295E+03 0.  0.
        -24    2    3    3    0    0 -0.20001461240E+02  0.18454376685E+02  0.50147276141E+02  0.98178744829E+02  0.79898023513E+02 0.  0.
          6    2    1    2  501    0  0.14879616807E+03 -0.14994969997E+03  0.27669483729E+03  0.38840788968E+03  0.17226561940E+03 0.  0.
         24    2    5    5    0    0  0.17808987897E+03 -0.14334491947E+03  0.23012932636E+03  0.33280050319E+03  0.74383446690E+02 0.  0.
          5    1    5    5  501    0 -0.29293710900E+02 -0.66047804984E+01  0.46565510933E+02  0.55607386489E+02  0.47000000000E+01 0. -1.
        -13    1    6    6    0    0  0.10237654693E+03 -0.11783568260E+03  0.12075100614E+03  0.19734997071E+03  0.00000000000E+00 0.  1.
         14    1    6    6    0    0  0.75713332046E+02 -0.25509236871E+02  0.10937832022E+03  0.13545053248E+03  0.00000000000E+00 0. -1.
         -5    1    3    3    0  503 -0.12879470683E+03  0.13149532329E+03  0.36439963643E+02  0.18769405293E+03  0.47000000000E+01 0.  1.
         11    1    4    4    0    0 -0.18944772488E+02 -0.11878383227E+02  0.61758869121E+02  0.65682252610E+02  0.00000000000E+00 0. -1.
        -12    1    4    4    0    0 -0.10566887524E+01  0.30332759912E+02 -0.11611592981E+02  0.32496492219E+02  0.00000000000E+00 0.  1.
</event>
<event>
12    1  0.8500177E-002  0.1881897E+03  0.7818608E-02  0.1160200E+00
         21   -1    0    0  503  502  0.00000000000E+00  0.00000000000E+00  0.25668956708E+03  0.25668956708E+03  0.00000000000E+00 0.  1.
         21   -1    0    0  501  503 -0.00000000000E+00 -0.00000000000E+00 -0.24907478989E+03  0.24907478989E+03  0.00000000000E+00 0.  1.
          6    2    1    2  501    0 -0.71421703215E+02  0.25891122700E+02 -0.16531858639E+03  0.25049070871E+03  0.17217418569E+03 0.  0.
         24    2    3    3    0    0 -0.98031698626E+02  0.60900606746E+01 -0.17455181806E+03  0.21574137087E+03  0.80179169011E+02 0.  0.
         -6    2    1    2    0  502  0.71421703215E+02 -0.25891122700E+02  0.17293336358E+03  0.25527364827E+03  0.17171859927E+03 0.  0.
        -24    2    5    5    0    0  0.74708199974E+02 -0.31941586245E+02  0.37320888007E+02  0.11940517252E+03  0.79140169754E+02 0.  0.
          5    1    3    3  501    0  0.26609995411E+02  0.19801062025E+02  0.92332316701E+01  0.34749337838E+02  0.47000000000E+01 0. -1.
        -11    1    4    4    0    0 -0.42198321799E+01  0.21128694206E+02 -0.75396775371E+02  0.78414937600E+02  0.00000000000E+00 0.  1.
         12    1    4    4    0    0 -0.93811866446E+02 -0.15038633532E+02 -0.99155042689E+02  0.13732643327E+03  0.00000000000E+00 0. -1.
         -5    1    5    5    0  502 -0.32864967584E+01  0.60504635452E+01  0.13561247557E+03  0.13586847574E+03  0.47000000000E+01 0.  1.
         11    1    6    6    0    0  0.82651554158E+02 -0.29669916391E+02  0.52363948107E+02  0.10224268387E+03  0.00000000000E+00 0. -1.
        -12    1    6    6    0    0 -0.79433541849E+01 -0.22716698537E+01 -0.15043060100E+02  0.17162488654E+02  0.00000000000E+00 0.  1.
</event>
<event>
12    1  0.8500177E-002  0.2552232E+03  0.7818608E-02  0.1110106E+00
         21   -1    0    0  503  502  0.00000000000E+00  0.00000000000E+00  0.54012898834E+02  0.54012898834E+02  0.00000000000E+00 0.  1.
         21   -1    0    0  501  503 -0.00000000000E+00 -0.00000000000E+00 -0.12117914151E+04  0.12117914151E+04  0.00000000000E+00 0. -1.
          6    2    1    2  501    0 -0.10731196740E+03  0.15559625700E+03 -0.52919676223E+03  0.58752711042E+03  0.17150171655E+03 0.  0.
         24    2    3    3    0    0 -0.89118356319E+02  0.14724811470E+03 -0.28180425332E+03  0.33928158190E+03  0.77937577006E+02 0.  0.
         -6    2    1    2    0  502  0.10731196740E+03 -0.15559625700E+03 -0.62858175406E+03  0.67827720354E+03  0.17093533797E+03 0.  0.
        -24    2    5    5    0    0  0.39136796058E+02 -0.15627873601E+03 -0.53866532547E+03  0.56533751213E+03  0.59088388240E+02 0.  0.
          5    1    3    3  501    0 -0.18193611086E+02  0.83481422953E+01 -0.24739250891E+03  0.24824552852E+03  0.47000000000E+01 0. -1.
        -11    1    4    4    0    0 -0.42791462108E+02  0.18484477851E+02 -0.39919338433E+02  0.61370503760E+02  0.00000000000E+00 0.  1.
         12    1    4    4    0    0 -0.46326894211E+02  0.12876363685E+03 -0.24188491488E+03  0.27791107814E+03  0.00000000000E+00 0. -1.
         -5    1    5    5    0  502  0.68175171346E+02  0.68247901015E+00 -0.89916428597E+02  0.11293969142E+03  0.47000000000E+01 0.  1.
         11    1    6    6    0    0  0.39857696936E+02 -0.51367716018E+02 -0.24556004680E+03  0.25402168182E+03  0.00000000000E+00 0. -1.
        -12    1    6    6    0    0 -0.72090087795E+00 -0.10491101999E+03 -0.29310527867E+03  0.31131583030E+03  0.00000000000E+00 0.  1.
</event>
<event>
12    1  0.8500177E-002  0.2285313E+03  0.7818608E-02  0.1127991E+00
         21   -1    0    0  503  502  0.00000000000E+00  0.00000000000E+00  0.51530749381E+03  0.51530749381E+03  0.00000000000E+00 0.  1.
         21   -1    0    0  501  503 -0.00000000000E+00 -0.00000000000E+00 -0.10073485400E+03  0.10073485400E+03  0.00000000000E+00 0.  1.
          6    2    1    2  501    0  0.77737960075E+02 -0.12753267394E+03  0.19569344607E+03  0.30086955102E+03  0.17297048458E+03 0.  0.
         24    2    3    3    0    0  0.39332823476E+02 -0.15522429155E+03  0.16960235810E+03  0.24660524346E+03  0.80047077014E+02 0.  0.
         -6    2    1    2    0  502 -0.77737960075E+02  0.12753267394E+03  0.21887919374E+03  0.31517279679E+03  0.17064002176E+03 0.  0.
        -24    2    5    5    0    0 -0.37303171663E+01  0.34063545218E+02  0.15889454307E+03  0.18162932990E+03  0.81040096766E+02 0.  0.
          5    1    3    3  501    0  0.38405136599E+02  0.27691617611E+02  0.26091087976E+02  0.54264307559E+02  0.47000000000E+01 0. -1.
        -11    1    4    4    0    0 -0.20809362460E+01 -0.47040939420E+02  0.79817119893E+01  0.47758643233E+02  0.00000000000E+00 0.  1.
         12    1    4    4    0    0  0.41413759722E+02 -0.10818335213E+03  0.16162064611E+03  0.19884660022E+03  0.00000000000E+00 0. -1.
         -5    1    5    5    0  502 -0.74007642909E+02  0.93469128724E+02  0.59984650667E+02  0.13354346689E+03  0.47000000000E+01 0.  1.
         11    1    6    6    0    0 -0.23520394544E+01 -0.25208583201E+02  0.26953486845E+02  0.36979659405E+02  0.00000000000E+00 0. -1.
        -12    1    6    6    0    0 -0.13782777120E+01  0.59272128419E+02  0.13194105623E+03  0.14464967050E+03  0.00000000000E+00 0.  1.
</event>
<event>
12    1  0.8500177E-002  0.1760186E+03  0.7818608E-02  0.1172177E+00
         21   -1    0    0  501  502  0.00000000000E+00  0.00000000000E+00  0.13821211614E+03  0.13821211614E+03  0.00000000000E+00 0.  1.
         21   -1    0    0  502  503 -0.00000000000E+00 -0.00000000000E+00 -0.35031390150E+03  0.35031390150E+03  0.00000000000E+00 0.  1.
         -6    2    1    2    0  503 -0.28402683009E+02  0.13062606849E+01 -0.25363217336E+03  0.30767438312E+03  0.17183081198E+03 0.  0.
        -24    2    3    3    0    0  0.21161570405E+02  0.36561994023E+02 -0.22246545333E+03  0.23916864331E+03  0.76981624740E+02 0.  0.
          6    2    1    2  501    0  0.28402683009E+02 -0.13062606849E+01  0.41530387997E+02  0.18085163453E+03  0.17370700005E+03 0.  0.
         24    2    5    5    0    0  0.36681249230E+02 -0.56674915910E+02  0.61967069173E+02  0.12106893989E+03  0.79121491433E+02 0.  0.
          5    1    5    5  501    0 -0.82785662212E+01  0.55368655225E+02 -0.20436681176E+02  0.59782694633E+02  0.47000000000E+01 0. -1.
        -11    1    6    6    0    0  0.48473610178E+02 -0.66132144181E+01  0.14362417841E+02  0.50987297779E+02  0.00000000000E+00 0.  1.
         12    1    6    6    0    0 -0.11792360947E+02 -0.50061701492E+02  0.47604651333E+02  0.70081642115E+02  0.00000000000E+00 0. -1.
         -5    1    3    3    0  503 -0.49564253414E+02 -0.35255733339E+02 -0.31166720030E+02  0.68505739812E+02  0.47000000000E+01 0.  1.
         13    1    4    4    0    0  0.18470158677E+02 -0.24649016191E+01 -0.18176001976E+03  0.18271269055E+03  0.00000000000E+00 0. -1.
        -14    1    4    4    0    0  0.26914117283E+01  0.39026895643E+02 -0.40705433565E+02  0.56455952762E+02  0.00000000000E+00 0.  1.
</event>
<event>
12    1  0.8500177E-002  0.1728900E+03  0.7818608E-02  0.1176356E+00
         21   -1    0    0  503  502  0.00000000000E+00  0.00000000000E+00  0.24904237568E+03  0.24904237568E+03  0.00000000000E+00 0. -1.
         21   -1    0    0  501  503 -0.00000000000E+00 -0.00000000000E+00 -0.11675127469E+03  0.11675127469E+03  0.00000000000E+00 0. -1.
          6    2    1    2  501    0  0.15272437274E+02 -0.13353743786E+02  0.81151627559E+02  0.19098834549E+03  0.17169563664E+03 0.  0.
         24    2    3    3    0    0  0.22603287359E+02 -0.72890755068E+02  0.69280902494E+02  0.12965808225E+03  0.78660053825E+02 0.  0.
         -6    2    1    2    0  502 -0.15272437274E+02  0.13353743786E+02  0.51139473435E+02  0.17480530488E+03  0.16592190651E+03 0.  0.
        -24    2    5    5    0    0 -0.33286660015E+02  0.95259792998E+01  0.92880372709E+02  0.12894075785E+03  0.82463382083E+02 0.  0.
          5    1    3    3  501    0 -0.73308500845E+01  0.59537011282E+02  0.11870725064E+02  0.61330263239E+02  0.47000000000E+01 0. -1.
        -11    1    4    4    0    0  0.93622074615E+01 -0.80467404782E+02  0.28105040588E+02  0.85746996842E+02  0.00000000000E+00 0.  1.
         12    1    4    4    0    0  0.13241079897E+02  0.75766497142E+01  0.41175861906E+02  0.43911085405E+02  0.00000000000E+00 0. -1.
         -5    1    5    5    0  502  0.18014222740E+02  0.38277644858E+01 -0.41740899275E+02  0.45864547029E+02  0.47000000000E+01 0.  1.
         13    1    6    6    0    0 -0.24827398465E+02  0.12587166944E+02 -0.69624905343E+01  0.28693427134E+02  0.00000000000E+00 0. -1.
        -14    1    6    6    0    0 -0.84592615493E+01 -0.30611876441E+01  0.99842863244E+02  0.10024733072E+03  0.00000000000E+00 0.  1.
</event>
<event>
12    1  0.8500177E-002  0.1910005E+03  0.7818608E-02  0.1157715E+00
         21   -1    0    0  503  502  0.00000000000E+00  0.00000000000E+00  0.56983400613E+03  0.56983400613E+03  0.00000000000E+00 0.  1.
         21   -1    0    0  501  503 -0.00000000000E+00 -0.00000000000E+00 -0.66167712327E+02  0.66167712327E+02  0.00000000000E+00 0.  1.
          6    2    1    2  501    0  0.31027068286E+02 -0.75775859297E+02  0.31252477261E+03  0.36626891321E+03  0.17255875367E+03 0.  0.
         24    2    3    3    0    0  0.56617901754E+02 -0.82925231157E+02  0.13375557283E+03  0.18547477319E+03  0.80175791006E+02 0.  0.
         -6    2    1    2    0  502 -0.31027068286E+02  0.75775859297E+02  0.19114152119E+03  0.26973280525E+03  0.17180234366E+03 0.  0.
        -24    2    5    5    0    0  0.41334468339E+02  0.49980011249E+01  0.77473989379E+02  0.11745642829E+03  0.77847769584E+02 0.  0.
          5    1    3    3  501    0 -0.25590833469E+02  0.71493718607E+01  0.17876919978E+03  0.18079414002E+03  0.47000000000E+01 0. -1.
        -11    1    4    4    0    0  0.29947878605E+02  0.56026976761E+01  0.59662270364E+02  0.66991433476E+02  0.00000000000E+00 0.  1.
         12    1    4    4    0    0  0.26670023149E+02 -0.88527928834E+02  0.74093302467E+02  0.11848333971E+03  0.00000000000E+00 0. -1.
         -5    1    5    5    0  502 -0.72361536625E+02  0.70777858172E+02  0.11366753181E+03  0.15227637695E+03  0.47000000000E+01 0.  1.
         13    1    6    6    0    0  0.25587844648E+02  0.16776112946E+02 -0.64415418202E+01  0.31267702511E+02  0.00000000000E+00 0. -1.
        -14    1    6    6    0    0  0.15746623691E+02 -0.11778111821E+02  0.83915531199E+02  0.86188725783E+02  0.00000000000E+00 0.  1.
</event>
<event>
12    1  0.8500177E-002  0.1753521E+03  0.7818608E-02  0.1172581E+00
         21   -1    0    0  501  502  0.00000000000E+00  0.00000000000E+00  0.80077714620E+03  0.80077714620E+03  0.00000000000E+00 0. -1.
         21   -1    0    0  502  503 -0.00000000000E+00 -0.00000000000E+00 -0.52686385928E+02  0.52686385928E+02  0.00000000000E+00 0. -1.
         -6    2    1    2    0  503  0.27251762349E+02 -0.34506939509E+01  0.15107652603E+03  0.23145729123E+03  0.17318716784E+03 0.  0.
        -24    2    3    3    0    0 -0.39017500450E+02 -0.40666140927E+02  0.93415719292E+02  0.13594046905E+03  0.81100025612E+02 0.  0.
          6    2    1    2  501    0 -0.27251762349E+02  0.34506939509E+01  0.59701423424E+03  0.62200624090E+03  0.17236937662E+03 0.  0.
         24    2    5    5    0    0  0.86442746545E+01 -0.41347393096E+02  0.50916289208E+03  0.51695700295E+03  0.78824880748E+02 0.  0.
          5    1    5    5  501    0 -0.35896037004E+02  0.44798087047E+02  0.87851342164E+02  0.10504923796E+03  0.47000000000E+01 0. -1.
        -11    1    6    6    0    0  0.18032533559E+02 -0.14367392580E+02  0.34861738432E+02  0.41796352025E+02  0.00000000000E+00 0.  1.
         12    1    6    6    0    0 -0.93882589048E+01 -0.26980000516E+02  0.47430115365E+03  0.47516065092E+03  0.00000000000E+00 0. -1.
         -5    1    3    3    0  503  0.66269262799E+02  0.37215446976E+02  0.57660806739E+02  0.95516822180E+02  0.47000000000E+01 0.  1.
         13    1    4    4    0    0  0.14078826451E+02 -0.33326273508E+02  0.67091098659E+02  0.76223811105E+02  0.00000000000E+00 0. -1.
        -14    1    4    4    0    0 -0.53096326900E+02 -0.73398674186E+01  0.26324620633E+02  0.59716657940E+02  0.00000000000E+00 0.  1.
</event>
<event>
12    1  0.8500177E-002  0.3613927E+03  0.7818608E-02  0.1058041E+00
         21   -1    0    0  503  502  0.00000000000E+00  0.00000000000E+00  0.80690102948E+03  0.80690102948E+03  0.00000000000E+00 0. -1.
         21   -1    0    0  501  503 -0.00000000000E+00 -0.00000000000E+00 -0.16626784954E+03  0.16626784954E+03  0.00000000000E+00 0.  1.
          6    2    1    2  501    0  0.27551183475E+03  0.15847899337E+03  0.24081671075E+03  0.43427796099E+03  0.17199504876E+03 0.  0.
         24    2    3    3    0    0  0.92752658010E+02  0.90341192055E+02  0.46389483302E+02  0.15883701737E+03  0.79452044499E+02 0.  0.
         -6    2    1    2    0  502 -0.27551183475E+03 -0.15847899337E+03  0.39981646919E+03  0.53889091803E+03  0.17183669594E+03 0.  0.
        -24    2    5    5    0    0 -0.44005943323E+02 -0.58180768006E+02  0.14617191031E+03  0.18110276279E+03  0.78169421860E+02 0.  0.
          5    1    3    3  501    0  0.18275917674E+03  0.68137801315E+02  0.19442722745E+03  0.27544094363E+03  0.47000000000E+01 0. -1.
        -11    1    4    4    0    0  0.16499908596E+02  0.42358946462E+02 -0.17155508138E+02  0.48588463533E+02  0.00000000000E+00 0.  1.
         12    1    4    4    0    0  0.76252749414E+02  0.47982245593E+02  0.63544991440E+02  0.11024855383E+03  0.00000000000E+00 0. -1.
         -5    1    5    5    0  502 -0.23150589143E+03 -0.10029822536E+03  0.25364455888E+03  0.35778815524E+03  0.47000000000E+01 0.  1.
         13    1    6    6    0    0 -0.27404326589E+02 -0.59594196401E+02  0.15025484981E+03  0.16394811756E+03  0.00000000000E+00 0. -1.
        -14    1    6    6    0    0 -0.16601616733E+02  0.14134283950E+01 -0.40829395016E+01  0.17154645230E+02  0.00000000000E+00 0.  1.
</event>
<event>
12    1  0.8500177E-002  0.1880974E+03  0.7818608E-02  0.1160390E+00
         21   -1    0    0  501  502  0.00000000000E+00  0.00000000000E+00  0.51281925683E+02  0.51281925683E+02  0.00000000000E+00 0. -1.
         21   -1    0    0  502  503 -0.00000000000E+00 -0.00000000000E+00 -0.69401767510E+03  0.69401767510E+03  0.00000000000E+00 0.  1.
         -6    2    1    2    0  503 -0.74654066830E+02 -0.13707123451E+02 -0.35887622494E+03  0.40477522008E+03  0.17114239403E+03 0.  0.
        -24    2    3    3    0    0  0.26174378227E+02 -0.16031335329E+02 -0.19135052733E+03  0.20917683907E+03  0.78726259312E+02 0.  0.
          6    2    1    2  501    0  0.74654066830E+02  0.13707123451E+02 -0.28385952448E+03  0.34052438070E+03  0.17210319373E+03 0.  0.
         24    2    5    5    0    0  0.11630625400E+03  0.21933780564E+02 -0.20578216171E+03  0.25152580117E+03  0.83130590802E+02 0.  0.
          5    1    5    5  501    0 -0.41652187166E+02 -0.82266571132E+01 -0.78077362767E+02  0.88998579537E+02  0.47000000000E+01 0. -1.
        -11    1    6    6    0    0  0.83567624702E+01  0.15046370527E+02 -0.95543450166E+02  0.97081304146E+02  0.00000000000E+00 0.  1.
         12    1    6    6    0    0  0.10794949153E+03  0.68874100371E+01 -0.11023871154E+03  0.15444449702E+03  0.00000000000E+00 0. -1.
         -5    1    3    3    0  503 -0.10082844506E+03  0.23242118778E+01 -0.16752569762E+03  0.19559838101E+03  0.47000000000E+01 0.  1.
         13    1    4    4    0    0 -0.10235133775E+02 -0.22677037906E+02 -0.15146391106E+02  0.29127635934E+02  0.00000000000E+00 0. -1.
        -14    1    4    4    0    0  0.36409512001E+02  0.66457025771E+01 -0.17620413622E+03  0.18004920313E+03  0.00000000000E+00 0.  1.
</event>
<event>
12    1  0.8500177E-002  0.1904488E+03  0.7818608E-02  0.1158085E+00
         21   -1    0    0  503  502  0.00000000000E+00  0.00000000000E+00  0.41755428041E+03  0.41755428041E+03  0.00000000000E+00 0.  1.
         21   -1    0    0  501  503 -0.00000000000E+00 -0.00000000000E+00 -0.93287256864E+02  0.93287256864E+02  0.00000000000E+00 0.  1.
          6    2    1    2  501    0  0.41953141850E+02  0.69071981764E+02  0.94869274027E+02  0.21276964042E+03  0.17245212656E+03 0.  0.
         24    2    3    3    0    0  0.30090771526E+02  0.40075506415E+02 -0.17522993802E+02  0.95997968853E+02  0.79981585172E+02 0.  0.
         -6    2    1    2    0  502 -0.41953141850E+02 -0.69071981764E+02  0.22939774952E+03  0.29807189686E+03  0.17231518632E+03 0.  0.
        -24    2    5    5    0    0  0.16258939462E+02 -0.34984829534E+02  0.20893806610E+03  0.22742298318E+03  0.81103676883E+02 0.  0.
          5    1    3    3  501    0  0.11862370324E+02  0.28996475348E+02  0.11239226783E+03  0.11677167156E+03  0.47000000000E+01 0. -1.
        -11    1    4    4    0    0  0.24294604555E+02  0.45624695032E+01  0.28403705763E+02  0.37653876819E+02  0.00000000000E+00 0.  1.
         12    1    4    4    0    0  0.57961669715E+01  0.35513036912E+02 -0.45926699565E+02  0.58344092034E+02  0.00000000000E+00 0. -1.
         -5    1    5    5    0  502 -0.58212081312E+02 -0.34087152230E+02  0.20459683421E+02  0.70648913675E+02  0.47000000000E+01 0.  1.
         13    1    6    6    0    0  0.21135111631E+02 -0.29638502324E+02  0.26954122652E+02  0.45295236964E+02  0.00000000000E+00 0. -1.
        -14    1    6    6    0    0 -0.48761721693E+01 -0.53463272103E+01  0.18198394345E+03  0.18212774622E+03  0.00000000000E+00 0.  1.
</event>
<event>
12    1  0.8500177E-002  0.2381877E+03  0.7818608E-02  0.1121630E+00
         21   -1    0    0  501  502  0.00000000000E+00  0.00000000000E+00  0.16349960566E+03  0.16349960566E+03  0.00000000000E+00 0.  1.
         21   -1    0    0  502  503 -0.00000000000E+00 -0.00000000000E+00 -0.64148007513E+03  0.64148007513E+03  0.00000000000E+00 0.  1.
         -6    2    1    2    0  503  0.46367094503E+02  0.15346381576E+03 -0.51316247114E+03  0.56420764714E+03  0.17115343148E+03 0.  0.
        -24    2    3    3    0    0  0.59771349837E+02  0.60878077436E+02 -0.15182311555E+03  0.19092489519E+03  0.78251534278E+02 0.  0.
          6    2    1    2  501    0 -0.46367094503E+02 -0.15346381576E+03  0.35182001671E+02  0.24077203364E+03  0.17616000892E+03 0.  0.
         24    2    5    5    0    0 -0.64134932294E+02 -0.23165309471E+02  0.41729036096E+02  0.10902094081E+03  0.74123761233E+02 0.  0.
          5    1    5    5  501    0  0.17767837790E+02 -0.13029850629E+03 -0.65470344244E+01  0.13175109283E+03  0.47000000000E+01 0. -1.
        -13    1    6    6    0    0 -0.30300817543E+02 -0.38505485900E+02 -0.50812268086E+01  0.49260845040E+02  0.00000000000E+00 0.  1.
         14    1    6    6    0    0 -0.33834114751E+02  0.15340176428E+02  0.46810262904E+02  0.59760095775E+02  0.00000000000E+00 0. -1.
         -5    1    3    3    0  503 -0.13404255333E+02  0.92585738325E+02 -0.36133935559E+03  0.37328275195E+03  0.47000000000E+01 0.  1.
         11    1    4    4    0    0  0.33920193507E+02 -0.12863821071E+02 -0.62321592436E+02  0.72111291099E+02  0.00000000000E+00 0. -1.
        -12    1    4    4    0    0  0.25851156330E+02  0.73741898507E+02 -0.89501523110E+02  0.11881360410E+03  0.00000000000E+00 0.  1.
</event>
<event>
12    1  0.8500177E-002  0.1746702E+03  0.7818608E-02  0.1173553E+00
         21   -1    0    0  503  502  0.00000000000E+00  0.00000000000E+00  0.47711140372E+02  0.47711140372E+02  0.00000000000E+00 0.  1.
         21   -1    0    0  501  503 -0.00000000000E+00 -0.00000000000E+00 -0.78726509693E+03  0.78726509693E+03  0.00000000000E+00 0.  1.
          6    2    1    2  501    0 -0.17986805482E+02  0.13274133361E+02 -0.18627133813E+03  0.25535600202E+03  0.17323379743E+03 0.  0.
         24    2    3    3    0    0  0.16646103416E+02  0.39241713449E+02 -0.33450246970E+02  0.96453108726E+02  0.79795227472E+02 0.  0.
         -6    2    1    2    0  502  0.17986805482E+02 -0.13274133361E+02 -0.55328261843E+03  0.57962023528E+03  0.17128407253E+03 0.  0.
        -24    2    5    5    0    0  0.67494579612E+02 -0.30578353223E+02 -0.45609151504E+03  0.46908220426E+03  0.80796598307E+02 0.  0.
          5    1    3    3  501    0 -0.34632908898E+02 -0.25967580088E+02 -0.15282109116E+03  0.15890289329E+03  0.47000000000E+01 0. -1.
        -13    1    4    4    0    0 -0.29885364420E+02  0.22046325158E+02 -0.28076114640E+02  0.46555812449E+02  0.00000000000E+00 0.  1.
         14    1    4    4    0    0  0.46531467836E+02  0.17195388291E+02 -0.53741323298E+01  0.49897296277E+02  0.00000000000E+00 0. -1.
         -5    1    5    5    0  502 -0.49507774130E+02  0.17304219861E+02 -0.97191103390E+02  0.11053803102E+03  0.47000000000E+01 0.  1.
         13    1    6    6    0    0  0.23142714927E+02  0.20346133180E+02 -0.25718810322E+03  0.25902754839E+03  0.00000000000E+00 0. -1.
        -14    1    6    6    0    0  0.44351864685E+02 -0.50924486403E+02 -0.19890341182E+03  0.21005465586E+03  0.00000000000E+00 0.  1.
</event>
<event>
12    1  0.8500177E-002  0.2397842E+03  0.7818608E-02  0.1119984E+00
         21   -1    0    0  501  502  0.00000000000E+00  0.00000000000E+00  0.21906118032E+03  0.21906118032E+03  0.00000000000E+00 0.  1.
         21   -1    0    0  502  503 -0.00000000000E+00 -0.00000000000E+00 -0.85684892721E+03  0.85684892721E+03  0.00000000000E+00 0. -1.
         -6    2    1    2    0  503  0.14034755549E+03 -0.90665740345E+02 -0.76700299964E+03  0.80352610174E+03  0.17158928262E+03 0.  0.
        -24    2    3    3    0    0  0.14823025283E+03 -0.89754689048E+02 -0.77043213946E+03  0.79368659303E+03  0.79653087777E+02 0.  0.
          6    2    1    2  501    0 -0.14034755549E+03  0.90665740345E+02  0.12921525276E+03  0.27238400578E+03  0.17198474425E+03 0.  0.
         24    2    5    5    0    0 -0.76858100507E+02  0.48616205364E+02 -0.27401515600E+01  0.11995896514E+03  0.78178909233E+02 0.  0.
          5    1    5    5  501    0 -0.63489454987E+02  0.42049534981E+02  0.13195540432E+03  0.15242504064E+03  0.47000000000E+01 0. -1.
        -11    1    6    6    0    0  0.95286487812E+01 -0.54624620916E+01 -0.13581094056E+02  0.17466532439E+02  0.00000000000E+00 0.  1.
         12    1    6    6    0    0 -0.86386749288E+02  0.54078667456E+02  0.10840942496E+02  0.10249243270E+03  0.00000000000E+00 0. -1.
         -5    1    3    3    0  503 -0.78826973370E+01 -0.91105129689E+00  0.34291398121E+01  0.98395087085E+01  0.47000000000E+01 0.  1.
         11    1    4    4    0    0  0.76150353715E+02 -0.15287903560E+02 -0.21339244949E+03  0.22708794302E+03  0.00000000000E+00 0. -1.
        -12    1    4    4    0    0  0.72079899117E+02 -0.74466785488E+02 -0.55703968997E+03  0.56659865001E+03  0.00000000000E+00 0.  1.
</event>
<event>
12    1  0.8500177E-002  0.2640975E+03  0.7818608E-02  0.1104706E+00
         21   -1    0    0  503  502  0.00000000000E+00  0.00000000000E+00  0.21885962150E+03  0.21885962150E+03  0.00000000000E+00 0.  1.
         21   -1    0    0  501  503 -0.00000000000E+00 -0.00000000000E+00 -0.35209480473E+03  0.35209480473E+03  0.00000000000E+00 0.  1.
          6    2    1    2  501    0  0.12192070184E+03 -0.15832637001E+03 -0.15455533225E+03  0.30599807975E+03  0.17267187699E+03 0.  0.
         24    2    3    3    0    0  0.10483207602E+03 -0.15928511890E+03 -0.69000011286E+02  0.21862106173E+03  0.81686313472E+02 0.  0.
         -6    2    1    2    0  502 -0.12192070184E+03  0.15832637001E+03  0.21320149019E+02  0.26495634649E+03  0.17267142153E+03 0.  0.
        -24    2    5    5    0    0 -0.36874875081E+02  0.34510746654E+02  0.58022211745E+02  0.11025588545E+03  0.78987563414E+02 0.  0.
          5    1    3    3  501    0  0.17088625815E+02  0.95874888953E+00 -0.85555320967E+02  0.87377018016E+02  0.47000000000E+01 0. -1.
        -11    1    4    4    0    0  0.59830643459E+02 -0.43363127880E+02 -0.57712682382E+02  0.93759375339E+02  0.00000000000E+00 0.  1.
         12    1    4    4    0    0  0.45001432564E+02 -0.11592199102E+03 -0.11287328904E+02  0.12486168639E+03  0.00000000000E+00 0. -1.
         -5    1    5    5    0  502 -0.85045826757E+02  0.12381562336E+03 -0.36702062727E+02  0.15470046103E+03  0.47000000000E+01 0.  1.
         13    1    6    6    0    0  0.20211755733E+02 -0.86514265766E+01  0.16765117389E+02  0.27648352803E+02  0.00000000000E+00 0. -1.
        -14    1    6    6    0    0 -0.57086630814E+02  0.43162173230E+02  0.41257094356E+02  0.82607532649E+02  0.00000000000E+00 0.  1.
</event>
<event>
12    1  0.8500177E-002  0.1862228E+03  0.7818608E-02  0.1162079E+00
         21   -1    0    0  503  502  0.00000000000E+00  0.00000000000E+00  0.43896977032E+03  0.43896977032E+03  0.00000000000E+00 0.  1.
         21   -1    0    0  501  503 -0.00000000000E+00 -0.00000000000E+00 -0.84311475960E+02  0.84311475960E+02  0.00000000000E+00 0.  1.
          6    2    1    2  501    0  0.63707133314E+02  0.31788191424E+02  0.11012966215E+03  0.21635038491E+03  0.17207515397E+03 0.  0.
         24    2    3    3    0    0 -0.21661619858E+02 -0.12503964572E+02  0.19569882323E+02  0.84165730641E+02  0.77944307139E+02 0.  0.
         -6    2    1    2    0  502 -0.63707133314E+02 -0.31788191424E+02  0.24452863220E+03  0.30693086137E+03  0.17129860987E+03 0.  0.
        -24    2    5    5    0    0 -0.69195436356E+02 -0.77019722366E+02  0.21816552998E+03  0.25408092267E+03  0.78999181938E+02 0.  0.
          5    1    3    3  501    0  0.85368753172E+02  0.44292155997E+02  0.90559779832E+02  0.13218465427E+03  0.47000000000E+01 0. -1.
        -11    1    4    4    0    0  0.25840928928E+02 -0.47831878494E+01 -0.94967984325E+01  0.27943186546E+02  0.00000000000E+00 0.  1.
         12    1    4    4    0    0 -0.47502548787E+02 -0.77207767228E+01  0.29066680755E+02  0.56222544095E+02  0.00000000000E+00 0. -1.
         -5    1    5    5    0  502  0.54883030422E+01  0.45231530941E+02  0.26363102223E+02  0.52849938698E+02  0.47000000000E+01 0.  1.
         13    1    6    6    0    0  0.13909456307E+02 -0.33713826376E+02  0.57926094119E+02  0.68450912657E+02  0.00000000000E+00 0. -1.
        -14    1    6    6    0    0 -0.83104892663E+02 -0.43305895990E+02  0.16023943586E+03  0.18563001001E+03  0.00000000000E+00 0.  1.
</event>
<event>
12    1  0.8500177E-002  0.2373145E+03  0.7818608E-02  0.1122854E+00
         21   -1    0    0  503  502  0.00000000000E+00  0.00000000000E+00  0.11189005177E+04  0.11189005177E+04  0.00000000000E+00 0. -1.
         21   -1    0    0  501  503 -0.00000000000E+00 -0.00000000000E+00 -0.52697545082E+02  0.52697545082E+02  0.00000000000E+00 0. -1.
          6    2    1    2  501    0  0.54156448807E+02 -0.15397561435E+03  0.38136513319E+03  0.44917428602E+03  0.17226945070E+03 0.  0.
         24    2    3    3    0    0  0.96694574313E+02 -0.82681971362E+02  0.20539507802E+03  0.25454688310E+03  0.80130072558E+02 0.  0.
         -6    2    1    2    0  502 -0.54156448807E+02  0.15397561435E+03  0.68483783946E+03  0.72242377680E+03  0.16202418389E+03 0.  0.
        -24    2    5    5    0    0 -0.24640804073E+02  0.34891980857E+02  0.43228577366E+03  0.44160938794E+03  0.79518814478E+02 0.  0.
          5    1    3    3  501    0 -0.42538125506E+02 -0.71293642984E+02  0.17597005517E+03  0.19462740292E+03  0.47000000000E+01 0. -1.
        -11    1    4    4    0    0  0.12174778353E+02  0.16098048957E+02  0.31885463823E+02  0.37736656070E+02  0.00000000000E+00 0.  1.
         12    1    4    4    0    0  0.84519795961E+02 -0.98780020319E+02  0.17350961420E+03  0.21681022703E+03  0.00000000000E+00 0. -1.
         -5    1    5    5    0  502 -0.29515644734E+02  0.11908363349E+03  0.25255206580E+03  0.28081438886E+03  0.47000000000E+01 0.  1.
         13    1    6    6    0    0 -0.35658198934E+02 -0.14212710187E+02  0.22847970997E+03  0.23168186410E+03  0.00000000000E+00 0. -1.
        -14    1    6    6    0    0  0.11017394861E+02  0.49104691044E+02  0.20380606368E+03  0.20992752384E+03  0.00000000000E+00 0.  1.
</event>
<event>
12    1  0.8500177E-002  0.2879071E+03  0.7818608E-02  0.1091470E+00
         21   -1    0    0  503  502  0.00000000000E+00  0.00000000000E+00  0.32298325031E+03  0.32298325031E+03  0.00000000000E+00 0. -1.
         21   -1    0    0  501  503 -0.00000000000E+00 -0.00000000000E+00 -0.41301550405E+03  0.41301550405E+03  0.00000000000E+00 0.  1.
          6    2    1    2  501    0  0.22628603560E+03 -0.42218541948E+02 -0.27155885135E+03  0.39564249961E+03  0.17262966884E+03 0.  0.
         24    2    3    3    0    0  0.19017574948E+03 -0.91488186481E+02 -0.20399481321E+03  0.30443701795E+03  0.80815283979E+02 0.  0.
         -6    2    1    2    0  502 -0.22628603560E+03  0.42218541948E+02  0.18152659760E+03  0.34035625475E+03  0.17292396976E+03 0.  0.
        -24    2    5    5    0    0 -0.72976375551E+02 -0.31108135649E+02  0.43111654417E+02  0.12112705959E+03  0.80745788288E+02 0.  0.
          5    1    3    3  501    0  0.36110286120E+02  0.49269644534E+02 -0.67564038139E+02  0.91205481666E+02  0.47000000000E+01 0. -1.
        -13    1    4    4    0    0  0.32455681833E+02 -0.33937396343E+02 -0.89963343718E+02  0.10148163069E+03  0.00000000000E+00 0.  1.
         14    1    4    4    0    0  0.15772006765E+03 -0.57550790139E+02 -0.11403146949E+03  0.20295538726E+03  0.00000000000E+00 0. -1.
         -5    1    5    5    0  502 -0.15330966005E+03  0.73326677597E+02  0.13841494319E+03  0.21922919516E+03  0.47000000000E+01 0.  1.
         11    1    6    6    0    0 -0.82458890115E+02 -0.37972908705E+02  0.53586869681E+02  0.10541803905E+03  0.00000000000E+00 0. -1.
        -12    1    6    6    0    0  0.94825145633E+01  0.68647730556E+01 -0.10475215265E+02  0.15709020542E+02  0.00000000000E+00 0.  1.
</event>
<event>
12    1  0.8500177E-002  0.2745868E+03  0.7818608E-02  0.1099024E+00
         21   -1    0    0  501  502  0.00000000000E+00  0.00000000000E+00  0.53731916644E+03  0.53731916644E+03  0.00000000000E+00 0. -1.
         21   -1    0    0  502  503 -0.00000000000E+00 -0.00000000000E+00 -0.18868592265E+03  0.18868592265E+03  0.00000000000E+00 0. -1.
         -6    2    1    2    0  503 -0.15679822798E+03  0.14037776309E+03 -0.11229788045E+02  0.27481634755E+03  0.17636982756E+03 0.  0.
        -24    2    3    3    0    0 -0.11613858677E+03  0.17043938608E+03 -0.22612956608E+02  0.22277238415E+03  0.81107543843E+02 0.  0.
          6    2    1    2  501    0  0.15679822798E+03 -0.14037776309E+03  0.35986303184E+03  0.45118874154E+03  0.17256383788E+03 0.  0.
         24    2    5    5    0    0  0.50997561535E+02 -0.52608811089E+01  0.86244001867E+02  0.12817199836E+03  0.79759671216E+02 0.  0.
          5    1    5    5  501    0  0.10580066645E+03 -0.13511688198E+03  0.27361902997E+03  0.32301674319E+03  0.47000000000E+01 0. -1.
        -11    1    6    6    0    0  0.34423204209E+02  0.33374330227E+02  0.65824419799E+02  0.81434987248E+02  0.00000000000E+00 0.  1.
         12    1    6    6    0    0  0.16574357326E+02 -0.38635211336E+02  0.20419582067E+02  0.46737011110E+02  0.00000000000E+00 0. -1.
         -5    1    3    3    0  503 -0.40659641209E+02 -0.30061622990E+02  0.11383168563E+02  0.52043963402E+02  0.47000000000E+01 0.  1.
         13    1    4    4    0    0 -0.46293532867E+02  0.12842386075E+03 -0.33437188732E+02  0.14054830054E+03  0.00000000000E+00 0. -1.
        -14    1    4    4    0    0 -0.69845053904E+02  0.42015525327E+02  0.10824232124E+02  0.82224083603E+02  0.00000000000E+00 0.  1.
</event>
<event>
12    1  0.8500177E-002  0.1913625E+03  0.7818608E-02  0.1161182E+00
         21   -1    0    0  501  502  0.00000000000E+00  0.00000000000E+00  0.78602176090E+02  0.78602176090E+02  0.00000000000E+00 0.  1.
         21   -1    0    0  502  503 -0.00000000000E+00 -0.00000000000E+00 -0.57794210081E+03  0.57794210081E+03  0.00000000000E+00 0.  1.
         -6    2    1    2    0  503 -0.19134114788E+02  0.19588669730E+02 -0.40948201759E+03  0.44513462969E+03  0.17239340326E+03 0.  0.
        -24    2    3    3    0    0  0.32513559804E+02  0.92044863120E+00 -0.13338299873E+03  0.16358757681E+03  0.88948817529E+02 0.  0.
          6    2    1    2  501    0  0.19134114788E+02 -0.19588669730E+02 -0.89857907124E+02  0.21140964721E+03  0.18939314963E+03 0.  0.
         24    2    5    5    0    0 -0.37646417811E+02 -0.25747508461E+02  0.14919798931E+02  0.91984281964E+02  0.78474969018E+02 0.  0.
          5    1    5    5  501    0  0.56780532598E+02  0.61588387315E+01 -0.10477770606E+03  0.11942536524E+03  0.47000000000E+01 0. -1.
        -13    1    6    6    0    0  0.24180382979E+02 -0.60314425914E+01 -0.17514705086E+01  0.24982731430E+02  0.00000000000E+00 0.  1.
         14    1    6    6    0    0 -0.61826800790E+02 -0.19716065870E+02  0.16671269440E+02  0.67001550534E+02  0.00000000000E+00 0. -1.
         -5    1    3    3    0  503 -0.51647674591E+02  0.18668221099E+02 -0.27609901886E+03  0.28154705288E+03  0.47000000000E+01 0.  1.
         13    1    4    4    0    0 -0.49616791457E+01  0.31755094320E+02 -0.99067878304E+02  0.10415108635E+03  0.00000000000E+00 0. -1.
        -14    1    4    4    0    0  0.37475238949E+02 -0.30834645689E+02 -0.34315120430E+02  0.59436490469E+02  0.00000000000E+00 0.  1.
</event>
<event>
12    1  0.8500177E-002  0.1886170E+03  0.7818608E-02  0.1160418E+00
         21   -1    0    0  501  502  0.00000000000E+00  0.00000000000E+00  0.38333348521E+03  0.38333348521E+03  0.00000000000E+00 0.  1.
         21   -1    0    0  502  503 -0.00000000000E+00 -0.00000000000E+00 -0.12739256637E+03  0.12739256637E+03  0.00000000000E+00 0.  1.
         -6    2    1    2    0  503  0.69779868216E+01  0.67176901477E+02 -0.86892067494E+01  0.18575610858E+03  0.17282477012E+03 0.  0.
        -24    2    3    3    0    0  0.30074228762E+02 -0.84611816569E+01  0.42122714284E+02  0.91636517997E+02  0.75145708735E+02 0.  0.
          6    2    1    2  501    0 -0.69779868216E+01 -0.67176901477E+02  0.26463012559E+03  0.32496994301E+03  0.17611056782E+03 0.  0.
         24    2    5    5    0    0  0.22653448334E+02 -0.86647678800E+02  0.26202094927E+03  0.28910866975E+03  0.83113453212E+02 0.  0.
          5    1    5    5  501    0 -0.29631435156E+02  0.19470777323E+02  0.26091763198E+01  0.35861273263E+02  0.47000000000E+01 0. -1.
        -11    1    6    6    0    0  0.16295903234E+02 -0.49681939705E+02  0.45344416174E+02  0.69209592350E+02  0.00000000000E+00 0.  1.
         12    1    6    6    0    0  0.63575451002E+01 -0.36965739095E+02  0.21667653309E+03  0.21989907740E+03  0.00000000000E+00 0. -1.
         -5    1    3    3    0  503 -0.23096241940E+02  0.75638083134E+02 -0.50811921033E+02  0.94119590581E+02  0.47000000000E+01 0.  1.
         13    1    4    4    0    0  0.42677543275E+02  0.21806514786E+02  0.30705882484E+02  0.56918784300E+02  0.00000000000E+00 0. -1.
        -14    1    4    4    0    0 -0.12603314513E+02 -0.30267696443E+02  0.11416831800E+02  0.34717733696E+02  0.00000000000E+00 0.  1.
</event>
<event>
12    1  0.8500177E-002  0.2155003E+03  0.7818608E-02  0.1137293E+00
         21   -1    0    0  501  502  0.00000000000E+00  0.00000000000E+00  0.13222078760E+03  0.13222078760E+03  0.00000000000E+00 0. -1.
         21   -1    0    0  502  503 -0.00000000000E+00 -0.00000000000E+00 -0.82140340505E+03  0.82140340505E+03  0.00000000000E+00 0.  1.
         -6    2    1    2    0  503  0.12814869918E+03  0.21618909640E+02 -0.70534757233E+03  0.73751844691E+03  0.17183944652E+03 0.  0.
        -24    2    3    3    0    0  0.15093245065E+03 -0.26697383199E+01 -0.47583056827E+03  0.50555038250E+03  0.79866935492E+02 0.  0.
          6    2    1    2  501    0 -0.12814869918E+03 -0.21618909640E+02  0.16164954884E+02  0.21610574573E+03  0.17190381385E+03 0.  0.
         24    2    5    5    0    0 -0.97713734228E+02 -0.75042486464E+02 -0.42771163104E+00  0.15224830893E+03  0.89442808569E+02 0.  0.
          5    1    5    5  501    0 -0.30434964953E+02  0.53423576823E+02  0.16592666515E+02  0.63857436797E+02  0.47000000000E+01 0. -1.
        -13    1    6    6    0    0  0.16035142047E+02 -0.17994706346E+02  0.59834373517E+01  0.24834185300E+02  0.00000000000E+00 0.  1.
         14    1    6    6    0    0 -0.11374887628E+03 -0.57047780118E+02 -0.64111489827E+01  0.12741412363E+03  0.00000000000E+00 0. -1.
         -5    1    3    3    0  503 -0.22783751473E+02  0.24288647960E+02 -0.22951700407E+03  0.23196806441E+03  0.47000000000E+01 0.  1.
         13    1    4    4    0    0  0.13475479152E+03 -0.30394690343E+01 -0.29895633825E+03  0.32793747025E+03  0.00000000000E+00 0. -1.
        -14    1    4    4    0    0  0.16177659132E+02  0.36973071441E+00 -0.17687423001E+03  0.17761291225E+03  0.00000000000E+00 0.  1.
</event>
<event>
12    1  0.8500177E-002  0.1825974E+03  0.7818608E-02  0.1166134E+00
         21   -1    0    0  501  502  0.00000000000E+00  0.00000000000E+00  0.77158153088E+02  0.77158153088E+02  0.00000000000E+00 0. -1.
         21   -1    0    0  502  503 -0.00000000000E+00 -0.00000000000E+00 -0.43327889477E+03  0.43327889477E+03  0.00000000000E+00 0. -1.
         -6    2    1    2    0  503  0.25943607668E+02 -0.55579484538E+02 -0.21694279410E+03  0.28355950036E+03  0.17198739619E+03 0.  0.
        -24    2    3    3    0    0  0.70320785238E+02  0.42708218322E+01 -0.14674269372E+03  0.18108249242E+03  0.79335982657E+02 0.  0.
          6    2    1    2  501    0 -0.25943607668E+02  0.55579484538E+02 -0.13917794758E+03  0.22687754751E+03  0.16834717280E+03 0.  0.
         24    2    5    5    0    0 -0.25308954464E+02  0.10233392709E+03 -0.10098905281E+03  0.16632292450E+03  0.79697870845E+02 0.  0.
          5    1    5    5  501    0 -0.63465320350E+00 -0.46754442555E+02 -0.38188894768E+02  0.60554623002E+02  0.47000000000E+01 0. -1.
        -13    1    6    6    0    0 -0.53244579436E+02  0.53801239524E+02 -0.51129781354E+02  0.91344475229E+02  0.00000000000E+00 0.  1.
         14    1    6    6    0    0  0.27935624972E+02  0.48532687569E+02 -0.49859271458E+02  0.74978449274E+02  0.00000000000E+00 0. -1.
         -5    1    3    3    0  503 -0.44377177571E+02 -0.59850306371E+02 -0.70200100383E+02  0.10247700794E+03  0.47000000000E+01 0.  1.
         13    1    4    4    0    0 -0.12382389293E+02 -0.37634035108E+01 -0.58334845172E+00  0.12954808606E+02  0.00000000000E+00 0. -1.
        -14    1    4    4    0    0  0.82703174532E+02  0.80342253429E+01 -0.14615934527E+03  0.16812768381E+03  0.00000000000E+00 0.  1.
</event>
<event>
12    1  0.8500177E-002  0.1864445E+03  0.7818608E-02  0.1161947E+00
         21   -1    0    0  501  502  0.00000000000E+00  0.00000000000E+00  0.16290053518E+03  0.16290053518E+03  0.00000000000E+00 0. -1.
         21   -1    0    0  502  503 -0.00000000000E+00 -0.00000000000E+00 -0.22205846808E+03  0.22205846808E+03  0.00000000000E+00 0. -1.
         -6    2    1    2    0  503  0.52632525345E+02 -0.48417856023E+02 -0.70031910852E+02  0.19819763783E+03  0.17106537814E+03 0.  0.
        -24    2    3    3    0    0  0.66255383170E+02 -0.69257891047E+02 -0.98827361458E+02  0.15984196953E+03  0.81216849113E+02 0.  0.
          6    2    1    2  501    0 -0.52632525345E+02  0.48417856023E+02  0.10873977953E+02  0.18676136542E+03  0.17218331136E+03 0.  0.
         24    2    5    5    0    0  0.16797103045E+02  0.32249885243E+02  0.56080723765E+02  0.10221778823E+03  0.77338417906E+02 0.  0.
          5    1    5    5  501    0 -0.69429628391E+02  0.16167970780E+02 -0.45206745812E+02  0.84543577192E+02  0.47000000000E+01 0. -1.
        -11    1    6    6    0    0  0.15205163116E+02 -0.21142439039E+02  0.18656761355E+01  0.26109011114E+02  0.00000000000E+00 0.  1.
         12    1    6    6    0    0  0.15919399292E+01  0.53392324282E+02  0.54215047629E+02  0.76108777118E+02  0.00000000000E+00 0. -1.
         -5    1    3    3    0  503 -0.13622857824E+02  0.20840035024E+02  0.28795450606E+02  0.38355668299E+02  0.47000000000E+01 0.  1.
         11    1    4    4    0    0  0.14621454141E+02 -0.71525417325E+02 -0.67356764288E+02  0.99330790494E+02  0.00000000000E+00 0. -1.
        -12    1    4    4    0    0  0.51633929029E+02  0.22675262787E+01 -0.31470597170E+02  0.60511179038E+02  0.00000000000E+00 0.  1.
</event>
<event>
12    1  0.8500177E-002  0.2420149E+03  0.7818608E-02  0.1119479E+00
         21   -1    0    0  501  502  0.00000000000E+00  0.00000000000E+00  0.37258214147E+03  0.37258214147E+03  0.00000000000E+00 0.  1.
         21   -1    0    0  502  503 -0.00000000000E+00 -0.00000000000E+00 -0.16131614544E+03  0.16131614544E+03  0.00000000000E+00 0. -1.
         -6    2    1    2    0  503  0.16242552660E+03  0.67549526889E+01  0.16657581276E+03  0.29380043778E+03  0.17928612542E+03 0.  0.
        -24    2    3    3    0    0  0.10644737267E+03 -0.75048739758E+01  0.20089807879E+02  0.13626588284E+03  0.82325112595E+02 0.  0.
          6    2    1    2  501    0 -0.16242552660E+03 -0.67549526889E+01  0.44690183274E+02  0.24009784913E+03  0.17094467994E+03 0.  0.
         24    2    5    5    0    0 -0.12170631008E+03  0.59561032811E+02  0.20401374010E+02  0.15844063400E+03  0.79544175773E+02 0.  0.
          5    1    5    5  501    0 -0.40719216522E+02 -0.66315985500E+02  0.24288809263E+02  0.81657215127E+02  0.47000000000E+01 0. -1.
        -11    1    6    6    0    0 -0.14325145737E+02 -0.19130854694E+02  0.11476918161E+01  0.23927319077E+02  0.00000000000E+00 0.  1.
         12    1    6    6    0    0 -0.10738116434E+03  0.78691887505E+02  0.19253682194E+02  0.13451331492E+03  0.00000000000E+00 0. -1.
         -5    1    3    3    0  503  0.55978153924E+02  0.14259826665E+02  0.14648600488E+03  0.15753455494E+03  0.47000000000E+01 0.  1.
         11    1    4    4    0    0  0.10312213712E+03  0.89244385418E+01  0.39348072390E+02  0.11073432877E+03  0.00000000000E+00 0. -1.
        -12    1    4    4    0    0  0.33252355517E+01 -0.16429312518E+02 -0.19258264511E+02  0.25531554070E+02  0.00000000000E+00 0.  1.
</event>
<event>
12    1  0.8500177E-002  0.2525608E+03  0.7818608E-02  0.1111876E+00
         21   -1    0    0  501  502  0.00000000000E+00  0.00000000000E+00  0.20154933998E+03  0.20154933998E+03  0.00000000000E+00 0.  1.
         21   -1    0    0  502  503 -0.00000000000E+00 -0.00000000000E+00 -0.36418676788E+03  0.36418676788E+03  0.00000000000E+00 0.  1.
         -6    2    1    2    0  503  0.16660126557E+03  0.81608325372E+02  0.22738459528E+02  0.25244524385E+03  0.16969284941E+03 0.  0.
        -24    2    3    3    0    0  0.14504536272E+03  0.25282722725E+02  0.63715321964E+02  0.17938072636E+03  0.80252286084E+02 0.  0.
          6    2    1    2  501    0 -0.16660126557E+03 -0.81608325372E+02 -0.18537588743E+03  0.31329086401E+03  0.17137982777E+03 0.  0.
         24    2    5    5    0    0 -0.16058630721E+03 -0.10578276430E+03 -0.19640256709E+03  0.28564559523E+03  0.77726973632E+02 0.  0.
          5    1    5    5  501    0 -0.60149583636E+01  0.24174438924E+02  0.11026679656E+02  0.27645268775E+02  0.47000000000E+01 0. -1.
        -13    1    6    6    0    0 -0.96520069259E+02 -0.74476594799E+02 -0.70169285579E+02  0.14066490529E+03  0.00000000000E+00 0.  1.
         14    1    6    6    0    0 -0.64066237951E+02 -0.31306169497E+02 -0.12623328151E+03  0.14498068994E+03  0.00000000000E+00 0. -1.
         -5    1    3    3    0  503  0.21555902855E+02  0.56325602647E+02 -0.40976862436E+02  0.73064517494E+02  0.47000000000E+01 0.  1.
         11    1    4    4    0    0  0.69553437883E+02 -0.16899052443E+02 -0.64840807192E+00  0.71579879351E+02  0.00000000000E+00 0. -1.
        -12    1    4    4    0    0  0.75491924836E+02  0.42181775168E+02  0.64363730036E+02  0.10780084701E+03  0.00000000000E+00 0.  1.
</event>
<event>
12    1  0.8500177E-002  0.2730820E+03  0.7818608E-02  0.1099813E+00
         21   -1    0    0  503  502  0.00000000000E+00  0.00000000000E+00  0.74532649952E+03  0.74532649952E+03  0.00000000000E+00 0.  1.
         21   -1    0    0  501  503 -0.00000000000E+00 -0.00000000000E+00 -0.59024853857E+03  0.59024853857E+03  0.00000000000E+00 0. -1.
          6    2    1    2  501    0  0.20852736893E+03 -0.14410620998E+02 -0.53142970113E+03  0.59748748657E+03  0.17573400286E+03 0.  0.
         24    2    3    3    0    0  0.16542252366E+03  0.53860314567E+02 -0.39809343607E+03  0.44154006623E+03  0.78827034841E+02 0.  0.
         -6    2    1    2    0  502 -0.20852736893E+03  0.14410620998E+02  0.68650766208E+03  0.73808755152E+03  0.17259528972E+03 0.  0.
        -24    2    5    5    0    0 -0.11549803309E+03  0.26960602116E+02  0.57446673218E+03  0.59184385310E+03  0.78742938527E+02 0.  0.
          5    1    3    3  501    0  0.43104845272E+02 -0.68270935566E+02 -0.13333626506E+03  0.15594742034E+03  0.47000000000E+01 0. -1.
        -11    1    4    4    0    0  0.68443835572E+02  0.63724046162E+02 -0.19483439389E+03  0.21611513998E+03  0.00000000000E+00 0.  1.
         12    1    4    4    0    0  0.96978688088E+02 -0.98637315944E+01 -0.20325904218E+03  0.22542492625E+03  0.00000000000E+00 0. -1.
         -5    1    5    5    0  502 -0.93029335847E+02 -0.12549981118E+02  0.11204092990E+03  0.14624369842E+03  0.47000000000E+01 0.  1.
         11    1    6    6    0    0 -0.10660727670E+03  0.38694339583E+02  0.37351154355E+03  0.39035014606E+03  0.00000000000E+00 0. -1.
        -12    1    6    6    0    0 -0.88907563823E+01 -0.11733737467E+02  0.20095518863E+03  0.20149370705E+03  0.00000000000E+00 0.  1.
</event>
<event>
12    1  0.8500177E-002  0.1943368E+03  0.7818608E-02  0.1155039E+00
         21   -1    0    0  501  502  0.00000000000E+00  0.00000000000E+00  0.84388847124E+03  0.84388847124E+03  0.00000000000E+00 0.  1.
         21   -1    0    0  502  503 -0.00000000000E+00 -0.00000000000E+00 -0.28373016808E+03  0.28373016808E+03  0.00000000000E+00 0.  1.
         -6    2    1    2    0  503 -0.65542138323E+01  0.87188638390E+02 -0.23762278107E+03  0.30697130379E+03  0.17355684626E+03 0.  0.
        -24    2    3    3    0    0 -0.14993229247E+02  0.71027171891E+02 -0.25767461068E+03  0.27946537985E+03  0.80218685329E+02 0.  0.
          6    2    1    2  501    0  0.65542138323E+01 -0.87188638390E+02  0.79778108423E+03  0.82064733553E+03  0.17135511249E+03 0.  0.
         24    2    5    5    0    0  0.56570588526E+02 -0.97060885311E+02  0.63867995268E+03  0.65351158514E+03  0.80896619329E+02 0.  0.
          5    1    5    5  501    0 -0.50016374694E+02  0.98722469205E+01  0.15910113155E+03  0.16713575039E+03  0.47000000000E+01 0. -1.
        -13    1    6    6    0    0  0.38777619640E+02 -0.14207806037E+02  0.35643287505E+03  0.35881744656E+03  0.00000000000E+00 0.  1.
         14    1    6    6    0    0  0.17792968886E+02 -0.82853079274E+02  0.28224707763E+03  0.29469413859E+03  0.00000000000E+00 0. -1.
         -5    1    3    3    0  503  0.84390154147E+01  0.16161466499E+02  0.20051829615E+02  0.27505923934E+02  0.47000000000E+01 0. -1.
         11    1    4    4    0    0 -0.37189667743E+02  0.22208878331E+02 -0.56086578089E+02  0.70866140753E+02  0.00000000000E+00 0. -1.
        -12    1    4    4    0    0  0.22196438496E+02  0.48818293560E+02 -0.20158803259E+03  0.20859923910E+03  0.00000000000E+00 0.  1.
</event>
<event>
12    1  0.8500177E-002  0.1753195E+03  0.7818608E-02  0.1172684E+00
         21   -1    0    0  503  502  0.00000000000E+00  0.00000000000E+00  0.28296025453E+03  0.28296025453E+03  0.00000000000E+00 0. -1.
         21   -1    0    0  501  503 -0.00000000000E+00 -0.00000000000E+00 -0.13001446469E+03  0.13001446469E+03  0.00000000000E+00 0. -1.
          6    2    1    2  501    0  0.57576834510E+01 -0.34494128256E+02 -0.87772234358E+01  0.17445583662E+03  0.17068920141E+03 0.  0.
         24    2    3    3    0    0 -0.95498888154E+01 -0.26051419206E+02 -0.70271407319E+02  0.11035259368E+03  0.80434740164E+02 0.  0.
         -6    2    1    2    0  502 -0.57576834510E+01  0.34494128256E+02  0.16172301327E+03  0.23851888260E+03  0.17179618312E+03 0.  0.
        -24    2    5    5    0    0 -0.63317027875E+02  0.99931687355E+01  0.50350650823E+02  0.11069373537E+03  0.74893294568E+02 0.  0.
          5    1    3    3  501    0  0.15307572266E+02 -0.84427090498E+01  0.61494183883E+02  0.64103242946E+02  0.47000000000E+01 0. -1.
        -13    1    4    4    0    0 -0.23406893490E+02  0.17443810015E+01  0.90588115213E+01  0.25159244704E+02  0.00000000000E+00 0.  1.
         14    1    4    4    0    0  0.13857004674E+02 -0.27795800208E+02 -0.79330218840E+02  0.85193348971E+02  0.00000000000E+00 0. -1.
         -5    1    5    5    0  502  0.57559344424E+02  0.24500959521E+02  0.11137236245E+03  0.12782514723E+03  0.47000000000E+01 0.  1.
         11    1    6    6    0    0 -0.36911552367E+02  0.32820151254E+02  0.56721414043E+02  0.75212657429E+02  0.00000000000E+00 0. -1.
        -12    1    6    6    0    0 -0.26405475508E+02 -0.22826982519E+02 -0.63707632204E+01  0.35481077939E+02  0.00000000000E+00 0.  1.
</event>
<event>
12    1  0.8500177E-002  0.1878417E+03  0.7818608E-02  0.1160597E+00
         21   -1    0    0  503  502  0.00000000000E+00  0.00000000000E+00  0.21211035148E+03  0.21211035148E+03  0.00000000000E+00 0. -1.
         21   -1    0    0  501  503 -0.00000000000E+00 -0.00000000000E+00 -0.21690913169E+03  0.21690913169E+03  0.00000000000E+00 0. -1.
          6    2    1    2  501    0  0.75972826633E+02 -0.40295523116E+01 -0.10665468787E+03  0.21600859511E+03  0.17174511066E+03 0.  0.
         24    2    3    3    0    0  0.19710469403E+02 -0.48638317831E+02 -0.10820649355E+03  0.14403712227E+03  0.79270793983E+02 0.  0.
         -6    2    1    2    0  502 -0.75972826633E+02  0.40295523116E+01  0.10185590766E+03  0.21301088806E+03  0.17091197977E+03 0.  0.
        -24    2    5    5    0    0 -0.87132109743E+02 -0.31212121766E+02  0.21117847786E+02  0.12408828406E+03  0.79910810606E+02 0.  0.
          5    1    3    3  501    0  0.56262357230E+02  0.44608765520E+02  0.15518056761E+01  0.71971472842E+02  0.47000000000E+01 0. -1.
        -13    1    4    4    0    0 -0.15773203942E+02  0.37354105835E+01  0.26259314966E+01  0.16420802996E+02  0.00000000000E+00 0.  1.
         14    1    4    4    0    0  0.35483673345E+02 -0.52373728415E+02 -0.11083242505E+03  0.12761631927E+03  0.00000000000E+00 0. -1.
         -5    1    5    5    0  502  0.11159283110E+02  0.35241674078E+02  0.80738059872E+02  0.88922604006E+02  0.47000000000E+01 0.  1.
         13    1    6    6    0    0 -0.57217397840E+02  0.11147086234E+02  0.37961347997E+02  0.69564014324E+02  0.00000000000E+00 0. -1.
        -14    1    6    6    0    0 -0.29914711902E+02 -0.42359208000E+02 -0.16843500211E+02  0.54524269733E+02  0.00000000000E+00 0.  1.
</event>
<event>
12    1  0.8500177E-002  0.1847640E+03  0.7818608E-02  0.1163282E+00
         21   -1    0    0  501  502  0.00000000000E+00  0.00000000000E+00  0.12638705820E+04  0.12638705820E+04  0.00000000000E+00 0.  1.
         21   -1    0    0  502  503 -0.00000000000E+00 -0.00000000000E+00 -0.30339835711E+02  0.30339835711E+02  0.00000000000E+00 0.  1.
         -6    2    1    2    0  503  0.54705518110E+02 -0.36030813988E+02  0.40210604127E+03  0.44250344377E+03  0.17271107681E+03 0.  0.
        -24    2    3    3    0    0  0.57055290215E+01  0.43410046913E+02  0.18137429374E+03  0.20280270602E+03  0.79468974473E+02 0.  0.
          6    2    1    2  501    0 -0.54705518110E+02  0.36030813988E+02  0.83142470502E+03  0.85170697394E+03  0.17276231093E+03 0.  0.
         24    2    5    5    0    0 -0.11407434164E+02  0.86747466479E+02  0.50898973570E+03  0.52241485081E+03  0.78685912400E+02 0.  0.
          5    1    5    5  501    0 -0.43298083945E+02 -0.50716652492E+02  0.32243496932E+03  0.32929212313E+03  0.47000000000E+01 0. -1.
        -11    1    6    6    0    0 -0.34687985203E+02  0.52241146498E+02  0.17608691024E+03  0.18691975194E+03  0.00000000000E+00 0.  1.
         12    1    6    6    0    0  0.23280551038E+02  0.34506319981E+02  0.33290282545E+03  0.33549509888E+03  0.00000000000E+00 0. -1.
         -5    1    3    3    0  503  0.48999989088E+02 -0.79440860900E+02  0.22073174752E+03  0.23970073775E+03  0.47000000000E+01 0.  1.
         13    1    4    4    0    0 -0.14015370157E+02 -0.65968603476E+01  0.20870333621E+01  0.15630255127E+02  0.00000000000E+00 0. -1.
        -14    1    4    4    0    0  0.19720899179E+02  0.50006907260E+02  0.17928726038E+03  0.18717245089E+03  0.00000000000E+00 0.  1.
</event>
<event>
12    1  0.8500177E-002  0.2218187E+03  0.7818608E-02  0.1132582E+00
         21   -1    0    0  503  502  0.00000000000E+00  0.00000000000E+00  0.26510212733E+03  0.26510212733E+03  0.00000000000E+00 0.  1.
         21   -1    0    0  501  503 -0.00000000000E+00 -0.00000000000E+00 -0.41259449164E+03  0.41259449164E+03  0.00000000000E+00 0. -1.
          6    2    1    2  501    0 -0.11256569908E+03  0.83189730192E+02 -0.32518013294E+03  0.39348455462E+03  0.17174518348E+03 0.  0.
         24    2    3    3    0    0 -0.11787741522E+03  0.26347168389E+02 -0.14711885243E+03  0.20643589577E+03  0.79890950809E+02 0.  0.
         -6    2    1    2    0  502  0.11256569908E+03 -0.83189730192E+02  0.17768776863E+03  0.28421206435E+03  0.17208133711E+03 0.  0.
        -24    2    5    5    0    0  0.11499165500E+03 -0.11917851501E+03  0.16158930916E+03  0.24443357403E+03  0.78803985436E+02 0.  0.
          5    1    3    3  501    0  0.53117161480E+01  0.56842561802E+02 -0.17806128051E+03  0.18704865885E+03  0.47000000000E+01 0. -1.
        -11    1    4    4    0    0 -0.11304884431E+03  0.47396422611E+02 -0.13156649278E+03  0.17982270185E+03  0.00000000000E+00 0.  1.
         12    1    4    4    0    0 -0.48285709125E+01 -0.21049254221E+02 -0.15552359646E+02  0.26613193925E+02  0.00000000000E+00 0. -1.
         -5    1    5    5    0  502 -0.24259559223E+01  0.35988784814E+02  0.16098459473E+02  0.39778490318E+02  0.47000000000E+01 0.  1.
         13    1    6    6    0    0  0.66687850288E+02 -0.60882266302E+02  0.34823837205E+02  0.96781296560E+02  0.00000000000E+00 0. -1.
        -14    1    6    6    0    0  0.48303804711E+02 -0.58296248704E+02  0.12676547196E+03  0.14765227747E+03  0.00000000000E+00 0.  1.
</event>
<event>
12    1  0.8500177E-002  0.2598909E+03  0.7818608E-02  0.1107331E+00
         21   -1    0    0  501  502  0.00000000000E+00  0.00000000000E+00  0.49561219536E+03  0.49561219536E+03  0.00000000000E+00 0. -1.
         21   -1    0    0  502  503 -0.00000000000E+00 -0.00000000000E+00 -0.42606539297E+03  0.42606539297E+03  0.00000000000E+00 0. -1.
         -6    2    1    2    0  503 -0.43833809252E+02 -0.18911326174E+03 -0.34557815931E+03  0.43191027904E+03  0.17157213161E+03 0.  0.
        -24    2    3    3    0    0  0.23090203937E+02 -0.15462618305E+03 -0.28668418977E+03  0.33620880681E+03  0.80038260296E+02 0.  0.
          6    2    1    2  501    0  0.43833809252E+02  0.18911326174E+03  0.41512496170E+03  0.48976730929E+03  0.17279483449E+03 0.  0.
         24    2    5    5    0    0  0.94791570968E+02  0.11885785854E+03  0.25334521778E+03  0.30611739586E+03  0.80071394508E+02 0.  0.
          5    1    5    5  501    0 -0.50957761716E+02  0.70255403209E+02  0.16177974392E+03  0.18364991343E+03  0.47000000000E+01 0. -1.
        -13    1    6    6    0    0  0.54386382401E+02  0.10814106975E+02  0.67146371191E+02  0.87083056127E+02  0.00000000000E+00 0.  1.
         14    1    6    6    0    0  0.40405188567E+02  0.10804375156E+03  0.18619884659E+03  0.21903433974E+03  0.00000000000E+00 0. -1.
         -5    1    3    3    0  503 -0.66924013189E+02 -0.34487078697E+02 -0.58893969540E+02  0.95701472228E+02  0.47000000000E+01 0.  1.
         13    1    4    4    0    0  0.27329381944E+02 -0.11027601859E+03 -0.26130463777E+03  0.28493474536E+03  0.00000000000E+00 0. -1.
        -14    1    4    4    0    0 -0.42391780071E+01 -0.44350164462E+02 -0.25379551998E+02  0.51274061450E+02  0.00000000000E+00 0.  1.
</event>
<event>
12    1  0.8500177E-002  0.1987949E+03  0.7818608E-02  0.1151052E+00
         21   -1    0    0  501  502  0.00000000000E+00  0.00000000000E+00  0.14484849773E+03  0.14484849773E+03  0.00000000000E+00 0. -1.
         21   -1    0    0  502  503 -0.00000000000E+00 -0.00000000000E+00 -0.87956557403E+03  0.87956557403E+03  0.00000000000E+00 0. -1.
         -6    2    1    2    0  503  0.37094988596E+02 -0.81536615137E+02 -0.79381905523E+03  0.81833250620E+03  0.17746870283E+03 0.  0.
        -24    2    3    3    0    0 -0.42351991256E+02 -0.98881485651E+01 -0.43287291527E+03  0.44183611669E+03  0.77127988375E+02 0.  0.
          6    2    1    2  501    0 -0.37094988596E+02  0.81536615137E+02  0.59101978924E+02  0.20608156555E+03  0.17593268588E+03 0.  0.
         24    2    5    5    0    0 -0.18274071568E+02  0.10141354822E+03 -0.11993345722E+02  0.12975362458E+03  0.77932748540E+02 0.  0.
          5    1    5    5  501    0 -0.18820917028E+02 -0.19876933084E+02  0.71095324646E+02  0.76327940973E+02  0.47000000000E+01 0. -1.
        -13    1    6    6    0    0  0.28835582462E+02  0.59483362608E+02 -0.74604873245E+01  0.66523831175E+02  0.00000000000E+00 0.  1.
         14    1    6    6    0    0 -0.47109654031E+02  0.41930185613E+02 -0.45328583971E+01  0.63229793402E+02  0.00000000000E+00 0. -1.
         -5    1    3    3    0  503  0.79446979852E+02 -0.71648466571E+02 -0.36094613995E+03  0.37649638951E+03  0.47000000000E+01 0.  1.
         11    1    4    4    0    0 -0.52138072354E+02 -0.17077524456E+02 -0.42195414556E+03  0.42550595928E+03  0.00000000000E+00 0. -1.
        -12    1    4    4    0    0  0.97860810975E+01  0.71893758912E+01 -0.10918769715E+02  0.16330157410E+02  0.00000000000E+00 0.  1.
</event>
<event>
12    1  0.8500177E-002  0.1961368E+03  0.7818608E-02  0.1153086E+00
         21   -1    0    0  501  502  0.00000000000E+00  0.00000000000E+00  0.33554491616E+03  0.33554491616E+03  0.00000000000E+00 0.  1.
         21   -1    0    0  502  503 -0.00000000000E+00 -0.00000000000E+00 -0.14369588274E+03  0.14369588274E+03  0.00000000000E+00 0.  1.
         -6    2    1    2    0  503  0.61102835485E+02 -0.69267677983E+02 -0.12080510793E+02  0.19629748906E+03  0.17278656705E+03 0.  0.
        -24    2    3    3    0    0  0.54843019337E+02 -0.17855369589E+01 -0.60170306075E+02  0.11306442432E+03  0.78435664091E+02 0.  0.
          6    2    1    2  501    0 -0.61102835485E+02  0.69267677983E+02  0.20392954422E+03  0.28294330984E+03  0.17302626928E+03 0.  0.
         24    2    5    5    0    0 -0.48329813597E+02  0.10412358237E+03  0.10119940029E+03  0.17361053054E+03  0.81986623342E+02 0.  0.
          5    1    5    5  501    0 -0.12773021888E+02 -0.34855904385E+02  0.10273014393E+03  0.10933277930E+03  0.47000000000E+01 0. -1.
        -11    1    6    6    0    0 -0.21347075837E+02  0.91721416448E+02  0.10784973539E+03  0.14317849456E+03  0.00000000000E+00 0.  1.
         12    1    6    6    0    0 -0.26982737760E+02  0.12402165919E+02 -0.66503351000E+01  0.30432035973E+02  0.00000000000E+00 0. -1.
         -5    1    3    3    0  503  0.62598161478E+01 -0.67482141024E+02  0.48089795282E+02  0.83233064738E+02  0.47000000000E+01 0.  1.
         11    1    4    4    0    0  0.24212883153E+02  0.23076826845E+02  0.79179498441E+01  0.34372919246E+02  0.00000000000E+00 0. -1.
        -12    1    4    4    0    0  0.30630136184E+02 -0.24862363804E+02 -0.68088255919E+02  0.78691505074E+02  0.00000000000E+00 0.  1.
</event>
<event>
12    1  0.8500177E-002  0.2281139E+03  0.7818608E-02  0.1128230E+00
         21   -1    0    0  503  502  0.00000000000E+00  0.00000000000E+00  0.13587959996E+04  0.13587959996E+04  0.00000000000E+00 0. -1.
         21   -1    0    0  501  503 -0.00000000000E+00 -0.00000000000E+00 -0.51515790761E+02  0.51515790761E+02  0.00000000000E+00 0. -1.
          6    2    1    2  501    0 -0.62163433345E+02 -0.13544269873E+03  0.10125644619E+04  0.10376278610E+04  0.17080916671E+03 0.  0.
         24    2    3    3    0    0 -0.62423962870E+01 -0.12677600339E+03  0.49439887071E+03  0.51636022932E+03  0.78016155475E+02 0.  0.
         -6    2    1    2    0  502  0.62163433345E+02  0.13544269873E+03  0.29471574702E+03  0.37268392939E+03  0.17270472664E+03 0.  0.
        -24    2    5    5    0    0  0.96990031434E+02  0.11501021708E+03  0.28317613340E+03  0.33042720303E+03  0.79743324119E+02 0.  0.
          5    1    3    3  501    0 -0.55921037058E+02 -0.86666953371E+01  0.51816559116E+03  0.52126763170E+03  0.47000000000E+01 0. -1.
        -13    1    4    4    0    0  0.23293452420E+01 -0.13503086364E+03  0.47268359082E+03  0.49159794245E+03  0.00000000000E+00 0.  1.
         14    1    4    4    0    0 -0.85717415290E+01  0.82548602476E+01  0.21715279886E+02  0.24762286871E+02  0.00000000000E+00 0. -1.
         -5    1    5    5    0  502 -0.34826598089E+02  0.20432481648E+02  0.11539613615E+02  0.42256726365E+02  0.47000000000E+01 0.  1.
         13    1    6    6    0    0  0.95733832758E+02  0.90157145583E+02  0.17206349070E+03  0.21656205223E+03  0.00000000000E+00 0. -1.
        -14    1    6    6    0    0  0.12561986763E+01  0.24853071499E+02  0.11111264270E+03  0.11386515080E+03  0.00000000000E+00 0.  1.
</event>
<event>
12    1  0.8500177E-002  0.2196116E+03  0.7818608E-02  0.1134477E+00
         21   -1    0    0  503  502  0.00000000000E+00  0.00000000000E+00  0.78269390419E+03  0.78269390419E+03  0.00000000000E+00 0.  1.
         21   -1    0    0  501  503 -0.00000000000E+00 -0.00000000000E+00 -0.64828322622E+02  0.64828322622E+02  0.00000000000E+00 0.  1.
          6    2    1    2  501    0 -0.13388654915E+03 -0.35102535867E-01  0.25945328746E+03  0.33991950517E+03  0.17407944262E+03 0.  0.
         24    2    3    3    0    0 -0.29527109096E+02  0.34065897914E+02  0.18837304610E+03  0.20904452027E+03  0.78631236701E+02 0.  0.
         -6    2    1    2    0  502  0.13388654915E+03  0.35102535867E-01  0.45841229411E+03  0.50760272165E+03  0.17202640018E+03 0.  0.
        -24    2    5    5    0    0  0.50198751050E+01 -0.12974323709E+02  0.10832721087E+03  0.13429651977E+03  0.78148822041E+02 0.  0.
          5    1    3    3  501    0 -0.10435944006E+03 -0.34101000450E+02  0.71080241365E+02  0.13087498490E+03  0.47000000000E+01 0. -1.
        -13    1    4    4    0    0 -0.50251114155E+02  0.63416442264E+01  0.74965255004E+02  0.90471986731E+02  0.00000000000E+00 0.  1.
         14    1    4    4    0    0  0.20724005059E+02  0.27724253688E+02  0.11340779110E+03  0.11857253354E+03  0.00000000000E+00 0. -1.
         -5    1    5    5    0  502  0.12886667405E+03  0.13009426245E+02  0.35008508324E+03  0.37330620188E+03  0.47000000000E+01 0.  1.
         13    1    6    6    0    0 -0.28780828834E+02 -0.74867253329E+01  0.91363766178E+02  0.96081865795E+02  0.00000000000E+00 0. -1.
        -14    1    6    6    0    0  0.33800703939E+02 -0.54875983760E+01  0.16963444690E+02  0.38214653975E+02  0.00000000000E+00 0.  1.
</event>
<event>
12    1  0.8500177E-002  0.1882275E+03  0.7818608E-02  0.1160142E+00
         21   -1    0    0  503  502  0.00000000000E+00  0.00000000000E+00  0.47874410790E+02  0.47874410790E+02  0.00000000000E+00 0.  1.
         21   -1    0    0  501  503 -0.00000000000E+00 -0.00000000000E+00 -0.79682574333E+03  0.79682574333E+03  0.00000000000E+00 0.  1.
          6    2    1    2  501    0  0.51463657416E+02  0.45214513777E+02 -0.48814695370E+03  0.52306599404E+03  0.17497921425E+03 0.  0.
         24    2    3    3    0    0  0.83753100680E+02  0.70949356524E+02 -0.43832725942E+03  0.45818932477E+03  0.75883317757E+02 0.  0.
         -6    2    1    2    0  502 -0.51463657416E+02 -0.45214513777E+02 -0.26080437885E+03  0.32163416009E+03  0.17531899104E+03 0.  0.
        -24    2    5    5    0    0  0.27304385326E+02 -0.29121559165E+02 -0.59991956071E+02  0.10527541428E+03  0.76748181692E+02 0.  0.
          5    1    3    3  501    0 -0.32289443264E+02 -0.25734842748E+02 -0.49819694277E+02  0.64876669268E+02  0.47000000000E+01 0. -1.
        -13    1    4    4    0    0  0.14721102441E+01  0.41398409129E+02 -0.20212945876E+03  0.20633059270E+03  0.00000000000E+00 0.  1.
         14    1    4    4    0    0  0.82280990436E+02  0.29550947395E+02 -0.23619780066E+03  0.25185873206E+03  0.00000000000E+00 0. -1.
         -5    1    5    5    0  502 -0.78768042742E+02 -0.16092954612E+02 -0.20081242277E+03  0.21635874580E+03  0.47000000000E+01 0.  1.
         11    1    6    6    0    0  0.28276485164E+01  0.23193831349E+02 -0.20377281101E+01  0.23454247902E+02  0.00000000000E+00 0. -1.
        -12    1    6    6    0    0  0.24476736809E+02 -0.52315390514E+02 -0.57954227961E+02  0.81821166381E+02  0.00000000000E+00 0.  1.
</event>
<event>
12    1  0.8500177E-002  0.1833252E+03  0.7818608E-02  0.1164844E+00
         21   -1    0    0  501  502  0.00000000000E+00  0.00000000000E+00  0.28429241059E+03  0.28429241059E+03  0.00000000000E+00 0.  1.
         21   -1    0    0  502  503 -0.00000000000E+00 -0.00000000000E+00 -0.17769105867E+03  0.17769105867E+03  0.00000000000E+00 0.  1.
         -6    2    1    2    0  503  0.43569792369E+02 -0.45608041725E+02 -0.80919944485E+02  0.20039003682E+03  0.17213282419E+03 0.  0.
        -24    2    3    3    0    0 -0.25943239656E+01  0.35261313394E+02 -0.56641188275E+02  0.10404416905E+03  0.79792694931E+02 0.  0.
          6    2    1    2  501    0 -0.43569792369E+02  0.45608041725E+02  0.18752129640E+03  0.26159343244E+03  0.17113873616E+03 0.  0.
         24    2    5    5    0    0  0.26394679580E+02 -0.19404949044E+02  0.10525828651E+03  0.13545458395E+03  0.78710903153E+02 0.  0.
          5    1    5    5  501    0 -0.69964471948E+02  0.65012990769E+02  0.82263009889E+02  0.12613884850E+03  0.47000000000E+01 0. -1.
        -11    1    6    6    0    0 -0.19135818790E+02  0.11908788012E+02  0.86163555769E+01  0.24129657604E+02  0.00000000000E+00 0.  1.
         12    1    6    6    0    0  0.45530498369E+02 -0.31313737056E+02  0.96641930938E+02  0.11132492634E+03  0.00000000000E+00 0. -1.
         -5    1    3    3    0  503  0.46164116334E+02 -0.80869355119E+02 -0.24278756210E+02  0.96345867775E+02  0.47000000000E+01 0.  1.
         11    1    4    4    0    0 -0.38024314151E+02  0.26008885659E+01 -0.17385470682E+02  0.41891140816E+02  0.00000000000E+00 0. -1.
        -12    1    4    4    0    0  0.35429990186E+02  0.32660424828E+02 -0.39255717593E+02  0.62153028230E+02  0.00000000000E+00 0.  1.
</event>
<event>
12    1  0.8500177E-002  0.1996764E+03  0.7818608E-02  0.1150914E+00
         21   -1    0    0  501  502  0.00000000000E+00  0.00000000000E+00  0.32445327313E+03  0.32445327313E+03  0.00000000000E+00 0.  1.
         21   -1    0    0  502  503 -0.00000000000E+00 -0.00000000000E+00 -0.15264063969E+03  0.15264063969E+03  0.00000000000E+00 0. -1.
         -6    2    1    2    0  503  0.91462347686E+02 -0.18807815949E+01 -0.23163887658E+02  0.20101552577E+03  0.17748740103E+03 0.  0.
        -24    2    3    3    0    0  0.11039495454E+03  0.27161824906E+02  0.25314783467E+02  0.14123101148E+03  0.79878342624E+02 0.  0.
          6    2    1    2  501    0 -0.91462347686E+02  0.18807815949E+01  0.19497652110E+03  0.27607838706E+03  0.17272676005E+03 0.  0.
         24    2    5    5    0    0 -0.67580354611E+02  0.32797759725E+02  0.41414334952E+02  0.11755506340E+03  0.80381891116E+02 0.  0.
          5    1    5    5  501    0 -0.23881993075E+02 -0.30916978130E+02  0.15356218614E+03  0.15852332366E+03  0.47000000000E+01 0. -1.
        -11    1    6    6    0    0 -0.32844523610E+02  0.58254294526E+02  0.23028857096E+02  0.70729440978E+02  0.00000000000E+00 0.  1.
         12    1    6    6    0    0 -0.34735831001E+02 -0.25456534800E+02  0.18385477856E+02  0.46825622423E+02  0.00000000000E+00 0. -1.
         -5    1    3    3    0  503 -0.18932606857E+02 -0.29042606501E+02 -0.48478671124E+02  0.59784514289E+02  0.47000000000E+01 0.  1.
         11    1    4    4    0    0  0.69462083708E+02 -0.69488709929E+01 -0.18532070509E+02  0.72226764558E+02  0.00000000000E+00 0. -1.
        -12    1    4    4    0    0  0.40932870835E+02  0.34110695899E+02  0.43846853975E+02  0.69004246920E+02  0.00000000000E+00 0.  1.
</event>
<event>
12    1  0.8500177E-002  0.2833918E+03  0.7818608E-02  0.1094236E+00
         21   -1    0    0  501  502  0.00000000000E+00  0.00000000000E+00  0.15701003397E+04  0.15701003397E+04  0.00000000000E+00 0. -1.
         21   -1    0    0  502  503 -0.00000000000E+00 -0.00000000000E+00 -0.64372017529E+02  0.64372017529E+02  0.00000000000E+00 0. -1.
         -6    2    1    2    0  503  0.20912944550E+03 -0.76686914272E+02  0.37836879952E+03  0.47273024053E+03  0.17519966914E+03 0.  0.
        -24    2    3    3    0    0  0.10167987137E+03 -0.11015833137E+03  0.20469813310E+03  0.26572942624E+03  0.78975616886E+02 0.  0.
          6    2    1    2  501    0 -0.20912944550E+03  0.76686914272E+02  0.11273595226E+04  0.11617421167E+04  0.17055569354E+03 0.  0.
         24    2    5    5    0    0 -0.54690442933E+02  0.13849300071E+02  0.25244164066E+03  0.27106632748E+03  0.81039029442E+02 0.  0.
          5    1    5    5  501    0 -0.15443900257E+03  0.62837614201E+02  0.87491788199E+03  0.89067578921E+03  0.47000000000E+01 0. -1.
        -13    1    6    6    0    0 -0.18427653115E+02  0.38409650158E+02  0.59269864658E+02  0.72991756255E+02  0.00000000000E+00 0.  1.
         14    1    6    6    0    0 -0.36262789819E+02 -0.24560350087E+02  0.19317177600E+03  0.19807457122E+03  0.00000000000E+00 0. -1.
         -5    1    3    3    0  503  0.10744957413E+03  0.33471417096E+02  0.17367066642E+03  0.20700081429E+03  0.47000000000E+01 0.  1.
         13    1    4    4    0    0  0.82036106389E+02 -0.86367680936E+02  0.20232417321E+03  0.23478579626E+03  0.00000000000E+00 0. -1.
        -14    1    4    4    0    0  0.19643764985E+02 -0.23790650432E+02  0.23739598942E+01  0.30943629980E+02  0.00000000000E+00 0.  1.
</event>
<event>
12    1  0.8500177E-002  0.1832106E+03  0.7818608E-02  0.1164775E+00
         21   -1    0    0  503  502  0.00000000000E+00  0.00000000000E+00  0.25827338157E+03  0.25827338157E+03  0.00000000000E+00 0.  1.
         21   -1    0    0  501  503 -0.00000000000E+00 -0.00000000000E+00 -0.13124917277E+03  0.13124917277E+03  0.00000000000E+00 0.  1.
          6    2    1    2  501    0 -0.59573854550E+02  0.49390557513E+01  0.83778460976E+02  0.20145706338E+03  0.17318394684E+03 0.  0.
         24    2    3    3    0    0 -0.88807290908E+02  0.11282841599E+02  0.10878414054E+03  0.16218606351E+03  0.80351058051E+02 0.  0.
         -6    2    1    2    0  502  0.59573854550E+02 -0.49390557513E+01  0.43245747818E+02  0.18806549096E+03  0.17298842669E+03 0.  0.
        -24    2    5    5    0    0  0.25614350586E+02  0.47074669671E+02  0.69973441007E+02  0.12027806495E+03  0.81843820672E+02 0.  0.
          5    1    3    3  501    0  0.29233436359E+02 -0.63437858474E+01 -0.25005679568E+02  0.39270999871E+02  0.47000000000E+01 0. -1.
        -13    1    4    4    0    0 -0.49989945354E+02 -0.19354768183E+02  0.14200443508E+02  0.55454975284E+02  0.00000000000E+00 0.  1.
         14    1    4    4    0    0 -0.38817345555E+02  0.30637609782E+02  0.94583697035E+02  0.10673108823E+03  0.00000000000E+00 0. -1.
         -5    1    5    5    0  502  0.33959503964E+02 -0.52013725422E+02 -0.26727693189E+02  0.67787426010E+02  0.47000000000E+01 0.  1.
         11    1    6    6    0    0 -0.15191964458E+01  0.38617787153E+02 -0.60476874360E+01  0.39117974970E+02  0.00000000000E+00 0. -1.
        -12    1    6    6    0    0  0.27133547031E+02  0.84568825176E+01  0.76021128443E+02  0.81160089984E+02  0.00000000000E+00 0.  1.
</event>
<event>
12    1  0.8500177E-002  0.2383295E+03  0.7818608E-02  0.1120939E+00
         21   -1    0    0  501  502  0.00000000000E+00  0.00000000000E+00  0.18867665231E+03  0.18867665231E+03  0.00000000000E+00 0. -1.
         21   -1    0    0  502  503 -0.00000000000E+00 -0.00000000000E+00 -0.30117913985E+03  0.30117913985E+03  0.00000000000E+00 0.  1.
         -6    2    1    2    0  503 -0.81425498605E+02  0.14398715005E+03 -0.64564033111E+02  0.24691997451E+03  0.17157665412E+03 0.  0.
        -24    2    3    3    0    0 -0.10894352529E+03  0.56778936321E+02 -0.31526274700E+02  0.14957472391E+03  0.79285261710E+02 0.  0.
          6    2    1    2  501    0  0.81425498605E+02 -0.14398715005E+03 -0.47938454425E+02  0.24293581764E+03  0.17133973526E+03 0.  0.
         24    2    5    5    0    0  0.11142934204E+03 -0.65437928908E+02 -0.49431001116E+02  0.15870679380E+03  0.77754753676E+02 0.  0.
          5    1    5    5  501    0 -0.30003843431E+02 -0.78549221142E+02  0.14925466905E+01  0.84229023847E+02  0.47000000000E+01 0. -1.
        -13    1    6    6    0    0  0.11910479592E+03 -0.57996923024E+02 -0.28946342207E+02  0.13560046541E+03  0.00000000000E+00 0.  1.
         14    1    6    6    0    0 -0.76754538861E+01 -0.74410058839E+01 -0.20484658909E+02  0.23106328387E+02  0.00000000000E+00 0. -1.
         -5    1    3    3    0  503  0.27518026682E+02  0.87208213729E+02 -0.33037758411E+02  0.97345250604E+02  0.47000000000E+01 0.  1.
         11    1    4    4    0    0 -0.71824525064E+02  0.43235720963E+02  0.18475573592E+02  0.85845423800E+02  0.00000000000E+00 0. -1.
        -12    1    4    4    0    0 -0.37119000224E+02  0.13543215357E+02 -0.50001848292E+02  0.63729300110E+02  0.00000000000E+00 0.  1.
</event>
<event>
12    1  0.8500177E-002  0.1829530E+03  0.7818608E-02  0.1165628E+00
         21   -1    0    0  503  502  0.00000000000E+00  0.00000000000E+00  0.28386771856E+03  0.28386771856E+03  0.00000000000E+00 0.  1.
         21   -1    0    0  501  503 -0.00000000000E+00 -0.00000000000E+00 -0.11647251827E+03  0.11647251827E+03  0.00000000000E+00 0.  1.
          6    2    1    2  501    0  0.40518755456E+02 -0.36890989526E+02  0.73952763124E+02  0.19733424324E+03  0.17455393931E+03 0.  0.
         24    2    3    3    0    0  0.65872505733E+02 -0.22992691042E+02  0.10787669808E+03  0.15251350343E+03  0.82189633691E+02 0.  0.
         -6    2    1    2    0  502 -0.40518755456E+02  0.36890989526E+02  0.93442437170E+02  0.20300599359E+03  0.17168934072E+03 0.  0.
        -24    2    5    5    0    0  0.14450043420E+02  0.72751254152E+01  0.11164317235E+03  0.13779844021E+03  0.79135838826E+02 0.  0.
          5    1    3    3  501    0 -0.25353750277E+02 -0.13898298484E+02 -0.33923934957E+02  0.44820739807E+02  0.47000000000E+01 0. -1.
        -13    1    4    4    0    0  0.41883447852E+02 -0.51294546203E+02  0.46939644456E+02  0.81170708361E+02  0.00000000000E+00 0.  1.
         14    1    4    4    0    0  0.23989057881E+02  0.28301855161E+02  0.60937053625E+02  0.71342795068E+02  0.00000000000E+00 0. -1.
         -5    1    5    5    0  502 -0.54968798876E+02  0.29615864111E+02 -0.18200735181E+02  0.65207553382E+02  0.47000000000E+01 0.  1.
         13    1    6    6    0    0  0.46335710487E+02  0.13095707364E+02  0.61808647102E+02  0.78350523127E+02  0.00000000000E+00 0. -1.
        -14    1    6    6    0    0 -0.31885667067E+02 -0.58205819488E+01  0.49834525249E+02  0.59447917081E+02  0.00000000000E+00 0.  1.
</event>
<event>
12    1  0.8500177E-002  0.1997966E+03  0.7818608E-02  0.1150028E+00
         21   -1    0    0  501  502  0.00000000000E+00  0.00000000000E+00  0.72729207205E+03  0.72729207205E+03  0.00000000000E+00 0. -1.
         21   -1    0    0  502  503 -0.00000000000E+00 -0.00000000000E+00 -0.78141865416E+02  0.78141865416E+02  0.00000000000E+00 0. -1.
         -6    2    1    2    0  503  0.50273351320E+01 -0.10099636385E+03  0.10385155440E+03  0.22468503538E+03  0.17167609083E+03 0.  0.
        -24    2    3    3    0    0  0.34776029289E+01 -0.11859937016E+02  0.10661045734E+03  0.13536871098E+03  0.82499372548E+02 0.  0.
          6    2    1    2  501    0 -0.50273351320E+01  0.10099636385E+03  0.54529865223E+03  0.58074890209E+03  0.17231693921E+03 0.  0.
         24    2    5    5    0    0 -0.16333310349E+02  0.12460229791E+03  0.52915043762E+03  0.54963748885E+03  0.79427160597E+02 0.  0.
          5    1    5    5  501    0  0.11305975217E+02 -0.23605934063E+02  0.16148214614E+02  0.31111413240E+02  0.47000000000E+01 0. -1.
        -11    1    6    6    0    0  0.27701019051E+02  0.46864666333E+02  0.13659878875E+03  0.14704717779E+03  0.00000000000E+00 0.  1.
         12    1    6    6    0    0 -0.44034329400E+02  0.77737631576E+02  0.39255164887E+03  0.40259031106E+03  0.00000000000E+00 0. -1.
         -5    1    3    3    0  503  0.15497322031E+01 -0.89136426830E+02 -0.27589029412E+01  0.89316324395E+02  0.47000000000E+01 0.  1.
         11    1    4    4    0    0  0.25219761498E+02 -0.35607937716E+02  0.32010087419E+02  0.54116608310E+02  0.00000000000E+00 0. -1.
        -12    1    4    4    0    0 -0.21742158569E+02  0.23748000699E+02  0.74600369921E+02  0.81252102674E+02  0.00000000000E+00 0.  1.
</event>
<event>
12    1  0.8500177E-002  0.1852599E+03  0.7818608E-02  0.1163054E+00
         21   -1    0    0  503  502  0.00000000000E+00  0.00000000000E+00  0.14028294232E+02  0.14028294232E+02  0.00000000000E+00 0. -1.
         21   -1    0    0  501  503 -0.00000000000E+00 -0.00000000000E+00 -0.25061250414E+04  0.25061250414E+04  0.00000000000E+00 0. -1.
          6    2    1    2  501    0  0.62574344030E+02  0.26940798260E+02 -0.14583110161E+04  0.14698990085E+04  0.17114531943E+03 0.  0.
         24    2    3    3    0    0  0.49936895244E+02 -0.55551185081E+01 -0.38858597320E+03  0.39959557155E+03  0.78441120543E+02 0.  0.
         -6    2    1    2    0  502 -0.62574344030E+02 -0.26940798260E+02 -0.10337857311E+04  0.10502543271E+04  0.17227843383E+03 0.  0.
        -24    2    5    5    0    0 -0.55646843159E+01 -0.53254531829E+02 -0.86128558895E+03  0.86662180576E+03  0.79708704772E+02 0.  0.
          5    1    3    3  501    0  0.12637448787E+02  0.32495916768E+02 -0.10697250429E+04  0.10703034370E+04  0.47000000000E+01 0. -1.
        -13    1    4    4    0    0  0.69128246837E+02  0.37222360826E+00 -0.34112914713E+03  0.34806313807E+03  0.00000000000E+00 0.  1.
         14    1    4    4    0    0 -0.19191351593E+02 -0.59273421164E+01 -0.47456826071E+02  0.51532433489E+02  0.00000000000E+00 0. -1.
         -5    1    5    5    0  502 -0.57009659714E+02  0.26313733569E+02 -0.17250014212E+03  0.18363252137E+03  0.47000000000E+01 0.  1.
         11    1    6    6    0    0  0.85786063064E+01 -0.61025920577E+02 -0.37198464130E+03  0.37705480879E+03  0.00000000000E+00 0. -1.
        -12    1    6    6    0    0 -0.14143290622E+02  0.77713887475E+01 -0.48930094765E+03  0.48956699697E+03  0.00000000000E+00 0.  1.
</event>
<event>
12    1  0.8500177E-002  0.2318052E+03  0.7818608E-02  0.1125415E+00
         21   -1    0    0  501  502  0.00000000000E+00  0.00000000000E+00  0.50719117379E+03  0.50719117379E+03  0.00000000000E+00 0.  1.
         21   -1    0    0  502  503 -0.00000000000E+00 -0.00000000000E+00 -0.11927518149E+03  0.11927518149E+03  0.00000000000E+00 0. -1.
         -6    2    1    2    0  503  0.13329725558E+03  0.79525062592E+02  0.88917179358E+02  0.24827386849E+03  0.17216635869E+03 0.  0.
        -24    2    3    3    0    0  0.87311715286E+02  0.88904824396E+02  0.11814415071E+03  0.19278553005E+03  0.87640269418E+02 0.  0.
          6    2    1    2  501    0 -0.13329725558E+03 -0.79525062592E+02  0.29899881294E+03  0.37819248678E+03  0.17186294828E+03 0.  0.
         24    2    5    5    0    0 -0.14074426496E+03 -0.72202366552E+02  0.31321227397E+03  0.35993893095E+03  0.80199598453E+02 0.  0.
          5    1    5    5  501    0  0.74470093781E+01 -0.73226960399E+01 -0.14213461032E+02  0.18253555831E+02  0.47000000000E+01 0. -1.
        -11    1    6    6    0    0  0.56391340195E+01 -0.21797448225E+02  0.41570705870E+02  0.47276338354E+02  0.00000000000E+00 0.  1.
         12    1    6    6    0    0 -0.14638339898E+03 -0.50404918328E+02  0.27164156810E+03  0.31266259260E+03  0.00000000000E+00 0. -1.
         -5    1    3    3    0  503  0.45985540294E+02 -0.93797618032E+01 -0.29226971354E+02  0.55488338434E+02  0.47000000000E+01 0.  1.
         13    1    4    4    0    0  0.28683336145E+02  0.16604097290E+02 -0.98016831172E+01  0.34561579986E+02  0.00000000000E+00 0. -1.
        -14    1    4    4    0    0  0.58628379142E+02  0.72300727105E+02  0.12794583383E+03  0.15822395007E+03  0.00000000000E+00 0.  1.
</event>
<event>
12    1  0.8500177E-002  0.2008872E+03  0.7818608E-02  0.1149026E+00
         21   -1    0    0  503  502  0.00000000000E+00  0.00000000000E+00  0.12233832151E+03  0.12233832151E+03  0.00000000000E+00 0. -1.
         21   -1    0    0  501  503 -0.00000000000E+00 -0.00000000000E+00 -0.41164682424E+03  0.41164682424E+03  0.00000000000E+00 0. -1.
          6    2    1    2  501    0  0.75257823921E+02 -0.71539052281E+02 -0.25506811909E+02  0.20250005478E+03  0.17197121465E+03 0.  0.
         24    2    3    3    0    0 -0.17874964502E+02 -0.65700350232E+02 -0.28818777529E+02  0.10900745701E+03  0.80100270721E+02 0.  0.
         -6    2    1    2    0  502 -0.75257823921E+02  0.71539052281E+02 -0.26380169082E+03  0.33148509097E+03  0.17178316971E+03 0.  0.
        -24    2    5    5    0    0 -0.32211366184E+02 -0.25680402949E+02 -0.50731243134E+02  0.93313460259E+02  0.66608465141E+02 0.  0.
          5    1    3    3  501    0  0.93132788423E+02 -0.58387020498E+01  0.33119656206E+01  0.93492597768E+02  0.47000000000E+01 0. -1.
        -13    1    4    4    0    0  0.40475438445E+01 -0.76820924838E+02 -0.33633475233E+02  0.83958607423E+02  0.00000000000E+00 0.  1.
         14    1    4    4    0    0 -0.21922508347E+02  0.11120574607E+02  0.48146977035E+01  0.25048849590E+02  0.00000000000E+00 0. -1.
         -5    1    5    5    0  502 -0.43046457736E+02  0.97219455231E+02 -0.21307044769E+03  0.23817163071E+03  0.47000000000E+01 0.  1.
         13    1    6    6    0    0 -0.11856577154E+02  0.10519489639E+02  0.10726828866E+02  0.19139042338E+02  0.00000000000E+00 0. -1.
        -14    1    6    6    0    0 -0.20354789030E+02 -0.36199892589E+02 -0.61458072000E+02  0.74174417921E+02  0.00000000000E+00 0.  1.
</event>
<event>
12    1  0.8500177E-002  0.2389097E+03  0.7818608E-02  0.1120525E+00
         21   -1    0    0  503  502  0.00000000000E+00  0.00000000000E+00  0.91528659494E+03  0.91528659494E+03  0.00000000000E+00 0.  1.
         21   -1    0    0  501  503 -0.00000000000E+00 -0.00000000000E+00 -0.70149295613E+02  0.70149295613E+02  0.00000000000E+00 0.  1.
          6    2    1    2  501    0  0.26310403963E+02  0.16287609006E+03  0.25835127725E+03  0.35188521454E+03  0.17279167714E+03 0.  0.
         24    2    3    3    0    0  0.38696311249E+02  0.97842292725E+02  0.25267099644E+03  0.28527319547E+03  0.80421669087E+02 0.  0.
         -6    2    1    2    0  502 -0.26310403963E+02 -0.16287609006E+03  0.58678602208E+03  0.63355067601E+03  0.17276505809E+03 0.  0.
        -24    2    5    5    0    0  0.39033209485E+02 -0.14593501222E+03  0.41223285640E+03  0.44634040497E+03  0.80394091660E+02 0.  0.
          5    1    3    3  501    0 -0.12385907287E+02  0.65033797335E+02  0.56802808036E+01  0.66612019074E+02  0.47000000000E+01 0. -1.
        -13    1    4    4    0    0  0.10206149167E+02 -0.56652727953E+01  0.10662941648E+01  0.11721679910E+02  0.00000000000E+00 0.  1.
         14    1    4    4    0    0  0.28490162082E+02  0.10350756552E+03  0.25160470228E+03  0.27355151556E+03  0.00000000000E+00 0. -1.
         -5    1    5    5    0  502 -0.65343613447E+02 -0.16941077840E+02  0.17455316568E+03  0.18721027105E+03  0.47000000000E+01 0.  1.
         11    1    6    6    0    0  0.31332120056E+02 -0.27562417321E+02  0.49710967754E+02  0.64904305796E+02  0.00000000000E+00 0. -1.
        -12    1    6    6    0    0  0.77010894285E+01 -0.11837259490E+03  0.36252188865E+03  0.38143609917E+03  0.00000000000E+00 0.  1.
</event>
<event>
12    1  0.8500177E-002  0.1962061E+03  0.7818608E-02  0.1153434E+00
         21   -1    0    0  501  502  0.00000000000E+00  0.00000000000E+00  0.93535038644E+02  0.93535038644E+02  0.00000000000E+00 0. -1.
         21   -1    0    0  502  503 -0.00000000000E+00 -0.00000000000E+00 -0.52269764706E+03  0.52269764706E+03  0.00000000000E+00 0. -1.
         -6    2    1    2    0  503  0.88618474723E+02  0.29450552201E+02 -0.70644934095E+02  0.20853670799E+03  0.17255805626E+03 0.  0.
        -24    2    3    3    0    0  0.97238578237E+02 -0.31270813253E+02 -0.70511063535E+02  0.14702655981E+03  0.78814937359E+02 0.  0.
          6    2    1    2  501    0 -0.88618474723E+02 -0.29450552201E+02 -0.35851767432E+03  0.40769597772E+03  0.17017790208E+03 0.  0.
         24    2    5    5    0    0 -0.12224143555E+03 -0.18097270570E+02 -0.21997776884E+03  0.26460581066E+03  0.79721618653E+02 0.  0.
          5    1    5    5  501    0  0.33622960829E+02 -0.11353281631E+02 -0.13853990548E+03  0.14309016706E+03  0.47000000000E+01 0. -1.
        -11    1    6    6    0    0 -0.59303077345E+02 -0.41287563550E+02 -0.71378539256E+02  0.10156974822E+03  0.00000000000E+00 0.  1.
         12    1    6    6    0    0 -0.62938358207E+02  0.23190292980E+02 -0.14859922959E+03  0.16303606244E+03  0.00000000000E+00 0. -1.
         -5    1    3    3    0  503 -0.86201035141E+01  0.60721365454E+02 -0.13387056014E+00  0.61510148175E+02  0.47000000000E+01 0.  1.
         11    1    4    4    0    0  0.10035667415E+03 -0.22208794984E+02 -0.32461806559E+02  0.10778896746E+03  0.00000000000E+00 0. -1.
        -12    1    4    4    0    0 -0.31180959140E+01 -0.90620182696E+01 -0.38049256976E+02  0.39237592353E+02  0.00000000000E+00 0.  1.
</event>
<event>
12    1  0.8500177E-002  0.1910981E+03  0.7818608E-02  0.1157670E+00
         21   -1    0    0  501  502  0.00000000000E+00  0.00000000000E+00  0.56925308181E+03  0.56925308181E+03  0.00000000000E+00 0. -1.
         21   -1    0    0  502  503 -0.00000000000E+00 -0.00000000000E+00 -0.96784447261E+02  0.96784447261E+02  0.00000000000E+00 0. -1.
         -6    2    1    2    0  503 -0.14695253623E+02 -0.81215231336E+02  0.41645508169E+02  0.19473396423E+03  0.17139166897E+03 0.  0.
        -24    2    3    3    0    0 -0.43755360889E+02 -0.59867159691E+02 -0.30239490191E+02  0.11417483696E+03  0.81380945013E+02 0.  0.
          6    2    1    2  501    0  0.14695253623E+02  0.81215231336E+02  0.43082312638E+03  0.47130356485E+03  0.17235608411E+03 0.  0.
         24    2    5    5    0    0  0.34690135533E+02 -0.16561623591E+02  0.16427358460E+03  0.18664437056E+03  0.79828676478E+02 0.  0.
          5    1    5    5  501    0 -0.19994881910E+02  0.97776854927E+02  0.26654954179E+03  0.28465919428E+03  0.47000000000E+01 0. -1.
        -11    1    6    6    0    0 -0.58453389040E+01 -0.40817475531E+02  0.81613248249E+02  0.91438266527E+02  0.00000000000E+00 0.  1.
         12    1    6    6    0    0  0.40535474437E+02  0.24255851940E+02  0.82660336346E+02  0.95206104038E+02  0.00000000000E+00 0. -1.
         -5    1    3    3    0  503  0.29060107266E+02 -0.21348071645E+02  0.71884998360E+02  0.80559127270E+02  0.47000000000E+01 0.  1.
         13    1    4    4    0    0 -0.58445697252E+02 -0.69566548901E+02 -0.17713975694E+02  0.92569915135E+02  0.00000000000E+00 0. -1.
        -14    1    4    4    0    0  0.14690336364E+02  0.96993892099E+01 -0.12525514497E+02  0.21604921822E+02  0.00000000000E+00 0.  1.
</event>
<event>
12    1  0.8500177E-002  0.2113349E+03  0.7818608E-02  0.1141453E+00
         21   -1    0    0  501  502  0.00000000000E+00  0.00000000000E+00  0.77077033435E+02  0.77077033435E+02  0.00000000000E+00 0. -1.
         21   -1    0    0  502  503 -0.00000000000E+00 -0.00000000000E+00 -0.67576417134E+03  0.67576417134E+03  0.00000000000E+00 0.  1.
         -6    2    1    2    0  503 -0.12151767819E+03  0.22614670148E+02 -0.45349558620E+03  0.50032058927E+03  0.17141900692E+03 0.  0.
        -24    2    3    3    0    0 -0.13646905347E+03 -0.42693974237E-01 -0.25545886958E+03  0.30037676991E+03  0.79643992112E+02 0.  0.
          6    2    1    2  501    0  0.12151767819E+03 -0.22614670148E+02 -0.14519155171E+03  0.25252061550E+03  0.16555393426E+03 0.  0.
         24    2    5    5    0    0  0.18819777691E+02 -0.56583730449E+02 -0.77277832121E+02  0.12471169902E+03  0.77622432011E+02 0.  0.
          5    1    5    5  501    0  0.10269790050E+03  0.33969060301E+02 -0.67913719585E+02  0.12780891648E+03  0.47000000000E+01 0. -1.
        -11    1    6    6    0    0  0.14740056220E+02 -0.36064876967E+02 -0.91476554212E+02  0.99427886323E+02  0.00000000000E+00 0.  1.
         12    1    6    6    0    0  0.40797214702E+01 -0.20518853482E+02  0.14198722091E+02  0.25283812697E+02  0.00000000000E+00 0. -1.
         -5    1    3    3    0  503  0.14951375279E+02  0.22657364123E+02 -0.19803671662E+03  0.19994381937E+03  0.47000000000E+01 0.  1.
         11    1    4    4    0    0 -0.84921089158E+02 -0.22978346200E+02 -0.21079897506E+03  0.22842023480E+03  0.00000000000E+00 0. -1.
        -12    1    4    4    0    0 -0.51547964308E+02  0.22935652226E+02 -0.44659894514E+02  0.71956535112E+02  0.00000000000E+00 0.  1.
</event>
<event>
12    1  0.8500177E-002  0.1967403E+03  0.7818608E-02  0.1152944E+00
         21   -1    0    0  501  502  0.00000000000E+00  0.00000000000E+00  0.37805761943E+03  0.37805761943E+03  0.00000000000E+00 0.  1.
         21   -1    0    0  502  503 -0.00000000000E+00 -0.00000000000E+00 -0.50473403188E+03  0.50473403188E+03  0.00000000000E+00 0. -1.
         -6    2    1    2    0  503  0.51398023304E+02 -0.71767428546E+02 -0.45799320465E+03  0.49846215606E+03  0.17582498378E+03 0.  0.
        -24    2    3    3    0    0  0.53169480328E+02 -0.10004886547E+03 -0.22910152946E+03  0.26777521082E+03  0.79870417610E+02 0.  0.
          6    2    1    2  501    0 -0.51398023304E+02  0.71767428546E+02  0.33131679220E+03  0.38432949525E+03  0.17362610266E+03 0.  0.
         24    2    5    5    0    0  0.15815043315E+02  0.51349221458E+02  0.28178442019E+03  0.29824787478E+03  0.81623998994E+02 0.  0.
          5    1    5    5  501    0 -0.67213066619E+02  0.20418207088E+02  0.49532372013E+02  0.86081620467E+02  0.47000000000E+01 0. -1.
        -13    1    6    6    0    0 -0.28722210762E+02  0.43181981922E+02  0.13415376937E+03  0.14382935302E+03  0.00000000000E+00 0.  1.
         14    1    6    6    0    0  0.44537254077E+02  0.81672395364E+01  0.14763065082E+03  0.15441852176E+03  0.00000000000E+00 0. -1.
         -5    1    3    3    0  503 -0.17714570234E+01  0.28281436923E+02 -0.22889167519E+03  0.23068694524E+03  0.47000000000E+01 0.  1.
         11    1    4    4    0    0  0.69621522524E+02 -0.63333417213E+02 -0.18809088209E+03  0.21032464920E+03  0.00000000000E+00 0. -1.
        -12    1    4    4    0    0 -0.16452042197E+02 -0.36715448256E+02 -0.41010647366E+02  0.57450561620E+02  0.00000000000E+00 0.  1.
</event>
<event>
12    1  0.8500177E-002  0.1776556E+03  0.7818608E-02  0.1170460E+00
         21   -1    0    0  503  502  0.00000000000E+00  0.00000000000E+00  0.69216687740E+02  0.69216687740E+02  0.00000000000E+00 0.  1.
         21   -1    0    0  501  503 -0.00000000000E+00 -0.00000000000E+00 -0.45267279985E+03  0.45267279985E+03  0.00000000000E+00 0.  1.
          6    2    1    2  501    0  0.45134757294E+02  0.16848165755E+02 -0.18212578550E+03  0.25338357436E+03  0.16944741664E+03 0.  0.
         24    2    3    3    0    0  0.47760290170E+02  0.80388101423E+02 -0.12685361507E+03  0.16899566248E+03  0.61027879798E+02 0.  0.
         -6    2    1    2    0  502 -0.45134757294E+02 -0.16848165755E+02 -0.20133032660E+03  0.26850591322E+03  0.17099859070E+03 0.  0.
        -24    2    5    5    0    0  0.39368454235E-01  0.51365065945E+02 -0.11648068981E+03  0.15054279407E+03  0.80355523764E+02 0.  0.
          5    1    3    3  501    0 -0.26255328767E+01 -0.63539935668E+02 -0.55272170435E+02  0.84387911884E+02  0.47000000000E+01 0. -1.
        -11    1    4    4    0    0  0.38817847911E+02  0.36772661139E+02 -0.10826323031E+03  0.12074759194E+03  0.00000000000E+00 0.  1.
         12    1    4    4    0    0  0.89424422592E+01  0.43615440285E+02 -0.18590384764E+02  0.48248070536E+02  0.00000000000E+00 0. -1.
         -5    1    5    5    0  502 -0.45174125748E+02 -0.68213231700E+02 -0.84849636798E+02  0.11796311916E+03  0.47000000000E+01 0.  1.
         13    1    6    6    0    0 -0.28950248523E+02  0.16285523954E+01 -0.12263874192E+02  0.31482879198E+02  0.00000000000E+00 0. -1.
        -14    1    6    6    0    0  0.28989616977E+02  0.49736513550E+02 -0.10421681561E+03  0.11905991487E+03  0.00000000000E+00 0.  1.
</event>
<event>
12    1  0.8500177E-002  0.1863858E+03  0.7818608E-02  0.1161846E+00
         21   -1    0    0  501  502  0.00000000000E+00  0.00000000000E+00  0.22316069876E+04  0.22316069876E+04  0.00000000000E+00 0.  1.
         21   -1    0    0  502  503 -0.00000000000E+00 -0.00000000000E+00 -0.45695702476E+02  0.45695702476E+02  0.00000000000E+00 0.  1.
         -6    2    1    2    0  503  0.69803403016E+02  0.78697199560E+00  0.16755122144E+03  0.25035498597E+03  0.17242700715E+03 0.  0.
        -24    2    3    3    0    0  0.21411496333E+02  0.43290224943E+02  0.33195012583E+02  0.10128458648E+03  0.82608491378E+02 0.  0.
          6    2    1    2  501    0 -0.69803403016E+02 -0.78697199560E+00  0.20183600637E+04  0.20269477041E+04  0.17281931065E+03 0.  0.
         24    2    5    5    0    0 -0.15727420190E+02  0.56621542538E+02  0.14854207127E+04  0.14881839420E+04  0.69017395636E+02 0.  0.
          5    1    5    5  501    0 -0.54075982825E+02 -0.57408514534E+02  0.53293935102E+03  0.53876376207E+03  0.47000000000E+01 0. -1.
        -11    1    6    6    0    0 -0.40838078210E+02  0.18492675464E+02  0.69155943016E+03  0.69301094733E+03  0.00000000000E+00 0.  1.
         12    1    6    6    0    0  0.25110658019E+02  0.38128867074E+02  0.79386128250E+03  0.79517299471E+03  0.00000000000E+00 0. -1.
         -5    1    3    3    0  503  0.48391906683E+02 -0.42503252948E+02  0.13435620886E+03  0.14907039949E+03  0.47000000000E+01 0.  1.
         13    1    4    4    0    0 -0.18141189071E+02  0.51640628196E+02  0.24335802506E+02  0.59900655297E+02  0.00000000000E+00 0. -1.
        -14    1    4    4    0    0  0.39552685404E+02 -0.83504032531E+01  0.88592100770E+01  0.41383931185E+02  0.00000000000E+00 0.  1.
</event>
<event>
12    1  0.8500177E-002  0.1885542E+03  0.7818608E-02  0.1159866E+00
         21   -1    0    0  501  502  0.00000000000E+00  0.00000000000E+00  0.74513276321E+02  0.74513276321E+02  0.00000000000E+00 0. -1.
         21   -1    0    0  502  503 -0.00000000000E+00 -0.00000000000E+00 -0.78445279195E+03  0.78445279195E+03  0.00000000000E+00 0.  1.
         -6    2    1    2    0  503  0.73719740935E+02 -0.21598644532E+02 -0.62400821950E+03  0.65175391466E+03  0.17174342965E+03 0.  0.
        -24    2    3    3    0    0  0.10768777185E+03 -0.17397062126E+02 -0.57945183200E+03  0.59537269362E+03  0.82491846424E+02 0.  0.
          6    2    1    2  501    0 -0.73719740935E+02  0.21598644532E+02 -0.85931296126E+02  0.20721215360E+03  0.17219636262E+03 0.  0.
         24    2    5    5    0    0 -0.59464349031E+02  0.72148345651E+02 -0.41870657653E+02  0.13849593758E+03  0.93201824923E+02 0.  0.
          5    1    5    5  501    0 -0.14255391904E+02 -0.50549701120E+02 -0.44060638473E+02  0.68716216021E+02  0.47000000000E+01 0. -1.
        -11    1    6    6    0    0  0.13373761378E+02  0.10299039000E+02  0.18832341757E+02  0.25290013717E+02  0.00000000000E+00 0.  1.
         12    1    6    6    0    0 -0.72838110409E+02  0.61849306651E+02 -0.60702999411E+02  0.11320592387E+03  0.00000000000E+00 0. -1.
         -5    1    3    3    0  503 -0.33968030917E+02 -0.42015824054E+01 -0.44556387504E+02  0.56381221045E+02  0.47000000000E+01 0.  1.
         13    1    4    4    0    0  0.45547095423E+02  0.29099351325E+02 -0.16231507400E+03  0.17107744853E+03  0.00000000000E+00 0. -1.
        -14    1    4    4    0    0  0.62140676429E+02 -0.46496413451E+02 -0.41713675800E+03  0.42429524509E+03  0.00000000000E+00 0.  1.
</event>
<event>
12    1  0.8500177E-002  0.2175306E+03  0.7818608E-02  0.1135910E+00
         21   -1    0    0  501  502  0.00000000000E+00  0.00000000000E+00  0.60117277263E+02  0.60117277263E+02  0.00000000000E+00 0.  1.
         21   -1    0    0  502  503 -0.00000000000E+00 -0.00000000000E+00 -0.88166512281E+03  0.88166512281E+03  0.00000000000E+00 0.  1.
         -6    2    1    2    0  503 -0.91517075375E+02 -0.96210432424E+02 -0.56840057934E+03  0.60860395657E+03  0.17230129124E+03 0.  0.
        -24    2    3    3    0    0 -0.91392957626E+01 -0.62987324419E+02 -0.15401696762E+03  0.18478118566E+03  0.79824372806E+02 0.  0.
          6    2    1    2  501    0  0.91517075375E+02  0.96210432424E+02 -0.25314726621E+03  0.33317844350E+03  0.17115056072E+03 0.  0.
         24    2    5    5    0    0 -0.19714845074E+02  0.29912334936E+02 -0.77888653965E+02  0.11522053697E+03  0.76978612776E+02 0.  0.
          5    1    5    5  501    0  0.11123192045E+03  0.66298097488E+02 -0.17525861224E+03  0.21795790654E+03  0.47000000000E+01 0. -1.
        -11    1    6    6    0    0  0.23836524882E+02  0.29566427443E+02 -0.20441302373E+02  0.43130040493E+02  0.00000000000E+00 0.  1.
         12    1    6    6    0    0 -0.43551369956E+02  0.34590749286E+00 -0.57447351592E+02  0.72090496475E+02  0.00000000000E+00 0. -1.
         -5    1    3    3    0  503 -0.82377779613E+02 -0.33223108005E+02 -0.41438361172E+03  0.42382277091E+03  0.47000000000E+01 0.  1.
         11    1    4    4    0    0 -0.16333383805E+02 -0.19813536759E+02 -0.10759722767E+01  0.25700454894E+02  0.00000000000E+00 0. -1.
        -12    1    4    4    0    0  0.71940880426E+01 -0.43173787660E+02 -0.15294099535E+03  0.15908073077E+03  0.00000000000E+00 0.  1.
</event>
<event>
12    1  0.8500177E-002  0.2044369E+03  0.7818608E-02  0.1146411E+00
         21   -1    0    0  501  502  0.00000000000E+00  0.00000000000E+00  0.38385217664E+03  0.38385217664E+03  0.00000000000E+00 0. -1.
         21   -1    0    0  502  503 -0.00000000000E+00 -0.00000000000E+00 -0.11855002127E+03  0.11855002127E+03  0.00000000000E+00 0.  1.
         -6    2    1    2    0  503 -0.27974805385E+02 -0.10388852807E+03  0.57001813560E+02  0.21054009483E+03  0.17176294357E+03 0.  0.
        -24    2    3    3    0    0 -0.22172303857E+00  0.13319847194E+02  0.28032630864E+02  0.86566951139E+02  0.80811763661E+02 0.  0.
          6    2    1    2  501    0  0.27974805385E+02  0.10388852807E+03  0.20830034180E+03  0.29186210307E+03  0.17383624137E+03 0.  0.
         24    2    5    5    0    0 -0.31466365137E+02  0.59594213384E+02  0.48276166654E+02  0.11543912923E+03  0.80336802823E+02 0.  0.
          5    1    5    5  501    0  0.59441170522E+02  0.44294314685E+02  0.16002417515E+03  0.17642297384E+03  0.47000000000E+01 0. -1.
        -13    1    6    6    0    0 -0.49472692710E+02  0.10039144331E+02  0.13421126232E+02  0.52234647239E+02  0.00000000000E+00 0.  1.
         14    1    6    6    0    0  0.18006327573E+02  0.49555069053E+02  0.34855040422E+02  0.63204481996E+02  0.00000000000E+00 0. -1.
         -5    1    3    3    0  503 -0.27753082346E+02 -0.11720837526E+03  0.28969182695E+02  0.12397314369E+03  0.47000000000E+01 0.  1.
         13    1    4    4    0    0 -0.24260629755E+02 -0.21956318096E+02  0.29210723423E+02  0.43862562890E+02  0.00000000000E+00 0. -1.
        -14    1    4    4    0    0  0.24038906716E+02  0.35276165289E+02 -0.11780925586E+01  0.42704388249E+02  0.00000000000E+00 0.  1.
</event>
<event>
12    1  0.8500177E-002  0.1728472E+03  0.7818608E-02  0.1175282E+00
         21   -1    0    0  503  502  0.00000000000E+00  0.00000000000E+00  0.10087776135E+03  0.10087776135E+03  0.00000000000E+00 0. -1.
         21   -1    0    0  501  503 -0.00000000000E+00 -0.00000000000E+00 -0.45130921407E+03  0.45130921407E+03  0.00000000000E+00 0. -1.
          6    2    1    2  501    0  0.84428235106E+01  0.84348163777E+01 -0.33885857553E+03  0.38039621752E+03  0.17243468531E+03 0.  0.
         24    2    3    3    0    0  0.62292920736E+02 -0.24653886331E+02 -0.25845719069E+03  0.27801864233E+03  0.77498541781E+02 0.  0.
         -6    2    1    2    0  502 -0.84428235106E+01 -0.84348163777E+01 -0.11572877188E+02  0.17179075790E+03  0.17098451865E+03 0.  0.
        -24    2    5    5    0    0 -0.58883885577E+02  0.34897140605E+02 -0.11934374472E+01  0.10432386226E+03  0.78720528078E+02 0.  0.
          5    1    3    3  501    0 -0.53850097225E+02  0.33088702709E+02 -0.80401384837E+02  0.10237757519E+03  0.47000000000E+01 0. -1.
        -11    1    4    4    0    0  0.77143882316E+02 -0.31150654116E+02 -0.18581243695E+03  0.20358733643E+03  0.00000000000E+00 0.  1.
         12    1    4    4    0    0 -0.14850961580E+02  0.64967677853E+01 -0.72644753737E+02  0.74431305894E+02  0.00000000000E+00 0. -1.
         -5    1    5    5    0  502  0.50441062066E+02 -0.43331956982E+02 -0.10379439741E+02  0.67466895642E+02  0.47000000000E+01 0.  1.
         13    1    6    6    0    0  0.17328100577E+02 -0.37533193650E+01  0.56222696787E+01  0.18600010543E+02  0.00000000000E+00 0. -1.
        -14    1    6    6    0    0 -0.76211986154E+02  0.38650459970E+02 -0.68157071259E+01  0.85723851716E+02  0.00000000000E+00 0.  1.
</event>
<event>
12    1  0.8500177E-002  0.1898576E+03  0.7818608E-02  0.1158591E+00
         21   -1    0    0  501  502  0.00000000000E+00  0.00000000000E+00  0.13141643795E+02  0.13141643795E+02  0.00000000000E+00 0.  1.
         21   -1    0    0  502  503 -0.00000000000E+00 -0.00000000000E+00 -0.28216794206E+04  0.28216794206E+04  0.00000000000E+00 0.  1.
         -6    2    1    2    0  503 -0.41261916591E+02  0.69010483163E+02 -0.11673180674E+04  0.11826569142E+04  0.17199102815E+03 0.  0.
        -24    2    3    3    0    0 -0.74782590731E+02  0.25468719655E+01 -0.84021357933E+03  0.84715656651E+03  0.78207843972E+02 0.  0.
          6    2    1    2  501    0  0.41261916591E+02 -0.69010483163E+02 -0.16412197094E+04  0.16521641502E+04  0.17198619706E+03 0.  0.
         24    2    5    5    0    0  0.64312631393E+02  0.14105703570E+02 -0.96416546096E+03  0.96962171097E+03  0.78842506643E+02 0.  0.
          5    1    5    5  501    0 -0.23050714802E+02 -0.83116186733E+02 -0.67705424845E+03  0.68254243919E+03  0.47000000000E+01 0. -1.
        -13    1    6    6    0    0  0.16441884961E+02  0.11344954382E+02 -0.74519215940E+03  0.74545985673E+03  0.00000000000E+00 0.  1.
         14    1    6    6    0    0  0.47870746432E+02  0.27607491873E+01 -0.21897330156E+03  0.22416185424E+03  0.00000000000E+00 0. -1.
         -5    1    3    3    0  503  0.33520674140E+02  0.66463611197E+02 -0.32710448805E+03  0.33550034771E+03  0.47000000000E+01 0.  1.
         13    1    4    4    0    0 -0.46944072511E+02  0.39610439859E+02 -0.43966777378E+03  0.44393747779E+03  0.00000000000E+00 0. -1.
        -14    1    4    4    0    0 -0.27838518220E+02 -0.37063567893E+02 -0.40054580555E+03  0.40321908872E+03  0.00000000000E+00 0.  1.
</event>
<event>
12    1  0.8500177E-002  0.1944562E+03  0.7818608E-02  0.1156133E+00
         21   -1    0    0  503  502  0.00000000000E+00  0.00000000000E+00  0.26979454265E+03  0.26979454265E+03  0.00000000000E+00 0. -1.
         21   -1    0    0  501  503 -0.00000000000E+00 -0.00000000000E+00 -0.14953398003E+03  0.14953398003E+03  0.00000000000E+00 0.  1.
          6    2    1    2  501    0 -0.38845080120E+02  0.65575779229E+02 -0.63929884716E+01  0.18726317642E+03  0.17093128405E+03 0.  0.
         24    2    3    3    0    0 -0.16980445801E+02  0.94819886978E+02 -0.36534591595E+02  0.13968286210E+03  0.94325919418E+02 0.  0.
         -6    2    1    2    0  502  0.38845080120E+02 -0.65575779229E+02  0.12665355109E+03  0.23206534627E+03  0.17889684140E+03 0.  0.
        -24    2    5    5    0    0  0.62000134422E+02 -0.10598470024E+03  0.73562642090E+02  0.16128560301E+03  0.74329066146E+02 0.  0.
          5    1    3    3  501    0 -0.21864634319E+02 -0.29244107749E+02  0.30141603123E+02  0.47580314320E+02  0.47000000000E+01 0. -1.
        -13    1    4    4    0    0  0.33705824612E+02  0.68098906607E+02 -0.10352099509E+02  0.76685785241E+02  0.00000000000E+00 0.  1.
         14    1    4    4    0    0 -0.50686270413E+02  0.26720980371E+02 -0.26182492086E+02  0.62997076854E+02  0.00000000000E+00 0. -1.
         -5    1    5    5    0  502 -0.23155054302E+02  0.40408921010E+02  0.53090908998E+02  0.70779743254E+02  0.47000000000E+01 0.  1.
         11    1    6    6    0    0  0.41677553209E+02 -0.25345016103E+02  0.59507761163E+02  0.76945187773E+02  0.00000000000E+00 0. -1.
        -12    1    6    6    0    0  0.20322581213E+02 -0.80639684136E+02  0.14054880927E+02  0.84340415238E+02  0.00000000000E+00 0.  1.
</event>
<event>
12    1  0.8500177E-002  0.1974717E+03  0.7818608E-02  0.1152126E+00
         21   -1    0    0  503  502  0.00000000000E+00  0.00000000000E+00  0.10056132215E+04  0.10056132215E+04  0.00000000000E+00 0. -1.
         21   -1    0    0  501  503 -0.00000000000E+00 -0.00000000000E+00 -0.78485265832E+02  0.78485265832E+02  0.00000000000E+00 0.  1.
          6    2    1    2  501    0 -0.66836751437E+02 -0.70236709060E+02  0.84952432415E+03  0.87192541019E+03  0.17076884075E+03 0.  0.
         24    2    3    3    0    0 -0.42528633782E+02 -0.11034025260E+03  0.52511812883E+03  0.54411350017E+03  0.79541157950E+02 0.  0.
         -6    2    1    2    0  502  0.66836751437E+02  0.70236709060E+02  0.77603631489E+02  0.21217307711E+03  0.17203123085E+03 0.  0.
        -24    2    5    5    0    0  0.60802573921E+02 -0.10290058760E+02  0.13916515611E+01  0.10103655063E+03  0.80022556600E+02 0.  0.
          5    1    3    3  501    0 -0.24308117655E+02  0.40103543536E+02  0.32440619532E+03  0.32781191002E+03  0.47000000000E+01 0. -1.
        -11    1    4    4    0    0  0.23779526009E+02 -0.31898646067E+02  0.14304845742E+03  0.14847845179E+03  0.00000000000E+00 0.  1.
         12    1    4    4    0    0 -0.66308159790E+02 -0.78441606529E+02  0.38206967142E+03  0.39563504838E+03  0.00000000000E+00 0. -1.
         -5    1    5    5    0  502  0.60341775159E+01  0.80526767820E+02  0.76211979928E+02  0.11113652648E+03  0.47000000000E+01 0.  1.
         11    1    6    6    0    0  0.41198039137E+02 -0.29033629788E+02  0.32340606588E+02  0.59884429712E+02  0.00000000000E+00 0. -1.
        -12    1    6    6    0    0  0.19604534784E+02  0.18743571028E+02 -0.30948955027E+02  0.41152120920E+02  0.00000000000E+00 0.  1.
</event>
<event>
12    1  0.8500177E-002  0.1850161E+03  0.7818608E-02  0.1163386E+00
         21   -1    0    0  503  502  0.00000000000E+00  0.00000000000E+00  0.33613628915E+03  0.33613628915E+03  0.00000000000E+00 0. -1.
         21   -1    0    0  501  503 -0.00000000000E+00 -0.00000000000E+00 -0.13334762592E+03  0.13334762592E+03  0.00000000000E+00 0.  1.
          6    2    1    2  501    0  0.48981213817E+02  0.49388102673E+02 -0.14508592162E+02  0.18409111829E+03  0.16982548864E+03 0.  0.
         24    2    3    3    0    0  0.32405519378E+02  0.76086078696E+02  0.40224320860E+02  0.12080354180E+03  0.78334479415E+02 0.  0.
         -6    2    1    2    0  502 -0.48981213817E+02 -0.49388102673E+02  0.21729725540E+03  0.28539279678E+03  0.17144272297E+03 0.  0.
        -24    2    5    5    0    0 -0.21176595395E+02  0.20072557559E+02  0.18789084789E+03  0.20486511876E+03  0.76258707068E+02 0.  0.
          5    1    3    3  501    0  0.16575694439E+02 -0.26697976022E+02 -0.54732913022E+02  0.63287576488E+02  0.47000000000E+01 0. -1.
        -11    1    4    4    0    0  0.30829051647E+02  0.35611053132E+02 -0.17532320752E+02  0.50258927581E+02  0.00000000000E+00 0.  1.
         12    1    4    4    0    0  0.15764677314E+01  0.40475025563E+02  0.57756641612E+02  0.70544614218E+02  0.00000000000E+00 0. -1.
         -5    1    5    5    0  502 -0.27804618422E+02 -0.69460660233E+02  0.29406407505E+02  0.80527678024E+02  0.47000000000E+01 0.  1.
         13    1    6    6    0    0 -0.39144450514E+02  0.14750880788E+02  0.17954076181E+03  0.18434956372E+03  0.00000000000E+00 0. -1.
        -14    1    6    6    0    0  0.17967855120E+02  0.53216767718E+01  0.83500860801E+01  0.20515555045E+02  0.00000000000E+00 0.  1.
</event>
<event>
12    1  0.8500177E-002  0.2955713E+03  0.7818608E-02  0.1087699E+00
         21   -1    0    0  501  502  0.00000000000E+00  0.00000000000E+00  0.90211668981E+03  0.90211668981E+03  0.00000000000E+00 0. -1.
         21   -1    0    0  502  503 -0.00000000000E+00 -0.00000000000E+00 -0.10708602150E+03  0.10708602150E+03  0.00000000000E+00 0.  1.
         -6    2    1    2    0  503 -0.19565586503E+02  0.23972662389E+03  0.23820336911E+03  0.37960933073E+03  0.17178688117E+03 0.  0.
        -24    2    3    3    0    0  0.28012232686E+02  0.22667598955E+03  0.21922661881E+03  0.32654168534E+03  0.80015451321E+02 0.  0.
          6    2    1    2  501    0  0.19565586503E+02 -0.23972662389E+03  0.55682729920E+03  0.62959338058E+03  0.16875875491E+03 0.  0.
         24    2    5    5    0    0  0.28495731303E+02 -0.11415196229E+03  0.16300364826E+03  0.21611073141E+03  0.79315708962E+02 0.  0.
          5    1    5    5  501    0 -0.89301448003E+01 -0.12557466160E+03  0.39382365094E+03  0.41348264917E+03  0.47000000000E+01 0. -1.
        -11    1    6    6    0    0  0.51402245708E+02 -0.98100552487E+02  0.10953806163E+03  0.15577065259E+03  0.00000000000E+00 0.  1.
         12    1    6    6    0    0 -0.22906514405E+02 -0.16051409805E+02  0.53465586629E+02  0.60340078825E+02  0.00000000000E+00 0. -1.
         -5    1    3    3    0  503 -0.47577819189E+02  0.13050634342E+02  0.18976750306E+02  0.53067645394E+02  0.47000000000E+01 0.  1.
         11    1    4    4    0    0  0.84594262772E+01 -0.28365621400E+01  0.20358933570E+02  0.22228228760E+02  0.00000000000E+00 0. -1.
        -12    1    4    4    0    0  0.19552806408E+02  0.22951255169E+03  0.19886768524E+03  0.30431345658E+03  0.00000000000E+00 0.  1.
</event>
<event>
12    1  0.8500177E-002  0.1753590E+03  0.7818608E-02  0.1173559E+00
         21   -1    0    0  501  502  0.00000000000E+00  0.00000000000E+00  0.25145111410E+03  0.25145111410E+03  0.00000000000E+00 0. -1.
         21   -1    0    0  502  503 -0.00000000000E+00 -0.00000000000E+00 -0.53439120503E+03  0.53439120503E+03  0.00000000000E+00 0. -1.
         -6    2    1    2    0  503  0.45010468262E+00  0.31174833075E+02 -0.48828724222E+03  0.51882098286E+03  0.17256508491E+03 0.  0.
        -24    2    3    3    0    0  0.12948224507E+02  0.85941962172E+02 -0.31053061268E+03  0.33234001661E+03  0.80417335494E+02 0.  0.
          6    2    1    2  501    0 -0.45010468262E+00 -0.31174833075E+02  0.20534715129E+03  0.26702133628E+03  0.16781200396E+03 0.  0.
         24    2    5    5    0    0 -0.55498991723E+02 -0.41025623238E+01  0.95637451886E+02  0.14123741063E+03  0.87775365894E+02 0.  0.
          5    1    5    5  501    0  0.55048887040E+02 -0.27072270751E+02  0.10970969941E+03  0.12578392565E+03  0.47000000000E+01 0. -1.
        -11    1    6    6    0    0 -0.18279116257E+02 -0.18443553647E+01 -0.15483883596E+02  0.24026618344E+02  0.00000000000E+00 0.  1.
         12    1    6    6    0    0 -0.37219875466E+02 -0.22582069591E+01  0.11112133548E+03  0.11721079228E+03  0.00000000000E+00 0. -1.
         -5    1    3    3    0  503 -0.12498119825E+02 -0.54767129098E+02 -0.17775662954E+03  0.18648096625E+03  0.47000000000E+01 0.  1.
         11    1    4    4    0    0 -0.94471582313E+01  0.65866900640E+02 -0.28567608773E+03  0.29332324234E+03  0.00000000000E+00 0. -1.
        -12    1    4    4    0    0  0.22395382739E+02  0.20075061532E+02 -0.24854524952E+02  0.39016774266E+02  0.00000000000E+00 0.  1.
</event>
<event>
12    1  0.8500177E-002  0.2772138E+03  0.7818608E-02  0.1098401E+00
         21   -1    0    0  501  502  0.00000000000E+00  0.00000000000E+00  0.39323592454E+03  0.39323592454E+03  0.00000000000E+00 0. -1.
         21   -1    0    0  502  503 -0.00000000000E+00 -0.00000000000E+00 -0.23710976344E+03  0.23710976344E+03  0.00000000000E+00 0. -1.
         -6    2    1    2    0  503 -0.18218482531E+03 -0.96642859610E+02 -0.64038433742E+02  0.27634013903E+03  0.17242911169E+03 0.  0.
        -24    2    3    3    0    0 -0.10089494326E+03  0.12369588437E+02  0.48076445978E+00  0.12575270367E+03  0.74031851598E+02 0.  0.
          6    2    1    2  501    0  0.18218482531E+03  0.96642859610E+02  0.22016459484E+03  0.35400554896E+03  0.18524666525E+03 0.  0.
         24    2    5    5    0    0  0.84269357547E+02  0.94374709726E+02  0.20777286378E+03  0.25517120103E+03  0.77038097445E+02 0.  0.
          5    1    5    5  501    0  0.97915467761E+02  0.22681498841E+01  0.12391731065E+02  0.98834347924E+02  0.47000000000E+01 0. -1.
        -11    1    6    6    0    0  0.89506831017E+02  0.97588177041E+02  0.16314318155E+03  0.21012049587E+03  0.00000000000E+00 0.  1.
         12    1    6    6    0    0 -0.52374734692E+01 -0.32134673143E+01  0.44629682225E+02  0.45050705167E+02  0.00000000000E+00 0. -1.
         -5    1    3    3    0  503 -0.81289882045E+02 -0.10901244805E+03 -0.64519198202E+02  0.15058743536E+03  0.47000000000E+01 0.  1.
         11    1    4    4    0    0 -0.56249049068E+02  0.43353835156E+02 -0.46324272716E+01  0.71168602109E+02  0.00000000000E+00 0. -1.
        -12    1    4    4    0    0 -0.44645894196E+02 -0.30984246719E+02  0.51131917314E+01  0.54584101559E+02  0.00000000000E+00 0.  1.
</event>
<event>
12    1  0.8500177E-002  0.1936844E+03  0.7818608E-02  0.1155606E+00
         21   -1    0    0  501  502  0.00000000000E+00  0.00000000000E+00  0.83174671549E+03  0.83174671549E+03  0.00000000000E+00 0. -1.
         21   -1    0    0  502  503 -0.00000000000E+00 -0.00000000000E+00 -0.94875456125E+02  0.94875456125E+02  0.00000000000E+00 0. -1.
         -6    2    1    2    0  503 -0.26191640974E+01 -0.85916375461E+02  0.30486473861E+02  0.19416527499E+03  0.17141250051E+03 0.  0.
        -24    2    3    3    0    0  0.49783359867E+02 -0.51077392175E+02 -0.26089667474E+02  0.10941429245E+03  0.78762514761E+02 0.  0.
          6    2    1    2  501    0  0.26191640974E+01  0.85916375461E+02  0.70638478550E+03  0.73245689662E+03  0.17356600078E+03 0.  0.
         24    2    5    5    0    0 -0.15812175886E+02  0.11785985557E+03  0.40929628966E+03  0.43305121101E+03  0.76608930066E+02 0.  0.
          5    1    5    5  501    0  0.18431339984E+02 -0.31943480107E+02  0.29708849584E+03  0.29940568561E+03  0.47000000000E+01 0. -1.
        -11    1    6    6    0    0  0.11664216319E+02  0.10127392859E+03  0.24022591088E+03  0.26096158877E+03  0.00000000000E+00 0.  1.
         12    1    6    6    0    0 -0.27476392206E+02  0.16585926982E+02  0.16907037879E+03  0.17208962225E+03  0.00000000000E+00 0. -1.
         -5    1    3    3    0  503 -0.52402523964E+02 -0.34838983285E+02  0.56576141335E+02  0.84750982546E+02  0.47000000000E+01 0.  1.
         11    1    4    4    0    0  0.23904302290E+02  0.19474027325E+02 -0.40272257172E+01  0.31094564722E+02  0.00000000000E+00 0. -1.
        -12    1    4    4    0    0  0.25879057577E+02 -0.70551419500E+02 -0.22062441757E+02  0.78319727724E+02  0.00000000000E+00 0.  1.
</event>
<event>
12    1  0.8500177E-002  0.1886765E+03  0.7818608E-02  0.1159880E+00
         21   -1    0    0  503  502  0.00000000000E+00  0.00000000000E+00  0.31040072164E+02  0.31040072164E+02  0.00000000000E+00 0.  1.
         21   -1    0    0  501  503 -0.00000000000E+00 -0.00000000000E+00 -0.23755476513E+04  0.23755476513E+04  0.00000000000E+00 0. -1.
          6    2    1    2  501    0 -0.57900183755E+02  0.47473494889E+02 -0.20411327519E+04  0.20498345662E+04  0.17318393058E+03 0.  0.
         24    2    3    3    0    0  0.12408525433E+02  0.74439373803E+02 -0.14020795639E+04  0.14063428877E+04  0.79233971982E+02 0.  0.
         -6    2    1    2    0  502  0.57900183755E+02 -0.47473494889E+02 -0.30337482721E+03  0.35675315726E+03  0.17213473048E+03 0.  0.
        -24    2    5    5    0    0  0.88822742798E+02 -0.18816278795E+02 -0.13224406650E+03  0.18044301021E+03  0.82629624373E+02 0.  0.
          5    1    3    3  501    0 -0.70308709188E+02 -0.26965878914E+02 -0.63905318805E+03  0.64349167856E+03  0.47000000000E+01 0. -1.
        -13    1    4    4    0    0  0.37247861628E+02  0.75038966054E+01 -0.50285937636E+03  0.50429283561E+03  0.00000000000E+00 0.  1.
         14    1    4    4    0    0 -0.24839336195E+02  0.66935477197E+02 -0.89922018753E+03  0.90205005205E+03  0.00000000000E+00 0. -1.
         -5    1    5    5    0  502 -0.30922559043E+02 -0.28657216094E+02 -0.17113076071E+03  0.17631014705E+03  0.47000000000E+01 0.  1.
         13    1    6    6    0    0 -0.14075507228E+02  0.28097290477E+00 -0.34605468431E+01  0.14497387142E+02  0.00000000000E+00 0. -1.
        -14    1    6    6    0    0  0.10289825003E+03 -0.19097251699E+02 -0.12878351966E+03  0.16594562307E+03  0.00000000000E+00 0.  1.
</event>
<event>
12    1  0.8500177E-002  0.2408319E+03  0.7818608E-02  0.1119287E+00
         21   -1    0    0  503  502  0.00000000000E+00  0.00000000000E+00  0.44060508743E+02  0.44060508743E+02  0.00000000000E+00 0. -1.
         21   -1    0    0  501  503 -0.00000000000E+00 -0.00000000000E+00 -0.16797296131E+04  0.16797296131E+04  0.00000000000E+00 0. -1.
          6    2    1    2  501    0  0.15752412360E+03 -0.60878293748E+02 -0.12191802655E+04  0.12426841608E+04  0.17129911734E+03 0.  0.
         24    2    3    3    0    0  0.16012876862E+03 -0.63280279817E+02 -0.12215636216E+04  0.12363340349E+04  0.81599925735E+02 0.  0.
         -6    2    1    2    0  502 -0.15752412360E+03  0.60878293748E+02 -0.41648883887E+03  0.48110596104E+03  0.17169734033E+03 0.  0.
        -24    2    5    5    0    0 -0.15148364049E+03  0.47493241823E+01 -0.25810064901E+03  0.31289223583E+03  0.91190771497E+02 0.  0.
          5    1    3    3  501    0 -0.26046450232E+01  0.24019860684E+01  0.23833561077E+01  0.63501259126E+01  0.47000000000E+01 0. -1.
        -11    1    4    4    0    0  0.92177717075E+02 -0.13789569099E+02 -0.41164709025E+03  0.42206659504E+03  0.00000000000E+00 0.  1.
         12    1    4    4    0    0  0.67951051544E+02 -0.49490710718E+02 -0.80991653134E+03  0.81426743984E+03  0.00000000000E+00 0. -1.
         -5    1    5    5    0  502 -0.60404831033E+01  0.56128969566E+02 -0.15838818986E+03  0.16821372520E+03  0.47000000000E+01 0.  1.
         11    1    6    6    0    0 -0.91983502709E+02 -0.21199355917E+02 -0.81396649600E+02  0.12464265734E+03  0.00000000000E+00 0. -1.
        -12    1    6    6    0    0 -0.59500137784E+02  0.25948680100E+02 -0.17670399941E+03  0.18824957850E+03  0.00000000000E+00 0.  1.
</event>
<event>
12    1  0.8500177E-002  0.4666292E+03  0.7818608E-02  0.1022927E+00
         21   -1    0    0  503  502  0.00000000000E+00  0.00000000000E+00  0.16365780561E+03  0.16365780561E+03  0.00000000000E+00 0. -1.
         21   -1    0    0  501  503 -0.00000000000E+00 -0.00000000000E+00 -0.18913268928E+04  0.18913268928E+04  0.00000000000E+00 0.  1.
          6    2    1    2  501    0  0.22588833287E+03  0.36925951568E+03 -0.30376033734E+03  0.55678826184E+03  0.17425469044E+03 0.  0.
         24    2    3    3    0    0  0.22799448363E+03  0.30079319427E+03 -0.29858402324E+03  0.48793365222E+03  0.80428848987E+02 0.  0.
         -6    2    1    2    0  502 -0.22588833287E+03 -0.36925951568E+03 -0.14239087498E+04  0.14981964366E+04  0.17233196394E+03 0.  0.
        -24    2    5    5    0    0 -0.73892945476E+02 -0.75533833142E+02 -0.44432258289E+03  0.46427742481E+03  0.83459224667E+02 0.  0.
          5    1    3    3  501    0 -0.21061507615E+01  0.68466321411E+02 -0.51763140963E+01  0.68854609622E+02  0.47000000000E+01 0. -1.
        -13    1    4    4    0    0  0.22972222442E+02  0.13279802799E+02 -0.48289500282E+02  0.55099473716E+02  0.00000000000E+00 0.  1.
         14    1    4    4    0    0  0.20502226118E+03  0.28751339147E+03 -0.25029452296E+03  0.43283417851E+03  0.00000000000E+00 0. -1.
         -5    1    5    5    0  502 -0.15199538739E+03 -0.29372568254E+03 -0.97958616695E+03  0.10339190118E+04  0.47000000000E+01 0.  1.
         13    1    6    6    0    0 -0.14694492827E+02 -0.33163919604E+02 -0.30436396604E+03  0.30651785838E+03  0.00000000000E+00 0. -1.
        -14    1    6    6    0    0 -0.59198452650E+02 -0.42369913538E+02 -0.13995861685E+03  0.15775956643E+03  0.00000000000E+00 0.  1.
</event>
<event>
12    1  0.8500177E-002  0.2226049E+03  0.7818608E-02  0.1133084E+00
         21   -1    0    0  501  502  0.00000000000E+00  0.00000000000E+00  0.20104703811E+03  0.20104703811E+03  0.00000000000E+00 0. -1.
         21   -1    0    0  502  503 -0.00000000000E+00 -0.00000000000E+00 -0.64623643465E+03  0.64623643465E+03  0.00000000000E+00 0. -1.
         -6    2    1    2    0  503  0.11263668149E+03  0.82402239313E+02 -0.55968450069E+03  0.60232853713E+03  0.17342368717E+03 0.  0.
        -24    2    3    3    0    0  0.35728144302E+02  0.10534229740E+03 -0.41484383852E+03  0.43667203477E+03  0.78826110376E+02 0.  0.
          6    2    1    2  501    0 -0.11263668149E+03 -0.82402239313E+02  0.11449510415E+03  0.24495493562E+03  0.16557971057E+03 0.  0.
         24    2    5    5    0    0 -0.92965700029E+02 -0.63455035889E+02  0.15157126440E+03  0.19866589062E+03  0.61847594469E+02 0.  0.
          5    1    5    5  501    0 -0.19670981457E+02 -0.18947203424E+02 -0.37076160247E+02  0.46289045007E+02  0.47000000000E+01 0. -1.
        -11    1    6    6    0    0 -0.20961058555E+02  0.11473567566E+02  0.21189774832E+02  0.31937678154E+02  0.00000000000E+00 0.  1.
         12    1    6    6    0    0 -0.72004641474E+02 -0.74928603455E+02  0.13038148957E+03  0.16672821246E+03  0.00000000000E+00 0. -1.
         -5    1    3    3    0  503  0.76908537183E+02 -0.22940058083E+02 -0.14484066217E+03  0.16565650236E+03  0.47000000000E+01 0.  1.
         11    1    4    4    0    0 -0.78447024626E+01 -0.95695744754E+01 -0.56530891654E+02  0.57869316771E+02  0.00000000000E+00 0. -1.
        -12    1    4    4    0    0  0.43572846765E+02  0.11491187187E+03 -0.35831294687E+03  0.37880271800E+03  0.00000000000E+00 0.  1.
</event>
<event>
12    1  0.8500177E-002  0.2180445E+03  0.7818608E-02  0.1136309E+00
         21   -1    0    0  503  502  0.00000000000E+00  0.00000000000E+00  0.10296501167E+03  0.10296501167E+03  0.00000000000E+00 0.  1.
         21   -1    0    0  501  503 -0.00000000000E+00 -0.00000000000E+00 -0.13086938088E+04  0.13086938088E+04  0.00000000000E+00 0.  1.
          6    2    1    2  501    0  0.16990338501E+02 -0.13268700817E+03 -0.11717824088E+04  0.11909876329E+04  0.16578001805E+03 0.  0.
         24    2    3    3    0    0  0.51416264389E+02 -0.43677619597E+02 -0.79635794938E+03  0.80359451168E+03  0.83825944501E+02 0.  0.
         -6    2    1    2    0  502 -0.16990338501E+02  0.13268700817E+03 -0.33946388321E+02  0.22067118757E+03  0.17218856525E+03 0.  0.
        -24    2    5    5    0    0  0.93079762132E+01  0.48645274111E+02 -0.73320533915E+02  0.12409464920E+03  0.87009080865E+02 0.  0.
          5    1    3    3  501    0 -0.34425925887E+02 -0.89009388576E+02 -0.37542445947E+03  0.38739312125E+03  0.47000000000E+01 0. -1.
        -11    1    4    4    0    0  0.64644507950E+02 -0.51098205349E+02 -0.75605311009E+03  0.76053023890E+03  0.00000000000E+00 0.  1.
         12    1    4    4    0    0 -0.13228243561E+02  0.74205857519E+01 -0.40304839286E+02  0.43064272785E+02  0.00000000000E+00 0. -1.
         -5    1    5    5    0  502 -0.26298314715E+02  0.84041734062E+02  0.39374145594E+02  0.96576538364E+02  0.47000000000E+01 0.  1.
         11    1    6    6    0    0  0.20001982728E+02  0.71817881473E+02 -0.52976539931E+02  0.91457100300E+02  0.00000000000E+00 0. -1.
        -12    1    6    6    0    0 -0.10694006515E+02 -0.23172607361E+02 -0.20343993985E+02  0.32637548905E+02  0.00000000000E+00 0.  1.
</event>
<event>
12    1  0.8500177E-002  0.1944734E+03  0.7818608E-02  0.1154971E+00
         21   -1    0    0  501  502  0.00000000000E+00  0.00000000000E+00  0.21005717147E+03  0.21005717147E+03  0.00000000000E+00 0.  1.
         21   -1    0    0  502  503 -0.00000000000E+00 -0.00000000000E+00 -0.19165639084E+03  0.19165639084E+03  0.00000000000E+00 0.  1.
         -6    2    1    2    0  503  0.45934632522E+02  0.79210898388E+02  0.62734226389E+02  0.20225093746E+03  0.16907247457E+03 0.  0.
        -24    2    3    3    0    0  0.54673377257E+02  0.91631897567E+02  0.97142724218E+02  0.16434735448E+03  0.78662324046E+02 0.  0.
          6    2    1    2  501    0 -0.45934632522E+02 -0.79210898388E+02 -0.44333445766E+02  0.19946262484E+03  0.17156785074E+03 0.  0.
         24    2    5    5    0    0 -0.15694477523E+02 -0.33708906544E+02 -0.90414337494E+02  0.12783555720E+03  0.82368502815E+02 0.  0.
          5    1    5    5  501    0 -0.30240155000E+02 -0.45501991844E+02  0.46080891728E+02  0.71627067640E+02  0.47000000000E+01 0. -1.
        -11    1    6    6    0    0 -0.39053570895E+02 -0.38208594625E+02 -0.28742911692E+02  0.61735185068E+02  0.00000000000E+00 0.  1.
         12    1    6    6    0    0  0.23359093372E+02  0.44996880819E+01 -0.61671425802E+02  0.66100372135E+02  0.00000000000E+00 0. -1.
         -5    1    3    3    0  503 -0.87387447347E+01 -0.12420999179E+02 -0.34408497829E+02  0.37903582983E+02  0.47000000000E+01 0.  1.
         11    1    4    4    0    0 -0.10128496007E+02  0.59269005787E+02  0.44574279175E+02  0.74848298860E+02  0.00000000000E+00 0. -1.
        -12    1    4    4    0    0  0.64801873264E+02  0.32362891780E+02  0.52568445043E+02  0.89499055622E+02  0.00000000000E+00 0.  1.
</event>
<event>
12    1  0.8500177E-002  0.2068282E+03  0.7818608E-02  0.1147100E+00
         21   -1    0    0  501  502  0.00000000000E+00  0.00000000000E+00  0.16318627547E+03  0.16318627547E+03  0.00000000000E+00 0. -1.
         21   -1    0    0  502  503 -0.00000000000E+00 -0.00000000000E+00 -0.30356795976E+03  0.30356795976E+03  0.00000000000E+00 0. -1.
         -6    2    1    2    0  503 -0.24113221726E+02 -0.11880698691E+03 -0.17523605528E+03  0.27108221900E+03  0.16757489903E+03 0.  0.
        -24    2    3    3    0    0 -0.12231009431E+01 -0.14113395413E+03 -0.17712176478E+03  0.23870789283E+03  0.75425788392E+02 0.  0.
          6    2    1    2  501    0  0.24113221726E+02  0.11880698691E+03  0.34854370993E+02  0.19567201623E+03  0.14958664097E+03 0.  0.
         24    2    5    5    0    0  0.13347555080E+02  0.81593827065E+02  0.76422688321E+02  0.13865680905E+03  0.80929435715E+02 0.  0.
          5    1    5    5  501    0  0.10765666645E+02  0.37213159842E+02 -0.41568317327E+02  0.57015207175E+02  0.47000000000E+01 0. -1.
        -11    1    6    6    0    0  0.88719964730E+01  0.24166040291E+02 -0.15593958919E+02  0.30097863371E+02  0.00000000000E+00 0.  1.
         12    1    6    6    0    0  0.44755586073E+01  0.57427786774E+02  0.92016647239E+02  0.10855894568E+03  0.00000000000E+00 0. -1.
         -5    1    3    3    0  503 -0.22890120783E+02  0.22326967219E+02  0.18857095008E+01  0.32374326170E+02  0.47000000000E+01 0.  1.
         13    1    4    4    0    0  0.43860993357E+01 -0.28245326685E+02 -0.94428071091E+02  0.98659500085E+02  0.00000000000E+00 0. -1.
        -14    1    4    4    0    0 -0.56092002787E+01 -0.11288862744E+03 -0.82693693693E+02  0.14004839274E+03  0.00000000000E+00 0.  1.
</event>
<event>
12    1  0.8500177E-002  0.3415528E+03  0.7818608E-02  0.1066289E+00
         21   -1    0    0  501  502  0.00000000000E+00  0.00000000000E+00  0.76649758731E+03  0.76649758731E+03  0.00000000000E+00 0.  1.
         21   -1    0    0  502  503 -0.00000000000E+00 -0.00000000000E+00 -0.15181649843E+03  0.15181649843E+03  0.00000000000E+00 0. -1.
         -6    2    1    2    0  503  0.28039488385E+03 -0.91975354277E+02  0.32705104217E+03  0.47288552174E+03  0.17198132400E+03 0.  0.
        -24    2    3    3    0    0  0.21456934478E+03 -0.95959842750E+02  0.32192363241E+03  0.40657369721E+03  0.80118980361E+02 0.  0.
          6    2    1    2  501    0 -0.28039488385E+03  0.91975354277E+02  0.28763004671E+03  0.44542856400E+03  0.16909998572E+03 0.  0.
         24    2    5    5    0    0 -0.17564345172E+03  0.13251429268E+01  0.20883345640E+03  0.28598792929E+03  0.85587995962E+02 0.  0.
          5    1    5    5  501    0 -0.10475143214E+03  0.90650211351E+02  0.78796590312E+02  0.15944063471E+03  0.47000000000E+01 0. -1.
        -13    1    6    6    0    0 -0.35477757508E+02  0.33500500895E+01  0.10684858940E+03  0.11263443155E+03  0.00000000000E+00 0.  1.
         14    1    6    6    0    0 -0.14016569421E+03 -0.20249071626E+01  0.10198486699E+03  0.17335349774E+03  0.00000000000E+00 0. -1.
         -5    1    3    3    0  503  0.65825539071E+02  0.39844884726E+01  0.51274097558E+01  0.66311824536E+02  0.47000000000E+01 0.  1.
         11    1    4    4    0    0  0.83571208811E+02 -0.43946400723E+02  0.68710049163E+02  0.11677544234E+03  0.00000000000E+00 0. -1.
        -12    1    4    4    0    0  0.13099813597E+03 -0.52013442027E+02  0.25321358325E+03  0.28979825486E+03  0.00000000000E+00 0.  1.
</event>
<event>
12    1  0.8500177E-002  0.2173253E+03  0.7818608E-02  0.1136037E+00
         21   -1    0    0  501  502  0.00000000000E+00  0.00000000000E+00  0.14498976170E+04  0.14498976170E+04  0.00000000000E+00 0.  1.
         21   -1    0    0  502  503 -0.00000000000E+00 -0.00000000000E+00 -0.32528271660E+02  0.32528271660E+02  0.00000000000E+00 0. -1.
         -6    2    1    2    0  503 -0.37735995928E+01 -0.13127096993E+03  0.74365110760E+03  0.77475624455E+03  0.17315877409E+03 0.  0.
        -24    2    3    3    0    0  0.26526278695E+02 -0.60495921382E+02  0.60059429486E+03  0.61223076411E+03  0.98740070611E+02 0.  0.
          6    2    1    2  501    0  0.37735995928E+01  0.13127096993E+03  0.67371823779E+03  0.70766964415E+03  0.17220265307E+03 0.  0.
         24    2    5    5    0    0 -0.22822816259E+02  0.45292161450E+02  0.52643176422E+03  0.53499909038E+03  0.80754959567E+02 0.  0.
          5    1    5    5  501    0  0.26596415852E+02  0.85978808483E+02  0.14728647356E+03  0.17267055377E+03  0.47000000000E+01 0. -1.
        -13    1    6    6    0    0  0.26999376835E+02  0.34314846590E+02  0.21126585346E+03  0.21573070222E+03  0.00000000000E+00 0.  1.
         14    1    6    6    0    0 -0.49822193094E+02  0.10977314860E+02  0.31516591077E+03  0.31926838816E+03  0.00000000000E+00 0. -1.
         -5    1    3    3    0  503 -0.30299878288E+02 -0.70775048551E+02  0.14305681274E+03  0.16252548044E+03  0.47000000000E+01 0.  1.
         13    1    4    4    0    0  0.98402227830E+01  0.15577501610E+02  0.23291116667E+02  0.29697889764E+02  0.00000000000E+00 0. -1.
        -14    1    4    4    0    0  0.16686055912E+02 -0.76073422992E+02  0.57730317819E+03  0.58253287435E+03  0.00000000000E+00 0.  1.
</event>
<event>
12    1  0.8500177E-002  0.2261487E+03  0.7818608E-02  0.1129648E+00
         21   -1    0    0  503  502  0.00000000000E+00  0.00000000000E+00  0.12050354902E+04  0.12050354902E+04  0.00000000000E+00 0.  1.
         21   -1    0    0  501  503 -0.00000000000E+00 -0.00000000000E+00 -0.70041617243E+02  0.70041617243E+02  0.00000000000E+00 0. -1.
          6    2    1    2  501    0  0.13611734304E+03 -0.46450463050E+02  0.16415769739E+03  0.27824907178E+03  0.17259553801E+03 0.  0.
         24    2    3    3    0    0  0.17531754558E+02  0.13251047513E+02  0.10454057220E+03  0.13263621598E+03  0.78617312820E+02 0.  0.
         -6    2    1    2    0  502 -0.13611734304E+03  0.46450463050E+02  0.97083617557E+03  0.99682803566E+03  0.17452127748E+03 0.  0.
        -24    2    5    5    0    0 -0.22438604752E+02 -0.53417487969E+01  0.21270878552E+03  0.22846320156E+03  0.80114803654E+02 0.  0.
          5    1    3    3  501    0  0.11858558848E+03 -0.59701510563E+02  0.59617125186E+02  0.14561285580E+03  0.47000000000E+01 0. -1.
        -11    1    4    4    0    0 -0.18015188607E+02 -0.14275648904E+02  0.75960712646E+02  0.79362277171E+02  0.00000000000E+00 0.  1.
         12    1    4    4    0    0  0.35546943164E+02  0.27526696417E+02  0.28579859557E+02  0.53273938810E+02  0.00000000000E+00 0. -1.
         -5    1    5    5    0  502 -0.11367873829E+03  0.51792211846E+02  0.75812739004E+03  0.76836483410E+03  0.47000000000E+01 0.  1.
         11    1    6    6    0    0 -0.24466377858E+02  0.30123241460E+02  0.58399215247E+02  0.70117627334E+02  0.00000000000E+00 0. -1.
        -12    1    6    6    0    0  0.20277731053E+01 -0.35464990257E+02  0.15430957028E+03  0.15834557423E+03  0.00000000000E+00 0.  1.
</event>
<event>
12    1  0.8500177E-002  0.2520610E+03  0.7818608E-02  0.1112082E+00
         21   -1    0    0  503  502  0.00000000000E+00  0.00000000000E+00  0.10638379624E+03  0.10638379624E+03  0.00000000000E+00 0.  1.
         21   -1    0    0  501  503 -0.00000000000E+00 -0.00000000000E+00 -0.10681096539E+04  0.10681096539E+04  0.00000000000E+00 0. -1.
          6    2    1    2  501    0  0.16102084055E+03  0.88385221531E+02 -0.87098759265E+03  0.90659764577E+03  0.17193093464E+03 0.  0.
         24    2    3    3    0    0  0.52926477018E+02 -0.19128340064E+02 -0.28704146737E+03  0.30305914279E+03  0.79277579886E+02 0.  0.
         -6    2    1    2    0  502 -0.16102084055E+03 -0.88385221531E+02 -0.90738264982E+02  0.26789580434E+03  0.17261248731E+03 0.  0.
        -24    2    5    5    0    0 -0.23007726995E+02 -0.74128745609E+02 -0.47845171155E+02  0.12259345021E+03  0.81948564379E+02 0.  0.
          5    1    3    3  501    0  0.10809436353E+03  0.10751356159E+03 -0.58394612528E+03  0.60353850298E+03  0.47000000000E+01 0. -1.
        -11    1    4    4    0    0 -0.85214097116E+01 -0.13434522796E+01 -0.16538086984E+03  0.16560571064E+03  0.00000000000E+00 0.  1.
         12    1    4    4    0    0  0.61447886729E+02 -0.17784887784E+02 -0.12166059753E+03  0.13745343214E+03  0.00000000000E+00 0. -1.
         -5    1    5    5    0  502 -0.13801311356E+03 -0.14256475923E+02 -0.42893093827E+02  0.14530235414E+03  0.47000000000E+01 0.  1.
         13    1    6    6    0    0 -0.29779264120E+02 -0.54319639437E+02  0.84604149225E+01  0.62522047478E+02  0.00000000000E+00 0. -1.
        -14    1    6    6    0    0  0.67715371253E+01 -0.19809106171E+02 -0.56305586077E+02  0.60071402729E+02  0.00000000000E+00 0.  1.
</event>
<event>
12    1  0.8500177E-002  0.2016681E+03  0.7818608E-02  0.1148486E+00
         21   -1    0    0  503  502  0.00000000000E+00  0.00000000000E+00  0.25819133320E+02  0.25819133320E+02  0.00000000000E+00 0. -1.
         21   -1    0    0  501  503 -0.00000000000E+00 -0.00000000000E+00 -0.18935533299E+04  0.18935533299E+04  0.00000000000E+00 0.  1.
          6    2    1    2  501    0 -0.26853893981E+02 -0.10067130789E+03 -0.13293921250E+04  0.13444966438E+04  0.17184865233E+03 0.  0.
         24    2    3    3    0    0 -0.26168031776E+02 -0.70898536051E+02 -0.12939880464E+04  0.12979947392E+04  0.68366003782E+02 0.  0.
         -6    2    1    2    0  502  0.26853893981E+02  0.10067130789E+03 -0.53834207159E+03  0.57487581944E+03  0.17266782524E+03 0.  0.
        -24    2    5    5    0    0  0.19494374465E+02  0.90224478437E+02 -0.18463646293E+03  0.22090824130E+03  0.78672361638E+02 0.  0.
          5    1    3    3  501    0 -0.68586220438E+00 -0.29772771843E+02 -0.35404078653E+02  0.46501904643E+02  0.47000000000E+01 0. -1.
        -13    1    4    4    0    0  0.18258549374E+02 -0.17544616583E+02 -0.60202938439E+03  0.60256167142E+03  0.00000000000E+00 0.  1.
         14    1    4    4    0    0 -0.44426581150E+02 -0.53353919468E+02 -0.69195866197E+03  0.69543306775E+03  0.00000000000E+00 0. -1.
         -5    1    5    5    0  502  0.73595195154E+01  0.10446829457E+02 -0.35370560867E+03  0.35396757814E+03  0.47000000000E+01 0.  1.
         13    1    6    6    0    0 -0.15455011519E+02  0.13593522275E+02 -0.31390020904E+01  0.20820532247E+02  0.00000000000E+00 0. -1.
        -14    1    6    6    0    0  0.34949385985E+02  0.76630956162E+02 -0.18149746084E+03  0.20008770905E+03  0.00000000000E+00 0.  1.
</event>
<event>
12    1  0.8500177E-002  0.1845517E+03  0.7818608E-02  0.1164037E+00
         21   -1    0    0  503  502  0.00000000000E+00  0.00000000000E+00  0.11116163052E+03  0.11116163052E+03  0.00000000000E+00 0. -1.
         21   -1    0    0  501  503 -0.00000000000E+00 -0.00000000000E+00 -0.86138634628E+03  0.86138634628E+03  0.00000000000E+00 0. -1.
          6    2    1    2  501    0  0.36038477525E+02  0.48672068976E+02 -0.76769463993E+03  0.78956594053E+03  0.17433178741E+03 0.  0.
         24    2    3    3    0    0  0.49642777027E+02  0.75356896347E+02 -0.73582341429E+03  0.74557705556E+03  0.79410211085E+02 0.  0.
         -6    2    1    2    0  502 -0.36038477525E+02 -0.48672068976E+02  0.17469924173E+02  0.18298203627E+03  0.17178325060E+03 0.  0.
        -24    2    5    5    0    0 -0.53078266113E+02  0.31504772480E+02  0.11282640480E+02  0.10064703290E+03  0.78693546316E+02 0.  0.
          5    1    3    3  501    0 -0.13604299502E+02 -0.26684827372E+02 -0.31871225645E+02  0.43988884970E+02  0.47000000000E+01 0. -1.
        -13    1    4    4    0    0 -0.85734705660E+01  0.23965166907E+02 -0.40347525145E+03  0.40427727138E+03  0.00000000000E+00 0.  1.
         14    1    4    4    0    0  0.58216247593E+02  0.51391729441E+02 -0.33234816283E+03  0.34129978417E+03  0.00000000000E+00 0. -1.
         -5    1    5    5    0  502  0.17039788588E+02 -0.80176841456E+02  0.61872836930E+01  0.82335003373E+02  0.47000000000E+01 0.  1.
         11    1    6    6    0    0 -0.27314608403E+02  0.48082857617E+02  0.31784667187E+02  0.63783337143E+02  0.00000000000E+00 0. -1.
        -12    1    6    6    0    0 -0.25763657710E+02 -0.16578085137E+02 -0.20502026707E+02  0.36863695752E+02  0.00000000000E+00 0.  1.
</event>
<event>
12    1  0.8500177E-002  0.2201604E+03  0.7818608E-02  0.1133924E+00
         21   -1    0    0  503  502  0.00000000000E+00  0.00000000000E+00  0.39844099837E+02  0.39844099837E+02  0.00000000000E+00 0.  1.
         21   -1    0    0  501  503 -0.00000000000E+00 -0.00000000000E+00 -0.12133952590E+04  0.12133952590E+04  0.00000000000E+00 0.  1.
          6    2    1    2  501    0 -0.11116413817E+03 -0.80752581483E+02 -0.61090718486E+03  0.64936752032E+03  0.17202366963E+03 0.  0.
         24    2    3    3    0    0 -0.48262250565E+02 -0.11515077899E+03 -0.43759746061E+03  0.46175559647E+03  0.78343771940E+02 0.  0.
         -6    2    1    2    0  502  0.11116413817E+03  0.80752581483E+02 -0.56264397428E+03  0.60387183849E+03  0.17092252775E+03 0.  0.
        -24    2    5    5    0    0 -0.44099784825E+00 -0.10387839489E+02 -0.24650342679E+03  0.25641073493E+03  0.69817074405E+02 0.  0.
          5    1    3    3  501    0 -0.62901887600E+02  0.34398197511E+02 -0.17330972424E+03  0.18761192386E+03  0.47000000000E+01 0. -1.
        -13    1    4    4    0    0 -0.38137327037E+02 -0.74495321003E+02 -0.38756248290E+03  0.39649550656E+03  0.00000000000E+00 0.  1.
         14    1    4    4    0    0 -0.10124923528E+02 -0.40655457991E+02 -0.50034977710E+02  0.65260089912E+02  0.00000000000E+00 0. -1.
         -5    1    5    5    0  502  0.11160513601E+03  0.91140420972E+02 -0.31614054749E+03  0.34746110356E+03  0.47000000000E+01 0.  1.
         11    1    6    6    0    0  0.29816388174E+02  0.11645749833E+02 -0.13689438563E+03  0.14058703109E+03  0.00000000000E+00 0. -1.
        -12    1    6    6    0    0 -0.30257386022E+02 -0.22033589322E+02 -0.10960904116E+03  0.11582370384E+03  0.00000000000E+00 0.  1.
</event>
<event>
12    1  0.8500177E-002  0.2049215E+03  0.7818608E-02  0.1145707E+00
         21   -1    0    0  503  502  0.00000000000E+00  0.00000000000E+00  0.80845501543E+03  0.80845501543E+03  0.00000000000E+00 0. -1.
         21   -1    0    0  501  503 -0.00000000000E+00 -0.00000000000E+00 -0.84876993782E+02  0.84876993782E+02  0.00000000000E+00 0. -1.
          6    2    1    2  501    0  0.10940979879E+03  0.13711478006E+02  0.83118172218E+02  0.22088747700E+03  0.17240689732E+03 0.  0.
         24    2    3    3    0    0  0.74915584567E+02 -0.15988781064E+01  0.12336590206E+03  0.16551394924E+03  0.80998891224E+02 0.  0.
         -6    2    1    2    0  502 -0.10940979879E+03 -0.13711478006E+02  0.64045984943E+03  0.67244453221E+03  0.17272614588E+03 0.  0.
        -24    2    5    5    0    0 -0.53224249406E+01 -0.44119286785E+02  0.28286738627E+03  0.29874241028E+03  0.85195245227E+02 0.  0.
          5    1    3    3  501    0  0.34494214221E+02  0.15310356113E+02 -0.40247729844E+02  0.55373527760E+02  0.47000000000E+01 0. -1.
        -13    1    4    4    0    0  0.53655652877E+02  0.31753187227E+02  0.10451693241E+03  0.12170038269E+03  0.00000000000E+00 0.  1.
         14    1    4    4    0    0  0.21259931690E+02 -0.33352065333E+02  0.18848969648E+02  0.43813566554E+02  0.00000000000E+00 0. -1.
         -5    1    5    5    0  502 -0.10408737385E+03  0.30407808779E+02  0.35759246316E+03  0.37370212193E+03  0.47000000000E+01 0.  1.
         11    1    6    6    0    0 -0.27009447460E+02 -0.35021977407E+02  0.26636636270E+03  0.27001312622E+03  0.00000000000E+00 0. -1.
        -12    1    6    6    0    0  0.21687022519E+02 -0.90973093789E+01  0.16501023577E+02  0.28729284063E+02  0.00000000000E+00 0.  1.
</event>
<event>
12    1  0.8500177E-002  0.1871156E+03  0.7818608E-02  0.1161433E+00
         21   -1    0    0  503  502  0.00000000000E+00  0.00000000000E+00  0.33100022283E+03  0.33100022283E+03  0.00000000000E+00 0.  1.
         21   -1    0    0  501  503 -0.00000000000E+00 -0.00000000000E+00 -0.14429414979E+03  0.14429414979E+03  0.00000000000E+00 0.  1.
          6    2    1    2  501    0 -0.41431167270E+02  0.57056849802E+02 -0.30487920845E+02  0.18958314527E+03  0.17332117564E+03 0.  0.
         24    2    3    3    0    0  0.33635924577E+02  0.52944330982E+02  0.13455864867E+02  0.10237576375E+03  0.79782573906E+02 0.  0.
         -6    2    1    2    0  502  0.41431167270E+02 -0.57056849802E+02  0.21719399388E+03  0.28571122735E+03  0.17171385711E+03 0.  0.
        -24    2    5    5    0    0  0.78436145249E+02 -0.20558378782E+02  0.80097444871E+02  0.13901746288E+03  0.79595090877E+02 0.  0.
          5    1    3    3  501    0 -0.75067091847E+02  0.41125188202E+01 -0.43943785712E+02  0.87207381523E+02  0.47000000000E+01 0. -1.
        -13    1    4    4    0    0  0.26643832425E+01  0.13931278364E+02 -0.31961032484E+02  0.34966942280E+02  0.00000000000E+00 0.  1.
         14    1    4    4    0    0  0.30971541334E+02  0.39013052617E+02  0.45416897351E+02  0.67408821471E+02  0.00000000000E+00 0. -1.
         -5    1    5    5    0  502 -0.37004977979E+02 -0.36498471020E+02  0.13709654901E+03  0.14669376446E+03  0.47000000000E+01 0.  1.
         13    1    6    6    0    0  0.14027955600E+02 -0.22428078411E+01 -0.16314577138E+02  0.21632825810E+02  0.00000000000E+00 0. -1.
        -14    1    6    6    0    0  0.64408189649E+02 -0.18315570940E+02  0.96412022009E+02  0.11738463707E+03  0.00000000000E+00 0.  1.
</event>
<event>
12    1  0.8500177E-002  0.2043251E+03  0.7818608E-02  0.1146181E+00
         21   -1    0    0  503  502  0.00000000000E+00  0.00000000000E+00  0.13330425744E+03  0.13330425744E+03  0.00000000000E+00 0.  1.
         21   -1    0    0  501  503 -0.00000000000E+00 -0.00000000000E+00 -0.35430529649E+03  0.35430529649E+03  0.00000000000E+00 0.  1.
          6    2    1    2  501    0 -0.10037655669E+03  0.50685007079E+02 -0.19381509689E+03  0.28148382571E+03  0.17036557539E+03 0.  0.
         24    2    3    3    0    0 -0.51458970462E+02  0.50314223194E+02 -0.36594117181E+02  0.11676104591E+03  0.84347292393E+02 0.  0.
         -6    2    1    2    0  502  0.10037655669E+03 -0.50685007079E+02 -0.27185942165E+02  0.20612572822E+03  0.17059987488E+03 0.  0.
        -24    2    5    5    0    0  0.96243534465E+02 -0.97307212749E+00 -0.67235122665E+02  0.14198225460E+03  0.79841305767E+02 0.  0.
          5    1    3    3  501    0 -0.48917586232E+02  0.37078388467E+00 -0.15722097971E+03  0.16472277980E+03  0.47000000000E+01 0. -1.
        -13    1    4    4    0    0 -0.48899898792E+02  0.72647046188E+02 -0.34722587896E+02  0.94204307396E+02  0.00000000000E+00 0.  1.
         14    1    4    4    0    0 -0.25590716692E+01 -0.22332822994E+02 -0.18715292844E+01  0.22556738518E+02  0.00000000000E+00 0. -1.
         -5    1    5    5    0  502  0.41330222289E+01 -0.49711934951E+02  0.40049180500E+02  0.64143473620E+02  0.47000000000E+01 0.  1.
         11    1    6    6    0    0  0.40392478796E+02  0.36042935831E+02 -0.12737471109E+02  0.55613745934E+02  0.00000000000E+00 0. -1.
        -12    1    6    6    0    0  0.55851055669E+02 -0.37016007958E+02 -0.54497651556E+02  0.86368508669E+02  0.00000000000E+00 0.  1.
</event>
<event>
12    1  0.8500177E-002  0.2112422E+03  0.7818608E-02  0.1140662E+00
         21   -1    0    0  501  502  0.00000000000E+00  0.00000000000E+00  0.51872272460E+02  0.51872272460E+02  0.00000000000E+00 0. -1.
         21   -1    0    0  502  503 -0.00000000000E+00 -0.00000000000E+00 -0.88741933692E+03  0.88741933692E+03  0.00000000000E+00 0. -1.
         -6    2    1    2    0  503 -0.61785337414E+02 -0.10359434100E+03 -0.50193192436E+03  0.54442158304E+03  0.17294504323E+03 0.  0.
        -24    2    3    3    0    0  0.27878284561E+02 -0.84624694204E+02 -0.28470136455E+03  0.30860254496E+03  0.79007127262E+02 0.  0.
          6    2    1    2  501    0  0.61785337414E+02  0.10359434100E+03 -0.33361514009E+03  0.39487002634E+03  0.17341874349E+03 0.  0.
         24    2    5    5    0    0 -0.14753727951E+01  0.63993171776E+02 -0.81923361331E+02  0.13230382220E+03  0.81826410633E+02 0.  0.
          5    1    5    5  501    0  0.63260710209E+02  0.39601169226E+02 -0.25169177876E+03  0.26256620414E+03  0.47000000000E+01 0. -1.
        -11    1    6    6    0    0 -0.36800835322E+02  0.56611157328E+02 -0.57938701393E+02  0.88972005336E+02  0.00000000000E+00 0.  1.
         12    1    6    6    0    0  0.35325462527E+02  0.73820144480E+01 -0.23984659938E+02  0.43331816860E+02  0.00000000000E+00 0. -1.
         -5    1    3    3    0  503 -0.89663621976E+02 -0.18969646798E+02 -0.21723055981E+03  0.23581903808E+03  0.47000000000E+01 0.  1.
         13    1    4    4    0    0 -0.35343770848E+01 -0.86842106619E+02 -0.22277636367E+03  0.23913040692E+03  0.00000000000E+00 0. -1.
        -14    1    4    4    0    0  0.31412661646E+02  0.22174124153E+01 -0.61925000879E+02  0.69472138037E+02  0.00000000000E+00 0.  1.
</event>
<event>
12    1  0.8500177E-002  0.2410944E+03  0.7818608E-02  0.1119254E+00
         21   -1    0    0  501  502  0.00000000000E+00  0.00000000000E+00  0.21256512804E+04  0.21256512804E+04  0.00000000000E+00 0.  1.
         21   -1    0    0  502  503 -0.00000000000E+00 -0.00000000000E+00 -0.27240677623E+02  0.27240677623E+02  0.00000000000E+00 0. -1.
         -6    2    1    2    0  503  0.11180152294E+03 -0.12681336426E+03  0.10786052316E+04  0.11049752239E+04  0.17029324693E+03 0.  0.
        -24    2    3    3    0    0  0.12256503389E+03 -0.15323262706E+03  0.94187802969E+03  0.96522455895E+03  0.77600263342E+02 0.  0.
          6    2    1    2  501    0 -0.11180152294E+03  0.12681336426E+03  0.10198053712E+04  0.10479167341E+04  0.17188739526E+03 0.  0.
         24    2    5    5    0    0 -0.19468540204E+02  0.11616267879E+03  0.72625176542E+03  0.73996442244E+03  0.78948893033E+02 0.  0.
          5    1    5    5  501    0 -0.92332982735E+02  0.10650685460E+02  0.29355360577E+03  0.30795231167E+03  0.47000000000E+01 0. -1.
        -13    1    6    6    0    0 -0.47340776160E+02  0.45447762955E+02  0.35408429189E+03  0.36011433463E+03  0.00000000000E+00 0.  1.
         14    1    6    6    0    0  0.27872235956E+02  0.70714915840E+02  0.37216747353E+03  0.37985008781E+03  0.00000000000E+00 0. -1.
         -5    1    3    3    0  503 -0.10763510947E+02  0.26419262807E+02  0.13672720187E+03  0.13975066493E+03  0.47000000000E+01 0.  1.
         11    1    4    4    0    0  0.42277159189E+02 -0.25780443843E+02  0.12274960777E+03  0.13236108069E+03  0.00000000000E+00 0. -1.
        -12    1    4    4    0    0  0.80287874696E+02 -0.12745218322E+03  0.81912842192E+03  0.83286347827E+03  0.00000000000E+00 0.  1.
</event>
<event>
12    1  0.8500177E-002  0.2016332E+03  0.7818608E-02  0.1148449E+00
         21   -1    0    0  501  502  0.00000000000E+00  0.00000000000E+00  0.20559811148E+03  0.20559811148E+03  0.00000000000E+00 0. -1.
         21   -1    0    0  502  503 -0.00000000000E+00 -0.00000000000E+00 -0.24650772553E+03  0.24650772553E+03  0.00000000000E+00 0. -1.
         -6    2    1    2    0  503  0.10251691188E+03  0.25257877666E+02 -0.12140241171E+03  0.23536037448E+03  0.17177975055E+03 0.  0.
        -24    2    3    3    0    0  0.89855613699E+02  0.32937908585E+02 -0.10699530151E+02  0.12357258743E+03  0.77438797024E+02 0.  0.
          6    2    1    2  501    0 -0.10251691188E+03 -0.25257877666E+02  0.80492797661E+02  0.21674546254E+03  0.17132375039E+03 0.  0.
         24    2    5    5    0    0 -0.25953705629E+02  0.42180630393E+02  0.15626131753E+02  0.95751035940E+02  0.80444294228E+02 0.  0.
          5    1    5    5  501    0 -0.76563206253E+02 -0.67438508060E+02  0.64866665909E+02  0.12099442660E+03  0.47000000000E+01 0. -1.
        -11    1    6    6    0    0  0.19872139137E+02 -0.29758790254E+01 -0.14432249289E+02  0.24739595578E+02  0.00000000000E+00 0.  1.
         12    1    6    6    0    0 -0.45825844766E+02  0.45156509419E+02  0.30058381042E+02  0.71011440362E+02  0.00000000000E+00 0. -1.
         -5    1    3    3    0  503  0.12661298183E+02 -0.76800309187E+01 -0.11070288156E+03  0.11178778705E+03  0.47000000000E+01 0.  1.
         13    1    4    4    0    0  0.67131679300E+02  0.70115614962E+01 -0.39886664217E+02  0.78401341459E+02  0.00000000000E+00 0. -1.
        -14    1    4    4    0    0  0.22723934399E+02  0.25926347089E+02  0.29187134066E+02  0.45171245975E+02  0.00000000000E+00 0.  1.
</event>
<event>
12    1  0.8500177E-002  0.1894025E+03  0.7818608E-02  0.1159775E+00
         21   -1    0    0  503  502  0.00000000000E+00  0.00000000000E+00  0.22078670134E+03  0.22078670134E+03  0.00000000000E+00 0. -1.
         21   -1    0    0  501  503 -0.00000000000E+00 -0.00000000000E+00 -0.28149677938E+03  0.28149677938E+03  0.00000000000E+00 0. -1.
          6    2    1    2  501    0  0.13977188423E+02 -0.74525933437E+02 -0.19577657371E+03  0.27240005927E+03  0.17356223358E+03 0.  0.
         24    2    3    3    0    0  0.55556536717E+02 -0.64202397036E+02 -0.60557149535E+02  0.13047824882E+03  0.78415103758E+02 0.  0.
         -6    2    1    2    0  502 -0.13977188423E+02  0.74525933437E+02  0.13506649567E+03  0.22988342144E+03  0.16986451263E+03 0.  0.
        -24    2    5    5    0    0 -0.34267480064E+02  0.10905705008E+03  0.12754014909E+03  0.18886111234E+03  0.79588502694E+02 0.  0.
          5    1    3    3  501    0 -0.41579348294E+02 -0.10323536401E+02 -0.13521942418E+03  0.14192181045E+03  0.47000000000E+01 0. -1.
        -11    1    4    4    0    0  0.22787024403E+02 -0.33773113252E+00  0.14189721905E+02  0.26846056530E+02  0.00000000000E+00 0.  1.
         12    1    4    4    0    0  0.32769512314E+02 -0.63864665904E+02 -0.74746871440E+02  0.10363219229E+03  0.00000000000E+00 0. -1.
         -5    1    5    5    0  502  0.20290291641E+02 -0.34531116643E+02  0.75263465789E+01  0.41022309105E+02  0.47000000000E+01 0.  1.
         11    1    6    6    0    0 -0.58831479401E+02  0.58781351283E+02  0.80794843543E+02  0.11594911371E+03  0.00000000000E+00 0. -1.
        -12    1    6    6    0    0  0.24563999337E+02  0.50275698796E+02  0.46745305551E+02  0.72911998628E+02  0.00000000000E+00 0.  1.
</event>
<event>
12    1  0.8500177E-002  0.3287127E+03  0.7818608E-02  0.1072613E+00
         21   -1    0    0  503  502  0.00000000000E+00  0.00000000000E+00  0.65850082596E+02  0.65850082596E+02  0.00000000000E+00 0. -1.
         21   -1    0    0  501  503 -0.00000000000E+00 -0.00000000000E+00 -0.19022878591E+04  0.19022878591E+04  0.00000000000E+00 0.  1.
          6    2    1    2  501    0 -0.19597372804E+02  0.26854470471E+03 -0.13002463052E+04  0.13392076517E+04  0.17417337499E+03 0.  0.
         24    2    3    3    0    0  0.32963893860E+02  0.22866644389E+03 -0.85606136494E+03  0.89012490470E+03  0.78142975136E+02 0.  0.
         -6    2    1    2    0  502  0.19597372804E+02 -0.26854470471E+03 -0.53619147132E+03  0.62893029008E+03  0.18855158555E+03 0.  0.
        -24    2    5    5    0    0  0.59969126402E+02 -0.25983501380E+03 -0.50266930204E+03  0.57553026164E+03  0.86302516375E+02 0.  0.
          5    1    3    3  501    0 -0.52561266664E+02  0.39878260825E+02 -0.44418494028E+03  0.44908274695E+03  0.47000000000E+01 0. -1.
        -13    1    4    4    0    0  0.16039774644E+02  0.22393644190E+03 -0.81712678381E+03  0.84740839339E+03  0.00000000000E+00 0.  1.
         14    1    4    4    0    0  0.16924119215E+02  0.47300019909E+01 -0.38934581138E+02  0.42716511310E+02  0.00000000000E+00 0. -1.
         -5    1    5    5    0  502 -0.40371753598E+02 -0.87096909132E+01 -0.33522169287E+02  0.53400028446E+02  0.47000000000E+01 0.  1.
         11    1    6    6    0    0  0.11259408571E+02 -0.10909023423E+03 -0.29219945677E+03  0.31210250884E+03  0.00000000000E+00 0. -1.
        -12    1    6    6    0    0  0.48709717831E+02 -0.15074477957E+03 -0.21046984527E+03  0.26342775280E+03  0.00000000000E+00 0.  1.
</event>
<event>
12    1  0.8500177E-002  0.2122774E+03  0.7818608E-02  0.1139862E+00
         21   -1    0    0  503  502  0.00000000000E+00  0.00000000000E+00  0.11066642638E+03  0.11066642638E+03  0.00000000000E+00 0.  1.
         21   -1    0    0  501  503 -0.00000000000E+00 -0.00000000000E+00 -0.76117159113E+03  0.76117159113E+03  0.00000000000E+00 0.  1.
          6    2    1    2  501    0 -0.10762256064E+03 -0.61838151793E+02 -0.62270252327E+03  0.65774768762E+03  0.17165959194E+03 0.  0.
         24    2    3    3    0    0 -0.81629209259E+02 -0.29727843816E+02 -0.59787647695E+03  0.60932095151E+03  0.79174918720E+02 0.  0.
         -6    2    1    2    0  502  0.10762256064E+03  0.61838151793E+02 -0.27802641481E+02  0.21409032988E+03  0.17220659076E+03 0.  0.
        -24    2    5    5    0    0  0.62748446392E+02  0.84889868966E+02 -0.67405843667E+02  0.14978192128E+03  0.82142673462E+02 0.  0.
          5    1    3    3  501    0 -0.25993351380E+02 -0.32110307977E+02 -0.24826046321E+02  0.48426736110E+02  0.47000000000E+01 0. -1.
        -11    1    4    4    0    0 -0.97090931461E+02 -0.19903873304E+02 -0.49457980510E+03  0.50441252637E+03  0.00000000000E+00 0.  1.
         12    1    4    4    0    0  0.15461722201E+02 -0.98239705121E+01 -0.10329667185E+03  0.10490842514E+03  0.00000000000E+00 0. -1.
         -5    1    5    5    0  502  0.44874114248E+02 -0.23051717173E+02  0.39603202186E+02  0.64308408607E+02  0.47000000000E+01 0.  1.
         13    1    6    6    0    0  0.50227414781E+01  0.16413140064E+02 -0.57105979202E+02  0.59629790871E+02  0.00000000000E+00 0. -1.
        -14    1    6    6    0    0  0.57725704914E+02  0.68476728902E+02 -0.10299864466E+02  0.90152130407E+02  0.00000000000E+00 0.  1.
</event>
<event>
12    1  0.8500177E-002  0.1934704E+03  0.7818608E-02  0.1155757E+00
         21   -1    0    0  503  502  0.00000000000E+00  0.00000000000E+00  0.30849971939E+03  0.30849971939E+03  0.00000000000E+00 0.  1.
         21   -1    0    0  501  503 -0.00000000000E+00 -0.00000000000E+00 -0.12080309036E+03  0.12080309036E+03  0.00000000000E+00 0.  1.
          6    2    1    2  501    0 -0.66505585924E+02  0.56015495055E+02  0.10905136429E+03  0.22208784894E+03  0.17282963851E+03 0.  0.
         24    2    3    3    0    0 -0.28051937143E+02  0.82873723622E+02  0.12448863473E+03  0.17248495724E+03  0.81232229146E+02 0.  0.
         -6    2    1    2    0  502  0.66505585924E+02 -0.56015495055E+02  0.78645264744E+02  0.20721496081E+03  0.17085734890E+03 0.  0.
        -24    2    5    5    0    0 -0.10610757211E+02 -0.59427392606E+02  0.86415477690E+02  0.12949084851E+03  0.75206661297E+02 0.  0.
          5    1    3    3  501    0 -0.38453648781E+02 -0.26858228567E+02 -0.15437270437E+02  0.49602891699E+02  0.47000000000E+01 0. -1.
        -13    1    4    4    0    0 -0.14886623783E+02  0.12830372702E+02 -0.86489181095E+01  0.21471698019E+02  0.00000000000E+00 0.  1.
         14    1    4    4    0    0 -0.13165313360E+02  0.70043350920E+02  0.13313755284E+03  0.15101325922E+03  0.00000000000E+00 0. -1.
         -5    1    5    5    0  502  0.77116343135E+02  0.34118975512E+01 -0.77702129458E+01  0.77724112298E+02  0.47000000000E+01 0.  1.
         13    1    6    6    0    0 -0.26284040931E+02 -0.37163936384E+01  0.13175628493E+01  0.26578155715E+02  0.00000000000E+00 0. -1.
        -14    1    6    6    0    0  0.15673283720E+02 -0.55710998967E+02  0.85097914841E+02  0.10291269280E+03  0.00000000000E+00 0.  1.
</event>
<event>
12    1  0.8500177E-002  0.1795506E+03  0.7818608E-02  0.1168640E+00
         21   -1    0    0  503  502  0.00000000000E+00  0.00000000000E+00  0.34416098501E+03  0.34416098501E+03  0.00000000000E+00 0. -1.
         21   -1    0    0  501  503 -0.00000000000E+00 -0.00000000000E+00 -0.16906124227E+03  0.16906124227E+03  0.00000000000E+00 0. -1.
          6    2    1    2  501    0  0.41774777260E+02 -0.16584251075E+02 -0.84557060749E+02  0.19846488949E+03  0.17383396227E+03 0.  0.
         24    2    3    3    0    0 -0.23687145993E+02  0.26033396860E+02 -0.70290864404E+02  0.11892155746E+03  0.89234032593E+02 0.  0.
         -6    2    1    2    0  502 -0.41774777260E+02  0.16584251075E+02  0.25965680349E+03  0.31475733779E+03  0.17213470509E+03 0.  0.
        -24    2    5    5    0    0 -0.82099576871E+02  0.16326563904E+02  0.24586175230E+03  0.27187902971E+03  0.80394703440E+02 0.  0.
          5    1    3    3  501    0  0.65461923252E+02 -0.42617647934E+02 -0.14266196344E+02  0.79543332024E+02  0.47000000000E+01 0. -1.
        -13    1    4    4    0    0 -0.49178597810E+02 -0.50557810431E+01 -0.59374386716E+02  0.77261977728E+02  0.00000000000E+00 0.  1.
         14    1    4    4    0    0  0.25491451817E+02  0.31089177903E+02 -0.10916477688E+02  0.41659579733E+02  0.00000000000E+00 0. -1.
         -5    1    5    5    0  502  0.40324799611E+02  0.25768717075E+00  0.13795051188E+02  0.42878308078E+02  0.47000000000E+01 0.  1.
         11    1    6    6    0    0 -0.23524009545E+02  0.43669521160E+02  0.83500222352E+02  0.97122053295E+02  0.00000000000E+00 0. -1.
        -12    1    6    6    0    0 -0.58575567326E+02 -0.27342957255E+02  0.16236152995E+03  0.17475697642E+03  0.00000000000E+00 0.  1.
</event>
<event>
12    1  0.8500177E-002  0.1799413E+03  0.7818608E-02  0.1168308E+00
         21   -1    0    0  501  502  0.00000000000E+00  0.00000000000E+00  0.34933848802E+03  0.34933848802E+03  0.00000000000E+00 0.  1.
         21   -1    0    0  502  503 -0.00000000000E+00 -0.00000000000E+00 -0.29917985257E+03  0.29917985257E+03  0.00000000000E+00 0.  1.
         -6    2    1    2    0  503 -0.16819138056E+02 -0.47198687403E+02 -0.24496395408E+03  0.30286503976E+03  0.17090726729E+03 0.  0.
        -24    2    3    3    0    0 -0.63161591531E+02 -0.72848318692E+02 -0.16149569702E+03  0.20389753743E+03  0.78721543653E+02 0.  0.
          6    2    1    2  501    0  0.16819138056E+02  0.47198687403E+02  0.29512258953E+03  0.34565330084E+03  0.17282436758E+03 0.  0.
         24    2    5    5    0    0 -0.87347123364E+01 -0.21371135160E+02  0.63043354212E+02  0.10226537734E+03  0.77140924774E+02 0.  0.
          5    1    5    5  501    0  0.25553850392E+02  0.68569822563E+02  0.23207923532E+03  0.24338792349E+03  0.47000000000E+01 0. -1.
        -11    1    6    6    0    0  0.52115602329E+00 -0.24639120936E+02  0.79429081219E+02  0.83164516636E+02  0.00000000000E+00 0.  1.
         12    1    6    6    0    0 -0.92558683597E+01  0.32679857763E+01 -0.16385727007E+02  0.19100860705E+02  0.00000000000E+00 0. -1.
         -5    1    3    3    0  503  0.46342453475E+02  0.25649631288E+02 -0.83468257068E+02  0.98967502329E+02  0.47000000000E+01 0.  1.
         11    1    4    4    0    0  0.51515207539E+01 -0.52861345164E+02 -0.63570188882E+02  0.82837364112E+02  0.00000000000E+00 0. -1.
        -12    1    4    4    0    0 -0.68313112284E+02 -0.19986973528E+02 -0.97925508134E+02  0.12106017332E+03  0.00000000000E+00 0.  1.
</event>
<event>
12    1  0.8500177E-002  0.2257678E+03  0.7818608E-02  0.1130045E+00
         21   -1    0    0  503  502  0.00000000000E+00  0.00000000000E+00  0.12993033863E+04  0.12993033863E+04  0.00000000000E+00 0. -1.
         21   -1    0    0  501  503 -0.00000000000E+00 -0.00000000000E+00 -0.64940160141E+02  0.64940160141E+02  0.00000000000E+00 0. -1.
          6    2    1    2  501    0 -0.16574807097E+02  0.14185483103E+03  0.18310925672E+03  0.28901983579E+03  0.17206379126E+03 0.  0.
         24    2    3    3    0    0  0.20936437862E+02  0.13369578109E+03  0.75787211571E+02  0.17494190203E+03  0.80920154084E+02 0.  0.
         -6    2    1    2    0  502  0.16574807097E+02 -0.14185483103E+03  0.10512539695E+04  0.10752237107E+04  0.17485308799E+03 0.  0.
        -24    2    5    5    0    0  0.31321208004E+02 -0.40133085158E+02  0.77018306293E+03  0.77591164206E+03  0.79153289654E+02 0.  0.
          5    1    3    3  501    0 -0.37511244959E+02  0.81590499397E+01  0.10732204515E+03  0.11407793376E+03  0.47000000000E+01 0. -1.
        -11    1    4    4    0    0  0.11296579479E+02 -0.37803006524E+01 -0.73462778928E+01  0.13995398523E+02  0.00000000000E+00 0.  1.
         12    1    4    4    0    0  0.96398583831E+01  0.13747608174E+03  0.83133489464E+02  0.16094650351E+03  0.00000000000E+00 0. -1.
         -5    1    5    5    0  502 -0.14746400907E+02 -0.10172174587E+03  0.28107090653E+03  0.29931206862E+03  0.47000000000E+01 0.  1.
         13    1    6    6    0    0  0.39030689669E+02 -0.42275014018E+02  0.28951984020E+03  0.29518182433E+03  0.00000000000E+00 0. -1.
        -14    1    6    6    0    0 -0.77094816648E+01  0.21419288606E+01  0.48066322274E+03  0.48072981774E+03  0.00000000000E+00 0.  1.
</event>
<event>
12    1  0.8500177E-002  0.2001033E+03  0.7818608E-02  0.1149927E+00
         21   -1    0    0  503  502  0.00000000000E+00  0.00000000000E+00  0.93045899490E+02  0.93045899490E+02  0.00000000000E+00 0. -1.
         21   -1    0    0  501  503 -0.00000000000E+00 -0.00000000000E+00 -0.82217788986E+03  0.82217788986E+03  0.00000000000E+00 0. -1.
          6    2    1    2  501    0 -0.80846668324E+02 -0.60240148526E+02 -0.68098376781E+03  0.70940931251E+03  0.17134065884E+03 0.  0.
         24    2    3    3    0    0 -0.10008855484E+03  0.85456248806E+01 -0.37817421996E+03  0.39825429472E+03  0.74161958651E+02 0.  0.
         -6    2    1    2    0  502  0.80846668324E+02  0.60240148526E+02 -0.48148222555E+02  0.20581447684E+03  0.17284758682E+03 0.  0.
        -24    2    5    5    0    0  0.51595524941E+02  0.21386853193E+02  0.38576026777E+02  0.10627356380E+03  0.81770806750E+02 0.  0.
          5    1    3    3  501    0  0.19241886512E+02 -0.68785773407E+02 -0.30280954785E+03  0.31115501778E+03  0.47000000000E+01 0. -1.
        -13    1    4    4    0    0 -0.57921263121E+02  0.40658053670E+02 -0.24177874246E+03  0.25192242924E+03  0.00000000000E+00 0.  1.
         14    1    4    4    0    0 -0.42167291715E+02 -0.32112428789E+02 -0.13639547750E+03  0.14633186548E+03  0.00000000000E+00 0. -1.
         -5    1    5    5    0  502  0.29251143383E+02  0.38853295333E+02 -0.86724249332E+02  0.99540913044E+02  0.47000000000E+01 0.  1.
         11    1    6    6    0    0 -0.15113362951E+02 -0.15266160146E+02  0.13007405175E+01  0.21521182848E+02  0.00000000000E+00 0. -1.
        -12    1    6    6    0    0  0.66708887892E+02  0.36653013339E+02  0.37275286260E+02  0.84752380948E+02  0.00000000000E+00 0.  1.
</event>
<event>
12    1  0.8500177E-002  0.1725063E+03  0.7818608E-02  0.1176547E+00
         21   -1    0    0  501  502  0.00000000000E+00  0.00000000000E+00  0.26583331770E+03  0.26583331770E+03  0.00000000000E+00 0. -1.
         21   -1    0    0  502  503 -0.00000000000E+00 -0.00000000000E+00 -0.11010006851E+03  0.11010006851E+03  0.00000000000E+00 0. -1.
         -6    2    1    2    0  503 -0.82602852092E+01 -0.15903628540E+02  0.58167761793E+02  0.18204924777E+03  0.17157296521E+03 0.  0.
        -24    2    3    3    0    0  0.35632500141E+02  0.27069017212E+02  0.75082705028E+02  0.11816317579E+03  0.79515512695E+02 0.  0.
          6    2    1    2  501    0  0.82602852092E+01  0.15903628540E+02  0.97565487398E+02  0.19388413844E+03  0.16658594508E+03 0.  0.
         24    2    5    5    0    0 -0.68335955795E+01  0.70774467690E+02  0.49307761158E+02  0.11912096323E+03  0.81870783954E+02 0.  0.
          5    1    5    5  501    0  0.15093880789E+02 -0.54870839150E+02  0.48257726239E+02  0.74763175214E+02  0.47000000000E+01 0. -1.
        -13    1    6    6    0    0  0.17535189807E+02 -0.86450382616E+01  0.26576943859E+02  0.32993234352E+02  0.00000000000E+00 0.  1.
         14    1    6    6    0    0 -0.24368785386E+02  0.79419505951E+02  0.22730817300E+02  0.86127728879E+02  0.00000000000E+00 0. -1.
         -5    1    3    3    0  503 -0.43892785351E+02 -0.42972645752E+02 -0.16914943235E+02  0.63886071983E+02  0.47000000000E+01 0.  1.
         13    1    4    4    0    0 -0.78724809036E+01  0.43487049883E+02  0.30132483151E+02  0.53488933472E+02  0.00000000000E+00 0. -1.
        -14    1    4    4    0    0  0.43504981045E+02 -0.16418032671E+02  0.44950221877E+02  0.64674242317E+02  0.00000000000E+00 0.  1.
</event>
<event>
12    1  0.8500177E-002  0.3224587E+03  0.7818608E-02  0.1074693E+00
         21   -1    0    0  503  502  0.00000000000E+00  0.00000000000E+00  0.10380634443E+04  0.10380634443E+04  0.00000000000E+00 0. -1.
         21   -1    0    0  501  503 -0.00000000000E+00 -0.00000000000E+00 -0.99706907059E+02  0.99706907059E+02  0.00000000000E+00 0.  1.
          6    2    1    2  501    0  0.25321528495E+03  0.10103951073E+03  0.46784286450E+03  0.56736459754E+03  0.16940683994E+03 0.  0.
         24    2    3    3    0    0  0.24956186190E+03  0.55312306327E+02  0.34746261757E+03  0.43845447935E+03  0.78558804125E+02 0.  0.
         -6    2    1    2    0  502 -0.25321528495E+03 -0.10103951073E+03  0.47051367278E+03  0.57040575386E+03  0.17219943235E+03 0.  0.
        -24    2    5    5    0    0 -0.44009312842E+02 -0.49334304445E+01  0.11755313141E+03  0.14897159388E+03  0.80078953077E+02 0.  0.
          5    1    3    3  501    0  0.36534230519E+01  0.45727204400E+02  0.12038024693E+03  0.12891011819E+03  0.47000000000E+01 0. -1.
        -13    1    4    4    0    0  0.21359804164E+02  0.12269673547E+02  0.57415164595E+01  0.25293302159E+02  0.00000000000E+00 0.  1.
         14    1    4    4    0    0  0.22820205773E+03  0.43042632780E+02  0.34172110111E+03  0.41316117719E+03  0.00000000000E+00 0. -1.
         -5    1    5    5    0  502 -0.20920597211E+03 -0.96106080282E+02  0.35296054137E+03  0.42143415998E+03  0.47000000000E+01 0.  1.
         11    1    6    6    0    0  0.18615855159E+02 -0.55854207379E+01  0.62950550826E+02  0.65882614076E+02  0.00000000000E+00 0. -1.
        -12    1    6    6    0    0 -0.62625168001E+02  0.65199029333E+00  0.54602580584E+02  0.83088979804E+02  0.00000000000E+00 0.  1.
</event>
<event>
12    1  0.8500177E-002  0.1953502E+03  0.7818608E-02  0.1156861E+00
         21   -1    0    0  501  502  0.00000000000E+00  0.00000000000E+00  0.50033144502E+03  0.50033144502E+03  0.00000000000E+00 0. -1.
         21   -1    0    0  502  503 -0.00000000000E+00 -0.00000000000E+00 -0.71759288734E+02  0.71759288734E+02  0.00000000000E+00 0. -1.
         -6    2    1    2    0  503  0.53959135294E+02  0.47959713276E+02  0.25241192405E+03  0.31917627023E+03  0.18152132023E+03 0.  0.
        -24    2    3    3    0    0 -0.23479126833E+02  0.71666664489E+02  0.13065805946E+03  0.17287248518E+03  0.84415563941E+02 0.  0.
          6    2    1    2  501    0 -0.53959135294E+02 -0.47959713276E+02  0.17616023224E+03  0.25291446353E+03  0.16649797614E+03 0.  0.
         24    2    5    5    0    0 -0.68055178137E+02  0.48556999081E+01  0.16736187037E+03  0.19734767970E+03  0.79252923833E+02 0.  0.
          5    1    5    5  501    0  0.14096042843E+02 -0.52815413184E+02  0.87983618725E+01  0.55566783831E+02  0.47000000000E+01 0. -1.
        -11    1    6    6    0    0  0.12226083355E+02  0.18654354037E+02  0.46843885647E+02  0.51882672071E+02  0.00000000000E+00 0.  1.
         12    1    6    6    0    0 -0.80281261492E+02 -0.13798654129E+02  0.12051798472E+03  0.14546500763E+03  0.00000000000E+00 0. -1.
         -5    1    3    3    0  503  0.77438262126E+02 -0.23706951213E+02  0.12175386459E+03  0.14630378504E+03  0.47000000000E+01 0.  1.
         11    1    4    4    0    0  0.30547959897E+02  0.40246001343E+02  0.53716971440E+02  0.73745721900E+02  0.00000000000E+00 0. -1.
        -12    1    4    4    0    0 -0.54027086730E+02  0.31420663146E+02  0.76941088022E+02  0.99126763283E+02  0.00000000000E+00 0.  1.
</event>
<event>
12    1  0.8500177E-002  0.4799002E+03  0.7818608E-02  0.1019192E+00
         21   -1    0    0  503  502  0.00000000000E+00  0.00000000000E+00  0.44283638603E+03  0.44283638603E+03  0.00000000000E+00 0.  1.
         21   -1    0    0  501  503 -0.00000000000E+00 -0.00000000000E+00 -0.52931641697E+03  0.52931641697E+03  0.00000000000E+00 0. -1.
          6    2    1    2  501    0 -0.37591282001E+03  0.24516137520E+03  0.22605220493E+02  0.48043229797E+03  0.16996955258E+03 0.  0.
         24    2    3    3    0    0 -0.25261457558E+03  0.15448954875E+03 -0.50379059988E+02  0.31080732225E+03  0.79887404580E+02 0.  0.
         -6    2    1    2    0  502  0.37591282001E+03 -0.24516137520E+03 -0.10908525143E+03  0.49172050503E+03  0.16874511802E+03 0.  0.
        -24    2    5    5    0    0  0.34794032482E+03 -0.21967799900E+03 -0.14087416620E+03  0.44207689466E+03  0.79155272784E+02 0.  0.
          5    1    3    3  501    0 -0.12329824442E+03  0.90671826449E+02  0.72984280481E+02  0.16962497572E+03  0.47000000000E+01 0. -1.
        -13    1    4    4    0    0 -0.10683125936E+03  0.74054771747E+02  0.17186339281E+02  0.13111978284E+03  0.00000000000E+00 0.  1.
         14    1    4    4    0    0 -0.14578331622E+03  0.80434776999E+02 -0.67565399269E+02  0.17968753941E+03  0.00000000000E+00 0. -1.
         -5    1    5    5    0  502  0.27972495190E+02 -0.25483376195E+02  0.31788914762E+02  0.49643610376E+02  0.47000000000E+01 0.  1.
         13    1    6    6    0    0  0.24570089088E+02  0.31865016748E+01 -0.17823688538E+02  0.30520926327E+02  0.00000000000E+00 0. -1.
        -14    1    6    6    0    0  0.32337023573E+03 -0.22286450067E+03 -0.12305047766E+03  0.41155596833E+03  0.00000000000E+00 0.  1.
</event>
<event>
12    1  0.8500177E-002  0.1912754E+03  0.7818608E-02  0.1157773E+00
         21   -1    0    0  501  502  0.00000000000E+00  0.00000000000E+00  0.10524775556E+03  0.10524775556E+03  0.00000000000E+00 0. -1.
         21   -1    0    0  502  503 -0.00000000000E+00 -0.00000000000E+00 -0.56149932769E+03  0.56149932769E+03  0.00000000000E+00 0.  1.
         -6    2    1    2    0  503  0.74128309026E+02  0.33976183817E+02 -0.43489279496E+03  0.47428283693E+03  0.17077200893E+03 0.  0.
        -24    2    3    3    0    0 -0.26321214434E+02  0.18647642670E+02 -0.18501143264E+03  0.20449059062E+03  0.80911250988E+02 0.  0.
          6    2    1    2  501    0 -0.74128309026E+02 -0.33976183817E+02 -0.21358777165E+02  0.19246424632E+03  0.17302283515E+03 0.  0.
         24    2    5    5    0    0 -0.74081271494E+02 -0.20205593821E+00  0.45234281750E+02  0.11764834278E+03  0.79416098499E+02 0.  0.
          5    1    5    5  501    0 -0.47037532084E-01 -0.33774127879E+02 -0.66593058916E+02  0.74815903538E+02  0.47000000000E+01 0. -1.
        -11    1    6    6    0    0 -0.20353372774E+02  0.26915383466E+01 -0.22948873248E+02  0.30792124729E+02  0.00000000000E+00 0.  1.
         12    1    6    6    0    0 -0.53727898719E+02 -0.28935942848E+01  0.68183154998E+02  0.86856218051E+02  0.00000000000E+00 0. -1.
         -5    1    3    3    0  503  0.10044952346E+03  0.15328541148E+02 -0.24988136232E+03  0.26979224631E+03  0.47000000000E+01 0.  1.
         11    1    4    4    0    0 -0.86605678699E+01  0.36652313550E+02 -0.17207062137E+03  0.17614396459E+03  0.00000000000E+00 0. -1.
        -12    1    4    4    0    0 -0.17660646564E+02 -0.18004670881E+02 -0.12940811274E+02  0.28346626025E+02  0.00000000000E+00 0.  1.
</event>
<event>
12    1  0.8500177E-002  0.1761303E+03  0.7818608E-02  0.1172182E+00
         21   -1    0    0  503  502  0.00000000000E+00  0.00000000000E+00  0.65108968614E+02  0.65108968614E+02  0.00000000000E+00 0. -1.
         21   -1    0    0  501  503 -0.00000000000E+00 -0.00000000000E+00 -0.70527925211E+03  0.70527925211E+03  0.00000000000E+00 0. -1.
          6    2    1    2  501    0 -0.52985473235E+01  0.20743372157E+02 -0.54387289432E+03  0.57168138296E+03  0.17482424416E+03 0.  0.
         24    2    3    3    0    0 -0.66657502334E+02  0.21030385069E+02 -0.23708339034E+03  0.25878061036E+03  0.76637918879E+02 0.  0.
         -6    2    1    2    0  502  0.52985473235E+01 -0.20743372157E+02 -0.96297389174E+02  0.19870683777E+03  0.17249016819E+03 0.  0.
        -24    2    5    5    0    0  0.32279953683E+02 -0.57740101041E+02 -0.10900055371E+03  0.15095524485E+03  0.80811203184E+02 0.  0.
          5    1    3    3  501    0  0.61358955011E+02 -0.28701291157E+00 -0.30678950399E+03  0.31290077260E+03  0.47000000000E+01 0. -1.
        -11    1    4    4    0    0 -0.23238537287E+00  0.16765650955E+02 -0.52331988972E+01  0.17564948779E+02  0.00000000000E+00 0.  1.
         12    1    4    4    0    0 -0.66425116961E+02  0.42647341136E+01 -0.23185019144E+03  0.24121566158E+03  0.00000000000E+00 0. -1.
         -5    1    5    5    0  502 -0.26981406360E+02  0.36996728884E+02  0.12703164536E+02  0.47751592921E+02  0.47000000000E+01 0.  1.
         13    1    6    6    0    0 -0.12621718514E+02  0.10067136736E+01  0.61752259627E+01  0.14087393881E+02  0.00000000000E+00 0. -1.
        -14    1    6    6    0    0  0.44901672197E+02 -0.58746814715E+02 -0.11517577967E+03  0.13686785097E+03  0.00000000000E+00 0.  1.
</event>
<event>
12    1  0.8500177E-002  0.1758917E+03  0.7818608E-02  0.1172503E+00
         21   -1    0    0  501  502  0.00000000000E+00  0.00000000000E+00  0.14774414914E+03  0.14774414914E+03  0.00000000000E+00 0.  1.
         21   -1    0    0  502  503 -0.00000000000E+00 -0.00000000000E+00 -0.20816392586E+03  0.20816392586E+03  0.00000000000E+00 0.  1.
         -6    2    1    2    0  503  0.29349141271E+02  0.82097243104E+01 -0.47405724344E+02  0.18216800794E+03  0.17323137345E+03 0.  0.
        -24    2    3    3    0    0  0.53310680603E+02  0.65509794264E+02 -0.22025825616E+02  0.11490968025E+03  0.74736442316E+02 0.  0.
          6    2    1    2  501    0 -0.29349141271E+02 -0.82097243104E+01 -0.13014052380E+02  0.17374006706E+03  0.17055050184E+03 0.  0.
         24    2    5    5    0    0  0.36140825638E+02 -0.43342787414E+02  0.12918038691E+01  0.97911211002E+02  0.80001124892E+02 0.  0.
          5    1    5    5  501    0 -0.65489966909E+02  0.35133063104E+02 -0.14305856249E+02  0.75828856063E+02  0.47000000000E+01 0. -1.
        -13    1    6    6    0    0  0.36637704260E+02 -0.56069805981E+02  0.24597267792E+02  0.71352435831E+02  0.00000000000E+00 0.  1.
         14    1    6    6    0    0 -0.49687862131E+00  0.12727018566E+02 -0.23305463923E+02  0.26558775172E+02  0.00000000000E+00 0. -1.
         -5    1    3    3    0  503 -0.23961539333E+02 -0.57300069953E+02 -0.25379898729E+02  0.67258327688E+02  0.47000000000E+01 0.  1.
         13    1    4    4    0    0  0.23573024211E+01 -0.12936944167E+02  0.94727341444E+01  0.16206606408E+02  0.00000000000E+00 0. -1.
        -14    1    4    4    0    0  0.50953378182E+02  0.78446738431E+02 -0.31498559760E+02  0.98703073841E+02  0.00000000000E+00 0.  1.
</event>
<event>
12    1  0.8500177E-002  0.2230426E+03  0.7818608E-02  0.1132218E+00
         21   -1    0    0  501  502  0.00000000000E+00  0.00000000000E+00  0.80227792848E+02  0.80227792848E+02  0.00000000000E+00 0. -1.
         21   -1    0    0  502  503 -0.00000000000E+00 -0.00000000000E+00 -0.61584296287E+03  0.61584296287E+03  0.00000000000E+00 0.  1.
         -6    2    1    2    0  503  0.11256448925E+03  0.84894998050E+02 -0.29949418831E+03  0.37342306615E+03  0.17282966343E+03 0.  0.
        -24    2    3    3    0    0  0.29240386264E+02 -0.19552211045E+02 -0.75785189270E+02  0.11280853877E+03  0.75796321552E+02 0.  0.
          6    2    1    2  501    0 -0.11256448925E+03 -0.84894998050E+02 -0.23612098170E+03  0.32264768957E+03  0.16873200245E+03 0.  0.
         24    2    5    5    0    0 -0.65544800045E+02 -0.51414662932E+02 -0.23743479570E+03  0.26472014759E+03  0.82230687413E+02 0.  0.
          5    1    5    5  501    0 -0.47019689206E+02 -0.33480335118E+02  0.13138139987E+01  0.57927541980E+02  0.47000000000E+01 0. -1.
        -13    1    6    6    0    0  0.33665281457E+01 -0.10841501303E+02 -0.13150757129E+03  0.13199663999E+03  0.00000000000E+00 0.  1.
         14    1    6    6    0    0 -0.68911328191E+02 -0.40573161629E+02 -0.10592722441E+03  0.13272350760E+03  0.00000000000E+00 0. -1.
         -5    1    3    3    0  503  0.83324102987E+02  0.10444720909E+03 -0.22370899904E+03  0.26061452738E+03  0.47000000000E+01 0.  1.
         11    1    4    4    0    0  0.44941202833E+02 -0.35526823646E+02 -0.68405443596E+02  0.89225397864E+02  0.00000000000E+00 0. -1.
        -12    1    4    4    0    0 -0.15700816569E+02  0.15974612601E+02 -0.73797456740E+01  0.23583140904E+02  0.00000000000E+00 0.  1.
</event>
<event>
12    1  0.8500177E-002  0.2003271E+03  0.7818608E-02  0.1149576E+00
         21   -1    0    0  503  502  0.00000000000E+00  0.00000000000E+00  0.44701291745E+03  0.44701291745E+03  0.00000000000E+00 0.  1.
         21   -1    0    0  501  503 -0.00000000000E+00 -0.00000000000E+00 -0.94296419360E+02  0.94296419360E+02  0.00000000000E+00 0.  1.
          6    2    1    2  501    0 -0.99011720166E+02  0.29946720141E+02  0.11577279392E+03  0.23137476041E+03  0.17155411148E+03 0.  0.
         24    2    3    3    0    0  0.89254000749E+01 -0.10057122112E+02  0.71616231143E+02  0.10799477274E+03  0.79706824710E+02 0.  0.
         -6    2    1    2    0  502  0.99011720166E+02 -0.29946720141E+02  0.23694370416E+03  0.30993457639E+03  0.17092979823E+03 0.  0.
        -24    2    5    5    0    0  0.26840434787E+02 -0.69281281554E+02  0.94079314606E+02  0.14504605054E+03  0.81652522471E+02 0.  0.
          5    1    3    3  501    0 -0.10793712024E+03  0.40003842253E+02  0.44156562780E+02  0.12337998767E+03  0.47000000000E+01 0. -1.
        -11    1    4    4    0    0 -0.16576244047E+02 -0.37830572282E+02  0.25968280291E+02  0.48788068697E+02  0.00000000000E+00 0.  1.
         12    1    4    4    0    0  0.25501644122E+02  0.27773450170E+02  0.45647950851E+02  0.59206704048E+02  0.00000000000E+00 0. -1.
         -5    1    5    5    0  502  0.72171285379E+02  0.39334561413E+02  0.14286438956E+03  0.16488852585E+03  0.47000000000E+01 0.  1.
         11    1    6    6    0    0 -0.10753689547E+02  0.10025704662E+02 -0.20879867433E+01  0.14849790620E+02  0.00000000000E+00 0. -1.
        -12    1    6    6    0    0  0.37594124334E+02 -0.79306986216E+02  0.96167301349E+02  0.13019625992E+03  0.00000000000E+00 0.  1.
</event>
<event>
12    1  0.8500177E-002  0.1961509E+03  0.7818608E-02  0.1153100E+00
         21   -1    0    0  501  502  0.00000000000E+00  0.00000000000E+00  0.14528070534E+04  0.14528070534E+04  0.00000000000E+00 0.  1.
         21   -1    0    0  502  503 -0.00000000000E+00 -0.00000000000E+00 -0.30496335947E+02  0.30496335947E+02  0.00000000000E+00 0.  1.
         -6    2    1    2    0  503 -0.80534305717E+01  0.93501617574E+02  0.44008096327E+03  0.48167948194E+03  0.17186174343E+03 0.  0.
        -24    2    3    3    0    0 -0.17036146385E+01 -0.18299564724E+02  0.19700664839E+03  0.21400984025E+03  0.81552534251E+02 0.  0.
          6    2    1    2  501    0  0.80534305717E+01 -0.93501617574E+02  0.98222975418E+03  0.10016239074E+04  0.17224329207E+03 0.  0.
         24    2    5    5    0    0  0.43195961074E+02 -0.59197567905E+02  0.89316383040E+03  0.89980743501E+03  0.80879843331E+02 0.  0.
          5    1    5    5  501    0 -0.35142530502E+02 -0.34304049669E+02  0.89065923782E+02  0.10181647240E+03  0.47000000000E+01 0. -1.
        -11    1    6    6    0    0  0.67240133343E+02 -0.46626212561E+02  0.64736792550E+03  0.65251855927E+03  0.00000000000E+00 0.  1.
         12    1    6    6    0    0 -0.24044172269E+02 -0.12571355344E+02  0.24579590491E+03  0.24728887574E+03  0.00000000000E+00 0. -1.
         -5    1    3    3    0  503 -0.63498159332E+01  0.11180118230E+03  0.24307431488E+03  0.26766964169E+03  0.47000000000E+01 0.  1.
         11    1    4    4    0    0 -0.83554853540E+01  0.28511978498E+02  0.12019158269E+03  0.12380938415E+03  0.00000000000E+00 0. -1.
        -12    1    4    4    0    0  0.66518707156E+01 -0.46811543223E+02  0.76815065698E+02  0.90200456103E+02  0.00000000000E+00 0.  1.
</event>
<event>
12    1  0.8500177E-002  0.2693938E+03  0.7818608E-02  0.1101729E+00
         21   -1    0    0  503  502  0.00000000000E+00  0.00000000000E+00  0.11575486357E+03  0.11575486357E+03  0.00000000000E+00 0.  1.
         21   -1    0    0  501  503 -0.00000000000E+00 -0.00000000000E+00 -0.73872894474E+03  0.73872894474E+03  0.00000000000E+00 0.  1.
          6    2    1    2  501    0 -0.41219443338E+02  0.20230046636E+03 -0.47854843341E+03  0.54881770980E+03  0.17195276757E+03 0.  0.
         24    2    3    3    0    0 -0.77322908514E+02  0.69928718211E+02 -0.18832466325E+03  0.22776060169E+03  0.74430202749E+02 0.  0.
         -6    2    1    2    0  502  0.41219443338E+02 -0.20230046636E+03 -0.14442564776E+03  0.30566609851E+03  0.17305627654E+03 0.  0.
        -24    2    5    5    0    0 -0.27208356848E+02 -0.36825906694E+02 -0.56891838007E+02  0.10629596137E+03  0.77237996379E+02 0.  0.
          5    1    3    3  501    0  0.36103465176E+02  0.13237174815E+03 -0.29022377016E+03  0.32105710812E+03  0.47000000000E+01 0. -1.
        -13    1    4    4    0    0 -0.65587779291E+02  0.45591776363E+02 -0.18374572910E+03  0.20035683125E+03  0.00000000000E+00 0.  1.
         14    1    4    4    0    0 -0.11735129223E+02  0.24336941848E+02 -0.45789341471E+01  0.27403770440E+02  0.00000000000E+00 0. -1.
         -5    1    5    5    0  502  0.68427800186E+02 -0.16547455967E+03 -0.87533809757E+02  0.19937013715E+03  0.47000000000E+01 0.  1.
         11    1    6    6    0    0 -0.95057310281E+01  0.18706955579E+02 -0.40718819235E+02  0.45807546860E+02  0.00000000000E+00 0. -1.
        -12    1    6    6    0    0 -0.17702625820E+02 -0.55532862274E+02 -0.16173018772E+02  0.60488414506E+02  0.00000000000E+00 0.  1.
</event>
<event>
12    1  0.8500177E-002  0.1968913E+03  0.7818608E-02  0.1152429E+00
         21   -1    0    0  501  502  0.00000000000E+00  0.00000000000E+00  0.16179715103E+03  0.16179715103E+03  0.00000000000E+00 0.  1.
         21   -1    0    0  502  503 -0.00000000000E+00 -0.00000000000E+00 -0.23936703537E+03  0.23936703537E+03  0.00000000000E+00 0.  1.
         -6    2    1    2    0  503 -0.93708617992E+02  0.23044502280E+02 -0.38526379014E+02  0.20043902219E+03  0.17140351678E+03 0.  0.
        -24    2    3    3    0    0 -0.10393079879E+03  0.39498859736E+01 -0.80162026352E+02  0.15327214312E+03  0.79051798529E+02 0.  0.
          6    2    1    2  501    0  0.93708617992E+02 -0.23044502280E+02 -0.39043505323E+02  0.20072516421E+03  0.17162121684E+03 0.  0.
         24    2    5    5    0    0  0.81718336191E+02 -0.59292922927E+02 -0.73965779451E+02  0.14876970168E+03  0.80423568859E+02 0.  0.
          5    1    5    5  501    0  0.11990281801E+02  0.36248420647E+02  0.34922274128E+02  0.51955462536E+02  0.47000000000E+01 0. -1.
        -13    1    6    6    0    0  0.45049459742E+02 -0.21100524419E+02  0.87992228023E+01  0.50518435009E+02  0.00000000000E+00 0.  1.
         14    1    6    6    0    0  0.36668876449E+02 -0.38192398508E+02 -0.82765002253E+02  0.98251266668E+02  0.00000000000E+00 0. -1.
         -5    1    3    3    0  503  0.10222180797E+02  0.19094616306E+02  0.41635647338E+02  0.47166879072E+02  0.47000000000E+01 0.  1.
         11    1    4    4    0    0  0.39093869136E+01  0.91110531148E+01  0.88932915160E+01  0.13318604615E+02  0.00000000000E+00 0. -1.
        -12    1    4    4    0    0 -0.10784018570E+03 -0.51611671411E+01 -0.89055317868E+02  0.13995353850E+03  0.00000000000E+00 0.  1.
</event>
<event>
12    1  0.8500177E-002  0.1988095E+03  0.7818608E-02  0.1150827E+00
         21   -1    0    0  503  502  0.00000000000E+00  0.00000000000E+00  0.28195547686E+03  0.28195547686E+03  0.00000000000E+00 0.  1.
         21   -1    0    0  501  503 -0.00000000000E+00 -0.00000000000E+00 -0.14035352741E+03  0.14035352741E+03  0.00000000000E+00 0.  1.
          6    2    1    2  501    0 -0.53648184955E+02  0.82165173883E+02  0.82601185929E+02  0.21528624033E+03  0.17290449910E+03 0.  0.
         24    2    3    3    0    0 -0.18599085402E+02  0.11999737693E+03  0.65745814257E+02  0.16082608498E+03  0.82445261049E+02 0.  0.
         -6    2    1    2    0  502  0.53648184955E+02 -0.82165173883E+02  0.59000763522E+02  0.20702276395E+03  0.17247634953E+03 0.  0.
        -24    2    5    5    0    0 -0.23404387336E+02 -0.23613360747E+02  0.67765081678E+02  0.10973804269E+03  0.79655354908E+02 0.  0.
          5    1    3    3  501    0 -0.35049099553E+02 -0.37832203043E+02  0.16855371672E+02  0.54460155350E+02  0.47000000000E+01 0. -1.
        -11    1    4    4    0    0 -0.51547375091E+02  0.74654960312E+02  0.41077292810E+02  0.99588347524E+02  0.00000000000E+00 0.  1.
         12    1    4    4    0    0  0.32948289689E+02  0.45342416614E+02  0.24668521447E+02  0.61237737452E+02  0.00000000000E+00 0. -1.
         -5    1    5    5    0  502  0.77052572291E+02 -0.58551813136E+02 -0.87643181557E+01  0.97284721262E+02  0.47000000000E+01 0.  1.
         11    1    6    6    0    0  0.71784404509E+01 -0.33127929408E+02  0.69851347934E+02  0.77641487121E+02  0.00000000000E+00 0. -1.
        -12    1    6    6    0    0 -0.30582827787E+02  0.95145686615E+01 -0.20862662566E+01  0.32096555565E+02  0.00000000000E+00 0.  1.
</event>
<event>
12    1  0.8500177E-002  0.1988288E+03  0.7818608E-02  0.1150945E+00
         21   -1    0    0  501  502  0.00000000000E+00  0.00000000000E+00  0.20079932547E+03  0.20079932547E+03  0.00000000000E+00 0.  1.
         21   -1    0    0  502  503 -0.00000000000E+00 -0.00000000000E+00 -0.23938923388E+03  0.23938923388E+03  0.00000000000E+00 0.  1.
         -6    2    1    2    0  503  0.96320924543E+02  0.70216948610E+01 -0.11308040730E+03  0.22786396458E+03  0.17264930679E+03 0.  0.
        -24    2    3    3    0    0 -0.10117813523E+02  0.34244365613E+02 -0.49392233450E+02  0.10078701052E+03  0.80270679819E+02 0.  0.
          6    2    1    2  501    0 -0.96320924543E+02 -0.70216948610E+01  0.74490498891E+02  0.21232459477E+03  0.17379837288E+03 0.  0.
         24    2    5    5    0    0 -0.11560944807E+03 -0.27754997864E+01  0.10521117971E+03  0.17550167334E+03  0.79738303998E+02 0.  0.
          5    1    5    5  501    0  0.19288523531E+02 -0.42461950746E+01 -0.30720680820E+02  0.36822921431E+02  0.47000000000E+01 0. -1.
        -13    1    6    6    0    0 -0.72393531853E+01  0.22349526413E+02  0.40456656149E+02  0.46783016065E+02  0.00000000000E+00 0.  1.
         14    1    6    6    0    0 -0.10837009489E+03 -0.25125026200E+02  0.64754523563E+02  0.12871865727E+03  0.00000000000E+00 0. -1.
         -5    1    3    3    0  503  0.10643873807E+03 -0.27222670752E+02 -0.63688173850E+02  0.12707695406E+03  0.47000000000E+01 0.  1.
         11    1    4    4    0    0 -0.33505204000E+02 -0.11192671018E+02 -0.29230378285E+02  0.45850731666E+02  0.00000000000E+00 0. -1.
        -12    1    4    4    0    0  0.23387390477E+02  0.45437036631E+02 -0.20161855165E+02  0.54936278858E+02  0.00000000000E+00 0.  1.
</event>
<event>
12    1  0.8500177E-002  0.1921924E+03  0.7818608E-02  0.1156716E+00
         21   -1    0    0  503  502  0.00000000000E+00  0.00000000000E+00  0.18710370579E+03  0.18710370579E+03  0.00000000000E+00 0. -1.
         21   -1    0    0  501  503 -0.00000000000E+00 -0.00000000000E+00 -0.22705967331E+03  0.22705967331E+03  0.00000000000E+00 0. -1.
          6    2    1    2  501    0 -0.32669187270E+02  0.79104394273E+02 -0.96093803159E+02  0.21487656160E+03  0.17208467895E+03 0.  0.
         24    2    3    3    0    0  0.16463804424E+02  0.10327101265E+03 -0.43295900787E+02  0.13866773789E+03  0.80113966299E+02 0.  0.
         -6    2    1    2    0  502  0.32669187270E+02 -0.79104394273E+02  0.56137835639E+02  0.19928681751E+03  0.17099414625E+03 0.  0.
        -24    2    5    5    0    0  0.33493272629E+02 -0.64615674213E+02  0.97237432199E+02  0.15544769157E+03  0.97014854164E+02 0.  0.
          5    1    3    3  501    0 -0.49132991693E+02 -0.24166618376E+02 -0.52797902372E+02  0.76208823711E+02  0.47000000000E+01 0. -1.
        -13    1    4    4    0    0  0.39238875401E+02  0.31091670292E+02 -0.37893856688E+02  0.62787942147E+02  0.00000000000E+00 0.  1.
         14    1    4    4    0    0 -0.22775070978E+02  0.72179342357E+02 -0.54020440985E+01  0.75879795740E+02  0.00000000000E+00 0. -1.
         -5    1    5    5    0  502 -0.82408535889E+00 -0.14488720059E+02 -0.41099596560E+02  0.43839125938E+02  0.47000000000E+01 0.  1.
         13    1    6    6    0    0  0.13511627973E+01  0.39790858920E+00 -0.18668437276E+02  0.18721498937E+02  0.00000000000E+00 0. -1.
        -14    1    6    6    0    0  0.32142109831E+02 -0.65013582803E+02  0.11590586947E+03  0.13672619263E+03  0.00000000000E+00 0.  1.
</event>
<event>
12    1  0.8500177E-002  0.1900395E+03  0.7818608E-02  0.1161649E+00
         21   -1    0    0  503  502  0.00000000000E+00  0.00000000000E+00  0.36777629290E+03  0.36777629290E+03  0.00000000000E+00 0.  1.
         21   -1    0    0  501  503 -0.00000000000E+00 -0.00000000000E+00 -0.12683139807E+03  0.12683139807E+03  0.00000000000E+00 0.  1.
          6    2    1    2  501    0  0.64328195435E+02  0.48161230165E+02 -0.13739340339E+02  0.17683562472E+03  0.15692178905E+03 0.  0.
         24    2    3    3    0    0  0.70958957482E+02 -0.16101703639E+02  0.67917278212E+01  0.10888486000E+03  0.80717697337E+02 0.  0.
         -6    2    1    2    0  502 -0.64328195435E+02 -0.48161230165E+02  0.25468423517E+03  0.31777206625E+03  0.17221325626E+03 0.  0.
        -24    2    5    5    0    0 -0.73986611988E+02 -0.88262438095E+01  0.70876701360E+02  0.12949613671E+03  0.78700834137E+02 0.  0.
          5    1    3    3  501    0 -0.66307620479E+01  0.64262933804E+02 -0.20531068160E+02  0.67950764721E+02  0.47000000000E+01 0. -1.
        -13    1    4    4    0    0  0.12905092695E+02  0.24237844130E+02 -0.19264014263E+02  0.33542760039E+02  0.00000000000E+00 0.  1.
         14    1    4    4    0    0  0.58053864788E+02 -0.40339547769E+02  0.26055742084E+02  0.75342099961E+02  0.00000000000E+00 0. -1.
         -5    1    5    5    0  502  0.96584165531E+01 -0.39334986355E+02  0.18380753381E+03  0.18827592954E+03  0.47000000000E+01 0.  1.
         13    1    6    6    0    0 -0.24619613788E+02 -0.33857190982E+02  0.30810998119E+01  0.41975325374E+02  0.00000000000E+00 0. -1.
        -14    1    6    6    0    0 -0.49366998200E+02  0.25030947172E+02  0.67795601548E+02  0.87520811336E+02  0.00000000000E+00 0.  1.
</event>
<event>
12    1  0.8500177E-002  0.2563910E+03  0.7818608E-02  0.1110683E+00
         21   -1    0    0  503  502  0.00000000000E+00  0.00000000000E+00  0.24902439158E+03  0.24902439158E+03  0.00000000000E+00 0.  1.
         21   -1    0    0  501  503 -0.00000000000E+00 -0.00000000000E+00 -0.29479229522E+03  0.29479229522E+03  0.00000000000E+00 0. -1.
          6    2    1    2  501    0  0.18247945237E+03  0.51306105609E+02 -0.12296386452E+03  0.28435272564E+03  0.17264209680E+03 0.  0.
         24    2    3    3    0    0  0.56439180087E+02  0.76573842902E+02 -0.42793580890E+02  0.13278104898E+03  0.82161925111E+02 0.  0.
         -6    2    1    2    0  502 -0.18247945237E+03 -0.51306105609E+02  0.77195960881E+02  0.25946396117E+03  0.15947182748E+03 0.  0.
        -24    2    5    5    0    0 -0.43288132799E+02 -0.18169139107E+02  0.22455922823E+02  0.10619673127E+03  0.92571578826E+02 0.  0.
          5    1    3    3  501    0  0.12604027228E+03 -0.25267737292E+02 -0.80170283634E+02  0.15157167665E+03  0.47000000000E+01 0. -1.
        -11    1    4    4    0    0  0.40788367945E+01  0.59514496645E+02 -0.49219604323E+02  0.77338099732E+02  0.00000000000E+00 0.  1.
         12    1    4    4    0    0  0.52360343293E+02  0.17059346256E+02  0.64260234324E+01  0.55442949250E+02  0.00000000000E+00 0. -1.
         -5    1    5    5    0  502 -0.13919131957E+03 -0.33136966502E+02  0.54740038058E+02  0.15326722990E+03  0.47000000000E+01 0.  1.
         11    1    6    6    0    0 -0.59762007040E+02  0.12128828539E+02 -0.62852237707E+01  0.61303425720E+02  0.00000000000E+00 0. -1.
        -12    1    6    6    0    0  0.16473874242E+02 -0.30297967646E+02  0.28741146594E+02  0.44893305553E+02  0.00000000000E+00 0.  1.
</event>
<event>
12    1  0.8500177E-002  0.1865391E+03  0.7818608E-02  0.1162608E+00
         21   -1    0    0  503  502  0.00000000000E+00  0.00000000000E+00  0.10181429198E+04  0.10181429198E+04  0.00000000000E+00 0.  1.
         21   -1    0    0  501  503 -0.00000000000E+00 -0.00000000000E+00 -0.42128292591E+02  0.42128292591E+02  0.00000000000E+00 0.  1.
          6    2    1    2  501    0  0.53605384890E+02 -0.13961190633E+02  0.24238090903E+03  0.30329348140E+03  0.17369507381E+03 0.  0.
         24    2    3    3    0    0  0.95445344354E+02 -0.29209414329E+02  0.12650838894E+03  0.17906940384E+03  0.78092735098E+02 0.  0.
         -6    2    1    2    0  502 -0.53605384890E+02  0.13961190633E+02  0.73363371816E+03  0.75697773097E+03  0.17812467721E+03 0.  0.
        -24    2    5    5    0    0 -0.22389959684E+02  0.54340527768E+02  0.65906078891E+03  0.66648958029E+03  0.79956449975E+02 0.  0.
          5    1    3    3  501    0 -0.41839959463E+02  0.15248223696E+02  0.11587252009E+03  0.12422407756E+03  0.47000000000E+01 0. -1.
        -11    1    4    4    0    0  0.25089904833E+02 -0.21823564056E+02 -0.98168744895E+00  0.33267626649E+02  0.00000000000E+00 0.  1.
         12    1    4    4    0    0  0.70355439521E+02 -0.73858502738E+01  0.12749007639E+03  0.14580177719E+03  0.00000000000E+00 0. -1.
         -5    1    5    5    0  502 -0.31215425206E+02 -0.40379337135E+02  0.74572929245E+02  0.90488150685E+02  0.47000000000E+01 0.  1.
         11    1    6    6    0    0  0.30110423557E+02  0.15275305144E+02  0.21662565696E+03  0.21924107235E+03  0.00000000000E+00 0. -1.
        -12    1    6    6    0    0 -0.52500383241E+02  0.39065222623E+02  0.44243513196E+03  0.44724850793E+03  0.00000000000E+00 0.  1.
</event>
<event>
12    1  0.8500177E-002  0.1942648E+03  0.7818608E-02  0.1155984E+00
         21   -1    0    0  501  502  0.00000000000E+00  0.00000000000E+00  0.11381800254E+03  0.11381800254E+03  0.00000000000E+00 0.  1.
         21   -1    0    0  502  503 -0.00000000000E+00 -0.00000000000E+00 -0.33490195079E+03  0.33490195079E+03  0.00000000000E+00 0.  1.
         -6    2    1    2    0  503  0.26420113150E+02  0.72216889908E+02 -0.64161591726E+02  0.19899326174E+03  0.17195437418E+03 0.  0.
        -24    2    3    3    0    0  0.68700142057E+01  0.10915809108E+03 -0.13939041287E+02  0.13348560352E+03  0.75242431717E+02 0.  0.
          6    2    1    2  501    0 -0.26420113150E+02 -0.72216889908E+02 -0.15692235652E+03  0.24972669159E+03  0.17839700937E+03 0.  0.
         24    2    5    5    0    0 -0.79738276834E+02 -0.12383221206E+02 -0.95992556856E+02  0.14894264039E+03  0.80360451688E+02 0.  0.
          5    1    5    5  501    0  0.53318163684E+02 -0.59833668702E+02 -0.60929799662E+02  0.10078405120E+03  0.47000000000E+01 0. -1.
        -11    1    6    6    0    0 -0.10801499599E+02 -0.38522030057E+02 -0.30162983320E+02  0.50104139111E+02  0.00000000000E+00 0.  1.
         12    1    6    6    0    0 -0.68936777235E+02  0.26138808851E+02 -0.65829573536E+02  0.98838501281E+02  0.00000000000E+00 0. -1.
         -5    1    3    3    0  503  0.19550098944E+02 -0.36941201175E+02 -0.50222550438E+02  0.65507658220E+02  0.47000000000E+01 0.  1.
         13    1    4    4    0    0  0.15507074169E+02 -0.41658363032E+01  0.76736095272E+01  0.17796286819E+02  0.00000000000E+00 0. -1.
        -14    1    4    4    0    0 -0.86370599632E+01  0.11332392739E+03 -0.21612650815E+02  0.11568931670E+03  0.00000000000E+00 0.  1.
</event>
<event>
12    1  0.8500177E-002  0.2074846E+03  0.7818608E-02  0.1145346E+00
         21   -1    0    0  501  502  0.00000000000E+00  0.00000000000E+00  0.52352129121E+02  0.52352129121E+02  0.00000000000E+00 0.  1.
         21   -1    0    0  502  503 -0.00000000000E+00 -0.00000000000E+00 -0.99846131158E+03  0.99846131158E+03  0.00000000000E+00 0.  1.
         -6    2    1    2    0  503 -0.82039765152E+02 -0.57987866775E+02 -0.70601649235E+03  0.73348968966E+03  0.17162377928E+03 0.  0.
        -24    2    3    3    0    0 -0.11348973868E+03 -0.57122075020E+02 -0.42800236977E+03  0.45366154100E+03  0.80497906904E+02 0.  0.
          6    2    1    2  501    0  0.82039765152E+02  0.57987866775E+02 -0.24009269011E+03  0.31732375104E+03  0.18153993326E+03 0.  0.
         24    2    5    5    0    0  0.36639115101E+02  0.99540139359E+01 -0.23496136360E+03  0.25086405983E+03  0.79274377845E+02 0.  0.
          5    1    5    5  501    0  0.45400650052E+02  0.48033852839E+02 -0.51313265150E+01  0.66459691208E+02  0.47000000000E+01 0. -1.
        -13    1    6    6    0    0 -0.61612549238E+01  0.98763745452E+01  0.39532277173E+00  0.11647322288E+02  0.00000000000E+00 0.  1.
         14    1    6    6    0    0  0.42800370025E+02  0.77639390723E-01 -0.23535668637E+03  0.23921673754E+03  0.00000000000E+00 0. -1.
         -5    1    3    3    0  503  0.31449973526E+02 -0.86579175542E+00 -0.27801412258E+03  0.27982814866E+03  0.47000000000E+01 0.  1.
         11    1    4    4    0    0 -0.13824908390E+02  0.89859476073E+01 -0.10934324581E+02  0.19784711280E+02  0.00000000000E+00 0. -1.
        -12    1    4    4    0    0 -0.99664830289E+02 -0.66108022627E+02 -0.41706804519E+03  0.43387682972E+03  0.00000000000E+00 0.  1.
</event>
<event>
12    1  0.8500177E-002  0.2202743E+03  0.7818608E-02  0.1133738E+00
         21   -1    0    0  501  502  0.00000000000E+00  0.00000000000E+00  0.54549992976E+03  0.54549992976E+03  0.00000000000E+00 0. -1.
         21   -1    0    0  502  503 -0.00000000000E+00 -0.00000000000E+00 -0.13264599459E+03  0.13264599459E+03  0.00000000000E+00 0. -1.
         -6    2    1    2    0  503  0.12656280281E+03  0.57835048280E+02  0.11623064326E+02  0.22058075241E+03  0.17075636692E+03 0.  0.
        -24    2    3    3    0    0  0.11327132636E+03  0.29795207357E+02  0.66612705914E+02  0.15726529847E+03  0.81098543491E+02 0.  0.
          6    2    1    2  501    0 -0.12656280281E+03 -0.57835048280E+02  0.40123087084E+03  0.45756517195E+03  0.17034271045E+03 0.  0.
         24    2    5    5    0    0 -0.45731277498E+02 -0.89593995337E+02  0.20910622876E+03  0.24667104141E+03  0.83682459461E+02 0.  0.
          5    1    5    5  501    0 -0.80831525308E+02  0.31758947057E+02  0.19212464209E+03  0.21089413055E+03  0.47000000000E+01 0. -1.
        -13    1    6    6    0    0  0.58464509582E-01 -0.32126958257E+02  0.87965139835E+01  0.33309511002E+02  0.00000000000E+00 0.  1.
         14    1    6    6    0    0 -0.45789742008E+02 -0.57467037080E+02  0.20030971477E+03  0.21336153040E+03  0.00000000000E+00 0. -1.
         -5    1    3    3    0  503  0.13291476443E+02  0.28039840924E+02 -0.54989641588E+02  0.63315453935E+02  0.47000000000E+01 0.  1.
         11    1    4    4    0    0  0.57680159827E+02  0.33262131524E+02 -0.47338275754E+01  0.66751624360E+02  0.00000000000E+00 0. -1.
        -12    1    4    4    0    0  0.55591166536E+02 -0.34669241673E+01  0.71346533489E+02  0.90513674111E+02  0.00000000000E+00 0.  1.
</event>
<event>
12    1  0.8500177E-002  0.2131250E+03  0.7818608E-02  0.1139242E+00
         21   -1    0    0  503  502  0.00000000000E+00  0.00000000000E+00  0.30455469380E+03  0.30455469380E+03  0.00000000000E+00 0. -1.
         21   -1    0    0  501  503 -0.00000000000E+00 -0.00000000000E+00 -0.23477683356E+03  0.23477683356E+03  0.00000000000E+00 0. -1.
          6    2    1    2  501    0  0.82581306038E+02  0.94153473544E+02  0.19821947425E+03  0.29105538543E+03  0.17244630680E+03 0.  0.
         24    2    3    3    0    0  0.77744410674E+02  0.10648681839E+03  0.86460466196E+02  0.17841581498E+03  0.83505418606E+02 0.  0.
         -6    2    1    2    0  502 -0.82581306038E+02 -0.94153473544E+02 -0.12844161400E+03  0.24827614193E+03  0.17163695918E+03 0.  0.
        -24    2    5    5    0    0 -0.74302506840E+02 -0.18852912487E+02 -0.13330945190E+03  0.17222024894E+03  0.77537793036E+02 0.  0.
          5    1    3    3  501    0  0.48368953639E+01 -0.12333344847E+02  0.11175900805E+03  0.11263957045E+03  0.47000000000E+01 0. -1.
        -11    1    4    4    0    0  0.80490413639E+01  0.81228586992E+02  0.39697068332E+02  0.90767437145E+02  0.00000000000E+00 0.  1.
         12    1    4    4    0    0  0.69695369310E+02  0.25258231399E+02  0.46763397864E+02  0.87648377831E+02  0.00000000000E+00 0. -1.
         -5    1    5    5    0  502 -0.82787991977E+01 -0.75300561057E+02  0.48678378960E+01  0.76055892983E+02  0.47000000000E+01 0.  1.
         13    1    6    6    0    0 -0.27267343828E+02  0.29864908395E+02 -0.60657784111E+02  0.72902589571E+02  0.00000000000E+00 0. -1.
        -14    1    6    6    0    0 -0.47035163012E+02 -0.48717820882E+02 -0.72651667789E+02  0.99317659374E+02  0.00000000000E+00 0.  1.
</event>
<event>
12    1  0.8500177E-002  0.1792126E+03  0.7818608E-02  0.1171001E+00
         21   -1    0    0  503  502  0.00000000000E+00  0.00000000000E+00  0.16944147949E+03  0.16944147949E+03  0.00000000000E+00 0. -1.
         21   -1    0    0  501  503 -0.00000000000E+00 -0.00000000000E+00 -0.17954883947E+03  0.17954883947E+03  0.00000000000E+00 0. -1.
          6    2    1    2  501    0 -0.43009370818E+02 -0.13334565458E+02 -0.25921821596E+00  0.16950732812E+03  0.16341679986E+03 0.  0.
         24    2    3    3    0    0 -0.64504968045E+02  0.40671234021E+02  0.52197131501E+01  0.11093433292E+03  0.80399879574E+02 0.  0.
         -6    2    1    2    0  502  0.43009370818E+02  0.13334565458E+02 -0.98481417660E+01  0.17948299084E+03  0.17346337219E+03 0.  0.
        -24    2    5    5    0    0 -0.42923901700E+01  0.44434217845E+02 -0.54845149270E+02  0.10701599383E+03  0.80321903665E+02 0.  0.
          5    1    3    3  501    0  0.21495597227E+02 -0.54005799479E+02 -0.54789313661E+01  0.58572995198E+02  0.47000000000E+01 0. -1.
        -13    1    4    4    0    0  0.17314753927E+02  0.19935283565E+02  0.13280432187E+01  0.26438228631E+02  0.00000000000E+00 0.  1.
         14    1    4    4    0    0 -0.81819721972E+02  0.20735950456E+02  0.38916699314E+01  0.84496104287E+02  0.00000000000E+00 0. -1.
         -5    1    5    5    0  502  0.47301760988E+02 -0.31099652386E+02  0.44997007504E+02  0.72466997008E+02  0.47000000000E+01 0.  1.
         13    1    6    6    0    0  0.20612554713E+02  0.50200474619E+02 -0.60039058980E+02  0.80929930600E+02  0.00000000000E+00 0. -1.
        -14    1    6    6    0    0 -0.24904944883E+02 -0.57662567740E+01  0.51939097101E+01  0.26086063231E+02  0.00000000000E+00 0.  1.
</event>
<event>
12    1  0.8500177E-002  0.1922354E+03  0.7818608E-02  0.1156852E+00
         21   -1    0    0  503  502  0.00000000000E+00  0.00000000000E+00  0.43360222575E+03  0.43360222575E+03  0.00000000000E+00 0.  1.
         21   -1    0    0  501  503 -0.00000000000E+00 -0.00000000000E+00 -0.13443526935E+03  0.13443526935E+03  0.00000000000E+00 0.  1.
          6    2    1    2  501    0  0.41988189539E+01  0.82533823221E+02 -0.24030383484E+02  0.19199098390E+03  0.17162055970E+03 0.  0.
         24    2    3    3    0    0 -0.57425491115E+02  0.20320418645E+02 -0.26351164462E+02  0.10426676076E+03  0.80414968055E+02 0.  0.
         -6    2    1    2    0  502 -0.41988189539E+01 -0.82533823221E+02  0.32319733988E+03  0.37604651121E+03  0.17356553814E+03 0.  0.
        -24    2    5    5    0    0 -0.44329853059E+02 -0.48430478223E+02  0.90818355102E+02  0.13772819340E+03  0.80065189313E+02 0.  0.
          5    1    3    3  501    0  0.61624310069E+02  0.62213404575E+02  0.23207809786E+01  0.87724223135E+02  0.47000000000E+01 0. -1.
        -13    1    4    4    0    0 -0.29652110853E+02  0.12794658773E+02 -0.54924342417E+02  0.63715260033E+02  0.00000000000E+00 0.  1.
         14    1    4    4    0    0 -0.27773380263E+02  0.75257598729E+01  0.28573177955E+02  0.40551500728E+02  0.00000000000E+00 0. -1.
         -5    1    5    5    0  502  0.40131034105E+02 -0.34103344997E+02  0.23237898478E+03  0.23831831782E+03  0.47000000000E+01 0.  1.
         11    1    6    6    0    0 -0.77046859929E+01 -0.62053139626E+02  0.42590870738E+02  0.75656702240E+02  0.00000000000E+00 0. -1.
        -12    1    6    6    0    0 -0.36625167066E+02  0.13622661402E+02  0.48227484365E+02  0.62071491157E+02  0.00000000000E+00 0.  1.
</event>
<event>
12    1  0.8500177E-002  0.1859265E+03  0.7818608E-02  0.1162346E+00
         21   -1    0    0  501  502  0.00000000000E+00  0.00000000000E+00  0.75265851978E+02  0.75265851978E+02  0.00000000000E+00 0. -1.
         21   -1    0    0  502  503 -0.00000000000E+00 -0.00000000000E+00 -0.45773982729E+03  0.45773982729E+03  0.00000000000E+00 0.  1.
         -6    2    1    2    0  503  0.44460486001E+02  0.50485664333E+02 -0.18622005250E+03  0.26266468922E+03  0.17259575283E+03 0.  0.
        -24    2    3    3    0    0  0.41224045390E+02  0.90103851247E+02 -0.84739416174E+02  0.15357534588E+03  0.81157207207E+02 0.  0.
          6    2    1    2  501    0 -0.44460486001E+02 -0.50485664333E+02 -0.19625392282E+03  0.27034099004E+03  0.17332948843E+03 0.  0.
         24    2    5    5    0    0 -0.21729588259E+02  0.35146803279E+02 -0.12115958639E+03  0.15410475394E+03  0.85797185413E+02 0.  0.
          5    1    5    5  501    0 -0.22730897742E+02 -0.85632467612E+02 -0.75094336423E+02  0.11623623611E+03  0.47000000000E+01 0. -1.
        -11    1    6    6    0    0  0.83236337887E+01  0.57113980807E+02 -0.67745536476E+02  0.88998580863E+02  0.00000000000E+00 0.  1.
         12    1    6    6    0    0 -0.30053222048E+02 -0.21967177529E+02 -0.53414049916E+02  0.65106173075E+02  0.00000000000E+00 0. -1.
         -5    1    3    3    0  503  0.32364406105E+01 -0.39618186913E+02 -0.10148063632E+03  0.10908934334E+03  0.47000000000E+01 0.  1.
         13    1    4    4    0    0 -0.11766464908E+02  0.67550144629E+02 -0.59152937336E+02  0.90556842543E+02  0.00000000000E+00 0. -1.
        -14    1    4    4    0    0  0.52990510299E+02  0.22553706618E+02 -0.25586478838E+02  0.63018503340E+02  0.00000000000E+00 0.  1.
</event>
<event>
12    1  0.8500177E-002  0.2036882E+03  0.7818608E-02  0.1146795E+00
         21   -1    0    0  501  502  0.00000000000E+00  0.00000000000E+00  0.10369681577E+03  0.10369681577E+03  0.00000000000E+00 0.  1.
         21   -1    0    0  502  503 -0.00000000000E+00 -0.00000000000E+00 -0.84749209864E+03  0.84749209864E+03  0.00000000000E+00 0.  1.
         -6    2    1    2    0  503 -0.73411311244E+02  0.81026628591E+02 -0.71820119742E+03  0.74652652669E+03  0.17185563689E+03 0.  0.
        -24    2    3    3    0    0 -0.10983736301E+03  0.85304967806E+02 -0.64321244792E+03  0.66291693403E+03  0.79971397534E+02 0.  0.
          6    2    1    2  501    0  0.73411311244E+02 -0.81026628591E+02 -0.25594085450E+02  0.20466238772E+03  0.17110552468E+03 0.  0.
         24    2    5    5    0    0 -0.23702102011E+02 -0.25565850399E+02  0.70373896202E+01  0.88069866015E+02  0.80569064168E+02 0.  0.
          5    1    5    5  501    0  0.97113413255E+02 -0.55460778192E+02 -0.32631475070E+02  0.11659252170E+03  0.47000000000E+01 0. -1.
        -13    1    6    6    0    0  0.87154000715E+00  0.23335279537E+02  0.21199306862E+02  0.31538951544E+02  0.00000000000E+00 0.  1.
         14    1    6    6    0    0 -0.24573642018E+02 -0.48901129936E+02 -0.14161917242E+02  0.56530914472E+02  0.00000000000E+00 0. -1.
         -5    1    3    3    0  503  0.36426051769E+02 -0.42783392151E+01 -0.74988749498E+02  0.83609592663E+02  0.47000000000E+01 0.  1.
         11    1    4    4    0    0 -0.42550163958E+02  0.93623149223E+01 -0.84546290331E+02  0.95111747972E+02  0.00000000000E+00 0. -1.
        -12    1    4    4    0    0 -0.67287199055E+02  0.75942652884E+02 -0.55866615759E+03  0.56780518606E+03  0.00000000000E+00 0.  1.
</event>
<event>
12    1  0.8500177E-002  0.1767181E+03  0.7818608E-02  0.1171153E+00
         21   -1    0    0  503  502  0.00000000000E+00  0.00000000000E+00  0.40713807316E+03  0.40713807316E+03  0.00000000000E+00 0. -1.
         21   -1    0    0  501  503 -0.00000000000E+00 -0.00000000000E+00 -0.88459880566E+02  0.88459880566E+02  0.00000000000E+00 0. -1.
          6    2    1    2  501    0 -0.38603779175E+02 -0.52953097933E+01  0.67886466570E+02  0.18879869878E+03  0.17180827758E+03 0.  0.
         24    2    3    3    0    0 -0.96914734794E+02  0.50814900102E+00  0.53278561916E+02  0.12822371584E+03  0.64884451980E+02 0.  0.
         -6    2    1    2    0  502  0.38603779175E+02  0.52953097933E+01  0.25079172603E+03  0.30679925495E+03  0.17236879336E+03 0.  0.
        -24    2    5    5    0    0  0.81250096175E+02 -0.39806189851E+02  0.16864721584E+03  0.20373294534E+03  0.69850688802E+02 0.  0.
          5    1    3    3  501    0  0.58310955619E+02 -0.58034587943E+01  0.14607904654E+02  0.60574982935E+02  0.47000000000E+01 0. -1.
        -13    1    4    4    0    0 -0.29952438261E+02 -0.16450198955E+02  0.48033035793E+02  0.58948537988E+02  0.00000000000E+00 0.  1.
         14    1    4    4    0    0 -0.66962296533E+02  0.16958347956E+02  0.52455261234E+01  0.69275177854E+02  0.00000000000E+00 0. -1.
         -5    1    5    5    0  502 -0.42646317000E+02  0.45101499644E+02  0.82144510183E+02  0.10306630961E+03  0.47000000000E+01 0.  1.
         13    1    6    6    0    0  0.50876583276E+02 -0.51096492779E+02  0.72417113819E+02  0.10219352560E+03  0.00000000000E+00 0. -1.
        -14    1    6    6    0    0  0.30373512900E+02  0.11290302928E+02  0.96230102024E+02  0.10153941974E+03  0.00000000000E+00 0.  1.
</event>
<event>
12    1  0.8500177E-002  0.1862089E+03  0.7818608E-02  0.1161944E+00
         21   -1    0    0  503  502  0.00000000000E+00  0.00000000000E+00  0.11211533266E+04  0.11211533266E+04  0.00000000000E+00 0. -1.
         21   -1    0    0  501  503 -0.00000000000E+00 -0.00000000000E+00 -0.33650685676E+02  0.33650685676E+02  0.00000000000E+00 0. -1.
          6    2    1    2  501    0 -0.58128311361E+02  0.39647178792E+02  0.37897101760E+03  0.42221215211E+03  0.17231735210E+03 0.  0.
         24    2    3    3    0    0 -0.47030913345E+02  0.50675681203E+02  0.38869386566E+03  0.40320152659E+03  0.81906155838E+02 0.  0.
         -6    2    1    2    0  502  0.58128311361E+02 -0.39647178792E+02  0.70853162333E+03  0.73259186018E+03  0.17240351787E+03 0.  0.
        -24    2    5    5    0    0  0.10568710885E+03 -0.27623061959E+02  0.56475238766E+03  0.58060180388E+03  0.78869491997E+02 0.  0.
          5    1    3    3  501    0 -0.11097398016E+02 -0.11028502412E+02 -0.97228480598E+01  0.19010625518E+02  0.47000000000E+01 0. -1.
        -13    1    4    4    0    0 -0.15656693551E+02 -0.19243114242E+02  0.48426811291E+02  0.54411263084E+02  0.00000000000E+00 0.  1.
         14    1    4    4    0    0 -0.31374219794E+02  0.69918795446E+02  0.34026705437E+03  0.34879026351E+03  0.00000000000E+00 0. -1.
         -5    1    5    5    0  502 -0.47558797494E+02 -0.12024116832E+02  0.14377923567E+03  0.15199005630E+03  0.47000000000E+01 0.  1.
         13    1    6    6    0    0  0.26355257381E+02 -0.43102657674E+02  0.28345408695E+03  0.28792127066E+03  0.00000000000E+00 0. -1.
        -14    1    6    6    0    0  0.79331851474E+02  0.15479595715E+02  0.28129830071E+03  0.29268053322E+03  0.00000000000E+00 0.  1.
</event>
<event>
12    1  0.8500177E-002  0.2061905E+03  0.7818608E-02  0.1144650E+00
         21   -1    0    0  501  502  0.00000000000E+00  0.00000000000E+00  0.19326528717E+03  0.19326528717E+03  0.00000000000E+00 0.  1.
         21   -1    0    0  502  503 -0.00000000000E+00 -0.00000000000E+00 -0.28077375761E+03  0.28077375761E+03  0.00000000000E+00 0. -1.
         -6    2    1    2    0  503 -0.44410755587E+02 -0.10422883836E+03 -0.15420625908E+03  0.25747641141E+03  0.17227468223E+03 0.  0.
        -24    2    3    3    0    0 -0.22872857373E+02 -0.60579470941E+02 -0.90224290591E+01  0.10427855622E+03  0.81237756967E+02 0.  0.
          6    2    1    2  501    0  0.44410755587E+02  0.10422883836E+03  0.66697788647E+02  0.21656263337E+03  0.17208954996E+03 0.  0.
         24    2    5    5    0    0 -0.23149057699E+02  0.38739904814E+02 -0.12797462752E+02  0.93295793617E+02  0.80645340574E+02 0.  0.
          5    1    5    5  501    0  0.67559813286E+02  0.65488933547E+02  0.79495251400E+02  0.12326683976E+03  0.47000000000E+01 0. -1.
        -13    1    6    6    0    0 -0.43139805221E+02  0.50082647153E+02  0.16972266936E+01  0.66122574956E+02  0.00000000000E+00 0.  1.
         14    1    6    6    0    0  0.19990747522E+02 -0.11342742339E+02 -0.14494689446E+02  0.27173218661E+02  0.00000000000E+00 0. -1.
         -5    1    3    3    0  503 -0.21537898214E+02 -0.43649367421E+02 -0.14518383003E+03  0.15319785520E+03  0.47000000000E+01 0.  1.
         11    1    4    4    0    0 -0.38707664155E+02 -0.11305365983E+02 -0.28065846242E+02  0.49130299100E+02  0.00000000000E+00 0. -1.
        -12    1    4    4    0    0  0.15834806782E+02 -0.49274104958E+02  0.19043417183E+02  0.55148257119E+02  0.00000000000E+00 0.  1.
</event>
<event>
12    1  0.8500177E-002  0.2208869E+03  0.7818608E-02  0.1133263E+00
         21   -1    0    0  503  502  0.00000000000E+00  0.00000000000E+00  0.94154197107E+02  0.94154197107E+02  0.00000000000E+00 0. -1.
         21   -1    0    0  501  503 -0.00000000000E+00 -0.00000000000E+00 -0.60451879060E+03  0.60451879060E+03  0.00000000000E+00 0.  1.
          6    2    1    2  501    0  0.31790137539E+01  0.13932480752E+03 -0.38767519100E+03  0.44618727447E+03  0.17137538347E+03 0.  0.
         24    2    3    3    0    0  0.48927747010E+02  0.12562680605E+03 -0.35503112358E+03  0.38815015724E+03  0.80233577912E+02 0.  0.
         -6    2    1    2    0  502 -0.31790137539E+01 -0.13932480752E+03 -0.12268940249E+03  0.25248571324E+03  0.17109891230E+03 0.  0.
        -24    2    5    5    0    0  0.33822122421E+02 -0.16073901454E+03 -0.95106819778E+02  0.20139225759E+03  0.67324345434E+02 0.  0.
          5    1    3    3  501    0 -0.45748733256E+02  0.13698001470E+02 -0.32644067418E+02  0.58037117231E+02  0.47000000000E+01 0. -1.
        -11    1    4    4    0    0 -0.81515700498E+01  0.43861265738E+02 -0.19138509179E+03  0.19651593341E+03  0.00000000000E+00 0.  1.
         12    1    4    4    0    0  0.57079317060E+02  0.81765540307E+02 -0.16364603179E+03  0.19163422382E+03  0.00000000000E+00 0. -1.
         -5    1    5    5    0  502 -0.37001136174E+02  0.21414207029E+02 -0.27582582713E+02  0.51093455648E+02  0.47000000000E+01 0.  1.
         13    1    6    6    0    0 -0.57449101840E+01 -0.36823044780E+02  0.45234359095E+01  0.37542004372E+02  0.00000000000E+00 0. -1.
        -14    1    6    6    0    0  0.39567032605E+02 -0.12391596977E+03 -0.99630255687E+02  0.16385025322E+03  0.00000000000E+00 0.  1.
</event>
<event>
12    1  0.8500177E-002  0.1752584E+03  0.7818608E-02  0.1172865E+00
         21   -1    0    0  503  502  0.00000000000E+00  0.00000000000E+00  0.38065544617E+03  0.38065544617E+03  0.00000000000E+00 0.  1.
         21   -1    0    0  501  503 -0.00000000000E+00 -0.00000000000E+00 -0.10635059044E+03  0.10635059044E+03  0.00000000000E+00 0.  1.
          6    2    1    2  501    0 -0.27646707293E+02 -0.35528402326E+01  0.16347792034E+02  0.17601924346E+03  0.17302762978E+03 0.  0.
         24    2    3    3    0    0 -0.83646082539E+02  0.95813994208E+01 -0.79066721965E+01  0.11341886555E+03  0.75583419210E+02 0.  0.
         -6    2    1    2    0  502  0.27646707293E+02  0.35528402326E+01  0.25795706369E+03  0.31098679315E+03  0.17144671389E+03 0.  0.
        -24    2    5    5    0    0 -0.26853584561E+02  0.40224357697E+02  0.20880444416E+03  0.22880922923E+03  0.80095277771E+02 0.  0.
          5    1    3    3  501    0  0.55999375246E+02 -0.13134239653E+02  0.24254464231E+02  0.62600377909E+02  0.47000000000E+01 0. -1.
        -13    1    4    4    0    0 -0.65776630507E+02 -0.23029861650E+02 -0.22850605870E+02  0.73342278647E+02  0.00000000000E+00 0.  1.
         14    1    4    4    0    0 -0.17869452032E+02  0.32611261071E+02  0.14943933674E+02  0.40076586908E+02  0.00000000000E+00 0. -1.
         -5    1    5    5    0  502  0.54500291854E+02 -0.36671517464E+02  0.49152619529E+02  0.82177563920E+02  0.47000000000E+01 0.  1.
         11    1    6    6    0    0 -0.37113881895E+02 -0.61127372280E+01  0.47055613265E+02  0.60241485087E+02  0.00000000000E+00 0. -1.
        -12    1    6    6    0    0  0.10260297334E+02  0.46337094925E+02  0.16174883090E+03  0.16856774414E+03  0.00000000000E+00 0.  1.
</event>
<event>
12    1  0.8500177E-002  0.1974529E+03  0.7818608E-02  0.1152441E+00
         21   -1    0    0  501  502  0.00000000000E+00  0.00000000000E+00  0.39626514421E+03  0.39626514421E+03  0.00000000000E+00 0. -1.
         21   -1    0    0  502  503 -0.00000000000E+00 -0.00000000000E+00 -0.18355532744E+03  0.18355532744E+03  0.00000000000E+00 0. -1.
         -6    2    1    2    0  503 -0.27480453411E+02 -0.87765470541E+02  0.30560843139E+03  0.36384632377E+03  0.17472744731E+03 0.  0.
        -24    2    3    3    0    0 -0.59327127998E+02 -0.52480105008E+02  0.91020365798E+02  0.14400684688E+03  0.78609130645E+02 0.  0.
          6    2    1    2  501    0  0.27480453411E+02  0.87765470541E+02 -0.92898614622E+02  0.21597414787E+03  0.17192069919E+03 0.  0.
         24    2    5    5    0    0  0.48378617594E+02  0.10056299245E+03 -0.19840808622E+02  0.13877283408E+03  0.80067694498E+02 0.  0.
          5    1    5    5  501    0 -0.20898164183E+02 -0.12797521907E+02 -0.73057806000E+02  0.77201313789E+02  0.47000000000E+01 0. -1.
        -13    1    6    6    0    0  0.47530176076E+02  0.31770178258E+02  0.18403350317E+02  0.60059513545E+02  0.00000000000E+00 0.  1.
         14    1    6    6    0    0  0.84844151857E+00  0.68792814190E+02 -0.38244158939E+02  0.78713320538E+02  0.00000000000E+00 0. -1.
         -5    1    3    3    0  503  0.31846674587E+02 -0.35285365533E+02  0.21458806560E+03  0.21983947689E+03  0.47000000000E+01 0.  1.
         13    1    4    4    0    0 -0.13395042648E+02 -0.52970597978E+02  0.17602892352E+02  0.57403599511E+02  0.00000000000E+00 0. -1.
        -14    1    4    4    0    0 -0.45932085350E+02  0.49049297000E+00  0.73417473446E+02  0.86603247370E+02  0.00000000000E+00 0.  1.
</event>
<event>
12    1  0.8500177E-002  0.1801219E+03  0.7818608E-02  0.1167744E+00
         21   -1    0    0  503  502  0.00000000000E+00  0.00000000000E+00  0.12530485242E+03  0.12530485242E+03  0.00000000000E+00 0. -1.
         21   -1    0    0  501  503 -0.00000000000E+00 -0.00000000000E+00 -0.26831223666E+03  0.26831223666E+03  0.00000000000E+00 0.  1.
          6    2    1    2  501    0 -0.18933441657E+02  0.48343533655E+02 -0.10905246431E+03  0.21056197166E+03  0.17247704623E+03 0.  0.
         24    2    3    3    0    0 -0.15880087632E+02 -0.21249353019E+02 -0.11286091617E+03  0.14063996402E+03  0.79613446685E+02 0.  0.
         -6    2    1    2    0  502  0.18933441657E+02 -0.48343533655E+02 -0.33954919930E+02  0.18305511743E+03  0.17222272490E+03 0.  0.
        -24    2    5    5    0    0  0.62584420684E+02 -0.77018057423E+02 -0.13890766305E+02  0.12690980112E+03  0.77875242215E+02 0.  0.
          5    1    3    3  501    0 -0.30533540249E+01  0.69592886674E+02  0.38084518626E+01  0.69922007637E+02  0.47000000000E+01 0. -1.
        -11    1    4    4    0    0 -0.28767683412E+02  0.19405636270E+02 -0.24356800657E+02  0.42395896808E+02  0.00000000000E+00 0.  1.
         12    1    4    4    0    0  0.12887595780E+02 -0.40654989288E+02 -0.88504115514E+02  0.98244067210E+02  0.00000000000E+00 0. -1.
         -5    1    5    5    0  502 -0.43650979026E+02  0.28674523768E+02 -0.20064153625E+02  0.56145316314E+02  0.47000000000E+01 0.  1.
         11    1    6    6    0    0  0.56422076057E+02 -0.63137788170E+02 -0.42332724110E+02  0.94667261988E+02  0.00000000000E+00 0. -1.
        -12    1    6    6    0    0  0.61623446261E+01 -0.13880269253E+02  0.28441957805E+02  0.32242539131E+02  0.00000000000E+00 0.  1.
</event>
<event>
12    1  0.8500177E-002  0.1789475E+03  0.7818608E-02  0.1170853E+00
         21   -1    0    0  503  502  0.00000000000E+00  0.00000000000E+00  0.21771850137E+04  0.21771850137E+04  0.00000000000E+00 0. -1.
         21   -1    0    0  501  503 -0.00000000000E+00 -0.00000000000E+00 -0.35907015292E+02  0.35907015292E+02  0.00000000000E+00 0. -1.
          6    2    1    2  501    0 -0.14826203217E+02  0.42565975860E+02  0.21709589827E+03  0.28134113869E+03  0.17317773722E+03 0.  0.
         24    2    3    3    0    0  0.46658413990E+01 -0.18287827701E+02  0.19801177676E+03  0.21448742597E+03  0.80249470042E+02 0.  0.
         -6    2    1    2    0  502  0.14826203217E+02 -0.42565975860E+02  0.19241821001E+04  0.19317508903E+04  0.16478188339E+03 0.  0.
        -24    2    5    5    0    0 -0.50955962505E+02 -0.34117512762E+02  0.13192050905E+04  0.13231311880E+04  0.81323766724E+02 0.  0.
          5    1    3    3  501    0 -0.19492044616E+02  0.60853803561E+02  0.19084121508E+02  0.66853712723E+02  0.47000000000E+01 0. -1.
        -13    1    4    4    0    0  0.11402974446E+02  0.30317020620E+02  0.63076067970E+02  0.70906557637E+02  0.00000000000E+00 0.  1.
         14    1    4    4    0    0 -0.67371330471E+01 -0.48604848321E+02  0.13493570879E+03  0.14358086833E+03  0.00000000000E+00 0. -1.
         -5    1    5    5    0  502  0.65782165722E+02 -0.84484630986E+01  0.60497700959E+03  0.60861970227E+03  0.47000000000E+01 0.  1.
         11    1    6    6    0    0  0.10815528780E+02  0.17483954494E+02  0.34171550365E+03  0.34233338979E+03  0.00000000000E+00 0. -1.
        -12    1    6    6    0    0 -0.61771491285E+02 -0.51601467255E+02  0.97748958689E+03  0.98079779825E+03  0.00000000000E+00 0.  1.
</event>
<event>
12    1  0.8500177E-002  0.2298669E+03  0.7818608E-02  0.1126760E+00
         21   -1    0    0  503  502  0.00000000000E+00  0.00000000000E+00  0.23347153673E+03  0.23347153673E+03  0.00000000000E+00 0. -1.
         21   -1    0    0  501  503 -0.00000000000E+00 -0.00000000000E+00 -0.59762864598E+03  0.59762864598E+03  0.00000000000E+00 0. -1.
          6    2    1    2  501    0 -0.44447500290E+02 -0.14522815315E+03 -0.50967091471E+03  0.55904680306E+03  0.17234294290E+03 0.  0.
         24    2    3    3    0    0 -0.94705081786E+02 -0.12232840575E+03 -0.40552566541E+03  0.44106991601E+03  0.78474926758E+02 0.  0.
         -6    2    1    2    0  502  0.44447500290E+02  0.14522815315E+03  0.14551380546E+03  0.27205337965E+03  0.17254557964E+03 0.  0.
        -24    2    5    5    0    0  0.64805637497E+02  0.16116400103E+03  0.15311665115E+03  0.24469833878E+03  0.79113603544E+02 0.  0.
          5    1    3    3  501    0  0.50257581496E+02 -0.22899747398E+02 -0.10414524929E+03  0.11797688706E+03  0.47000000000E+01 0. -1.
        -11    1    4    4    0    0 -0.98869216185E+02 -0.11982362793E+03 -0.32314848778E+03  0.35854953475E+03  0.00000000000E+00 0.  1.
         12    1    4    4    0    0  0.41641343984E+01 -0.25047778183E+01 -0.82377177634E+02  0.82520381253E+02  0.00000000000E+00 0. -1.
         -5    1    5    5    0  502 -0.20358137207E+02 -0.15935847884E+02 -0.76028456937E+01  0.27355040869E+02  0.47000000000E+01 0.  1.
         13    1    6    6    0    0 -0.33491427458E+01  0.66111521879E+02  0.90212934870E+02  0.11189425231E+03  0.00000000000E+00 0. -1.
        -14    1    6    6    0    0  0.68154780242E+02  0.95052479150E+02  0.62903716280E+02  0.13280408647E+03  0.00000000000E+00 0.  1.
</event>
<event>
12    1  0.8500177E-002  0.1904712E+03  0.7818608E-02  0.1159475E+00
         21   -1    0    0  503  502  0.00000000000E+00  0.00000000000E+00  0.19867764689E+03  0.19867764689E+03  0.00000000000E+00 0. -1.
         21   -1    0    0  501  503 -0.00000000000E+00 -0.00000000000E+00 -0.26195567154E+03  0.26195567154E+03  0.00000000000E+00 0. -1.
          6    2    1    2  501    0 -0.11646807800E+02 -0.63390271283E+02 -0.16343266367E+03  0.25097713639E+03  0.17923535592E+03 0.  0.
         24    2    3    3    0    0 -0.25592793074E+02  0.29789633506E+02 -0.44308717192E+02  0.99024545806E+02  0.79373704279E+02 0.  0.
         -6    2    1    2    0  502  0.11646807800E+02  0.63390271283E+02  0.10015463901E+03  0.20965618204E+03  0.17254213493E+03 0.  0.
        -24    2    5    5    0    0 -0.57377453109E+02  0.10881262908E+02  0.59996315012E+02  0.11396749127E+03  0.77320483981E+02 0.  0.
          5    1    3    3  501    0  0.13945985274E+02 -0.93179904790E+02 -0.11912394648E+03  0.15195259059E+03  0.47000000000E+01 0. -1.
        -13    1    4    4    0    0  0.25986946009E+01  0.34210576019E+02  0.11630820877E+02  0.36226961223E+02  0.00000000000E+00 0.  1.
         14    1    4    4    0    0 -0.28191487674E+02 -0.44209425126E+01 -0.55939538070E+02  0.62797584583E+02  0.00000000000E+00 0. -1.
         -5    1    5    5    0  502  0.69024260909E+02  0.52509008376E+02  0.40158323999E+02  0.95688690769E+02  0.47000000000E+01 0.  1.
         13    1    6    6    0    0 -0.16335993655E+02  0.41813058301E+02  0.21609387646E+02  0.49821302348E+02  0.00000000000E+00 0. -1.
        -14    1    6    6    0    0 -0.41041459454E+02 -0.30931795393E+02  0.38386927366E+02  0.64146188920E+02  0.00000000000E+00 0.  1.
</event>
<event>
12    1  0.8500177E-002  0.1948817E+03  0.7818608E-02  0.1154504E+00
         21   -1    0    0  503  502  0.00000000000E+00  0.00000000000E+00  0.14591943947E+03  0.14591943947E+03  0.00000000000E+00 0.  1.
         21   -1    0    0  501  503 -0.00000000000E+00 -0.00000000000E+00 -0.27937833718E+03  0.27937833718E+03  0.00000000000E+00 0. -1.
          6    2    1    2  501    0  0.85345124774E+02  0.23293215041E+02 -0.12527873888E+03  0.23024446037E+03  0.17173055910E+03 0.  0.
         24    2    3    3    0    0  0.20480078626E+02 -0.17716736160E+02 -0.20481168111E+01  0.84995823463E+02  0.80540541735E+02 0.  0.
         -6    2    1    2    0  502 -0.85345124774E+02 -0.23293215041E+02 -0.81801588372E+01  0.19505331628E+03  0.17364480125E+03 0.  0.
        -24    2    5    5    0    0 -0.40595100270E+02 -0.50722016956E+01 -0.71885826997E+02  0.11495917057E+03  0.79839522666E+02 0.  0.
          5    1    3    3  501    0  0.64865046148E+02  0.41009951201E+02 -0.12323062207E+03  0.14524863691E+03  0.47000000000E+01 0. -1.
        -11    1    4    4    0    0  0.91460068168E+00 -0.40452060942E+02 -0.24702489955E+02  0.47406948212E+02  0.00000000000E+00 0.  1.
         12    1    4    4    0    0  0.19565477944E+02  0.22735324782E+02  0.22654373144E+02  0.37588875251E+02  0.00000000000E+00 0. -1.
         -5    1    5    5    0  502 -0.44750024504E+02 -0.18221013345E+02  0.63705668160E+02  0.80094145705E+02  0.47000000000E+01 0.  1.
         13    1    6    6    0    0 -0.38637868290E+02  0.31352516127E+02 -0.25388185017E+02  0.55860765050E+02  0.00000000000E+00 0. -1.
        -14    1    6    6    0    0 -0.19572319793E+01 -0.36424717823E+02 -0.46497641980E+02  0.59098405521E+02  0.00000000000E+00 0.  1.
</event>
<event>
12    1  0.8500177E-002  0.2410896E+03  0.7818608E-02  0.1119107E+00
         21   -1    0    0  501  502  0.00000000000E+00  0.00000000000E+00  0.76609730721E+02  0.76609730721E+02  0.00000000000E+00 0. -1.
         21   -1    0    0  502  503 -0.00000000000E+00 -0.00000000000E+00 -0.95447229518E+03  0.95447229518E+03  0.00000000000E+00 0.  1.
         -6    2    1    2    0  503  0.14049511827E+03 -0.92931223470E+02 -0.67267458494E+03  0.71449663486E+03  0.17216054558E+03 0.  0.
        -24    2    3    3    0    0  0.11817957894E+03  0.24011554045E+01 -0.42471407979E+03  0.44786440149E+03  0.78919542123E+02 0.  0.
          6    2    1    2  501    0 -0.14049511827E+03  0.92931223470E+02 -0.20518797952E+03  0.31658539104E+03  0.17247930985E+03 0.  0.
         24    2    5    5    0    0 -0.70774062563E+02  0.11025307472E+03 -0.17911641842E+03  0.24001589033E+03  0.91434281581E+02 0.  0.
          5    1    5    5  501    0 -0.69721055707E+02 -0.17321851253E+02 -0.26071561104E+02  0.76569500704E+02  0.47000000000E+01 0. -1.
        -11    1    6    6    0    0 -0.26244877071E+02  0.37982469312E+02 -0.13834433748E+03  0.14584449685E+03  0.00000000000E+00 0.  1.
         12    1    6    6    0    0 -0.44529185492E+02  0.72270605411E+02 -0.40772080933E+02  0.94171393484E+02  0.00000000000E+00 0. -1.
         -5    1    3    3    0  503  0.22315539331E+02 -0.95332378875E+02 -0.24796050515E+03  0.26663223337E+03  0.47000000000E+01 0.  1.
         13    1    4    4    0    0  0.72576616077E+02  0.29656391206E+02 -0.16380159242E+03  0.18159798572E+03  0.00000000000E+00 0. -1.
        -14    1    4    4    0    0  0.45602962861E+02 -0.27255235801E+02 -0.26091248737E+03  0.26626641577E+03  0.00000000000E+00 0.  1.
</event>
<event>
12    1  0.8500177E-002  0.2033235E+03  0.7818608E-02  0.1147524E+00
         21   -1    0    0  503  502  0.00000000000E+00  0.00000000000E+00  0.33249884522E+03  0.33249884522E+03  0.00000000000E+00 0.  1.
         21   -1    0    0  501  503 -0.00000000000E+00 -0.00000000000E+00 -0.12405145961E+03  0.12405145961E+03  0.00000000000E+00 0.  1.
          6    2    1    2  501    0  0.15989190250E+02  0.10108149845E+03  0.79668062137E+02  0.21587507469E+03  0.17257440197E+03 0.  0.
         24    2    3    3    0    0 -0.29594338148E+02  0.58219995369E+02  0.99416690894E+02  0.15009464564E+03  0.91538688606E+02 0.  0.
         -6    2    1    2    0  502 -0.15989190250E+02 -0.10108149845E+03  0.12877932347E+03  0.24067523013E+03  0.17569100350E+03 0.  0.
        -24    2    5    5    0    0 -0.13021457155E+02 -0.12156796731E+03  0.43169279397E+02  0.15247277839E+03  0.80224886694E+02 0.  0.
          5    1    3    3  501    0  0.45583528398E+02  0.42861503085E+02 -0.19748628756E+02  0.65780429047E+02  0.47000000000E+01 0. -1.
        -13    1    4    4    0    0 -0.63199733789E+01  0.35495107521E+02 -0.87857668574E+01  0.37108414419E+02  0.00000000000E+00 0.  1.
         14    1    4    4    0    0 -0.23274364769E+02  0.22724887847E+02  0.10820245775E+03  0.11298623122E+03  0.00000000000E+00 0. -1.
         -5    1    5    5    0  502 -0.29677330949E+01  0.20486468857E+02  0.85610044076E+02  0.88202451738E+02  0.47000000000E+01 0.  1.
         11    1    6    6    0    0  0.16363891940E+02 -0.22546226450E+00 -0.71561824691E+01  0.17861655584E+02  0.00000000000E+00 0. -1.
        -12    1    6    6    0    0 -0.29385349095E+02 -0.12134250505E+03  0.50325461866E+02  0.13461112281E+03  0.00000000000E+00 0.  1.
</event>
<event>
12    1  0.8500177E-002  0.1924345E+03  0.7818608E-02  0.1156483E+00
         21   -1    0    0  503  502  0.00000000000E+00  0.00000000000E+00  0.13911132777E+03  0.13911132777E+03  0.00000000000E+00 0. -1.
         21   -1    0    0  501  503 -0.00000000000E+00 -0.00000000000E+00 -0.26613182273E+03  0.26613182273E+03  0.00000000000E+00 0. -1.
          6    2    1    2  501    0  0.64607684053E+02 -0.53402835119E+02 -0.50206473815E+02  0.19887613465E+03  0.17321954648E+03 0.  0.
         24    2    3    3    0    0  0.20232704835E+02  0.31113002159E+02 -0.54081218099E+02  0.10322484520E+03  0.79707021438E+02 0.  0.
         -6    2    1    2    0  502 -0.64607684053E+02  0.53402835119E+02 -0.76814021140E+02  0.20636701585E+03  0.17222350522E+03 0.  0.
        -24    2    5    5    0    0 -0.54947145640E+02  0.83896205143E+02 -0.10338821039E+03  0.16451669743E+03  0.79491255086E+02 0.  0.
          5    1    3    3  501    0  0.44374979218E+02 -0.84515837278E+02  0.38747442838E+01  0.95651289456E+02  0.47000000000E+01 0. -1.
        -13    1    4    4    0    0 -0.27224666308E+02 -0.49166627545E+01 -0.23242281698E+02  0.36132529482E+02  0.00000000000E+00 0.  1.
         14    1    4    4    0    0  0.47457371144E+02  0.36029664914E+02 -0.30838936401E+02  0.67092315715E+02  0.00000000000E+00 0. -1.
         -5    1    5    5    0  502 -0.96605384126E+01 -0.30493370024E+02  0.26574189247E+02  0.41850318421E+02  0.47000000000E+01 0.  1.
         11    1    6    6    0    0 -0.27248972331E+02  0.72539279184E+02 -0.26316489587E+02  0.81835268325E+02  0.00000000000E+00 0. -1.
        -12    1    6    6    0    0 -0.27698173310E+02  0.11356925959E+02 -0.77071720801E+02  0.82681429107E+02  0.00000000000E+00 0.  1.
</event>
<event>
12    1  0.8500177E-002  0.1876861E+03  0.7818608E-02  0.1162979E+00
         21   -1    0    0  503  502  0.00000000000E+00  0.00000000000E+00  0.34642313256E+02  0.34642313256E+02  0.00000000000E+00 0.  1.
         21   -1    0    0  501  503 -0.00000000000E+00 -0.00000000000E+00 -0.99585563937E+03  0.99585563937E+03  0.00000000000E+00 0.  1.
          6    2    1    2  501    0  0.20000930962E+02 -0.73348148337E+02 -0.58829239039E+03  0.61750628260E+03  0.17159861409E+03 0.  0.
         24    2    3    3    0    0 -0.24065788322E+02 -0.71809597497E+02 -0.21151666390E+03  0.23813010917E+03  0.78935855795E+02 0.  0.
         -6    2    1    2    0  502 -0.20000930962E+02  0.73348148337E+02 -0.37292093572E+03  0.41299167002E+03  0.16034995200E+03 0.  0.
        -24    2    5    5    0    0  0.38956646000E+01  0.44691285881E+02 -0.36263902405E+03  0.37400358527E+03  0.79744170892E+02 0.  0.
          5    1    3    3  501    0  0.44066719284E+02 -0.15385508402E+01 -0.37677572650E+03  0.37937617343E+03  0.47000000000E+01 0. -1.
        -11    1    4    4    0    0  0.28125995527E+02 -0.17650621850E+02 -0.80131270294E+02  0.86738898742E+02  0.00000000000E+00 0.  1.
         12    1    4    4    0    0 -0.52191783849E+02 -0.54158975647E+02 -0.13138539360E+03  0.15139121043E+03  0.00000000000E+00 0. -1.
         -5    1    5    5    0  502 -0.23896595562E+02  0.28656862456E+02 -0.10281911669E+02  0.38988084755E+02  0.47000000000E+01 0.  1.
         13    1    6    6    0    0  0.35117710954E+01 -0.80238369497E+01 -0.13181602758E+01  0.88573157410E+01  0.00000000000E+00 0. -1.
        -14    1    6    6    0    0  0.38389350461E+00  0.52715122831E+02 -0.36132086377E+03  0.36514626952E+03  0.00000000000E+00 0.  1.
</event>
<event>
12    1  0.8500177E-002  0.1903252E+03  0.7818608E-02  0.1158434E+00
         21   -1    0    0  503  502  0.00000000000E+00  0.00000000000E+00  0.97066077286E+03  0.97066077286E+03  0.00000000000E+00 0.  1.
         21   -1    0    0  501  503 -0.00000000000E+00 -0.00000000000E+00 -0.49136384296E+02  0.49136384296E+02  0.00000000000E+00 0.  1.
          6    2    1    2  501    0 -0.23494934316E+02  0.74223241063E+02  0.20719257025E+03  0.28054507598E+03  0.17238235709E+03 0.  0.
         24    2    3    3    0    0 -0.21229830416E+01  0.10840950155E+03  0.10574428312E+03  0.17127794611E+03  0.79982212575E+02 0.  0.
         -6    2    1    2    0  502  0.23494934316E+02 -0.74223241063E+02  0.71433181832E+03  0.73925208118E+03  0.17367380750E+03 0.  0.
        -24    2    5    5    0    0 -0.27077428880E+02 -0.98942882489E+02  0.39742016910E+03  0.41734571591E+03  0.75576283512E+02 0.  0.
          5    1    3    3  501    0 -0.21371951275E+02 -0.34186260491E+02  0.10144828713E+03  0.10926712986E+03  0.47000000000E+01 0. -1.
        -11    1    4    4    0    0  0.13972699150E+02  0.79772290689E+02  0.26041457466E+02  0.85070630598E+02  0.00000000000E+00 0.  1.
         12    1    4    4    0    0 -0.16095682192E+02  0.28637210865E+02  0.79702825654E+02  0.86207315516E+02  0.00000000000E+00 0. -1.
         -5    1    5    5    0  502  0.50572363196E+02  0.24719641427E+02  0.31691164922E+03  0.32190636527E+03  0.47000000000E+01 0.  1.
         11    1    6    6    0    0 -0.35565307763E+02 -0.43180146001E+02  0.99631572477E+02  0.11426227006E+03  0.00000000000E+00 0. -1.
        -12    1    6    6    0    0  0.84878788836E+01 -0.55762736488E+02  0.29778859663E+03  0.30308344585E+03  0.00000000000E+00 0.  1.
</event>
<event>
12    1  0.8500177E-002  0.1764714E+03  0.7818608E-02  0.1171484E+00
         21   -1    0    0  501  502  0.00000000000E+00  0.00000000000E+00  0.28805260450E+03  0.28805260450E+03  0.00000000000E+00 0. -1.
         21   -1    0    0  502  503 -0.00000000000E+00 -0.00000000000E+00 -0.15349951557E+03  0.15349951557E+03  0.00000000000E+00 0. -1.
         -6    2    1    2    0  503 -0.18881249396E+02  0.26432632428E+02 -0.53373000623E+02  0.18436598197E+03  0.17345590932E+03 0.  0.
        -24    2    3    3    0    0  0.46723993703E+02  0.23500386039E+02 -0.65794353713E+02  0.11736578792E+03  0.81917223230E+02 0.  0.
          6    2    1    2  501    0  0.18881249396E+02 -0.26432632428E+02  0.18792608956E+03  0.25718613810E+03  0.17254943888E+03 0.  0.
         24    2    5    5    0    0  0.36729309104E+02 -0.56952064694E+02  0.49834429572E+02  0.11456290879E+03  0.77772809382E+02 0.  0.
          5    1    5    5  501    0 -0.17848059708E+02  0.30519432265E+02  0.13809165999E+03  0.14262322931E+03  0.47000000000E+01 0. -1.
        -11    1    6    6    0    0 -0.15461835986E+01  0.23058182018E+01 -0.17096001350E+02  0.17319952178E+02  0.00000000000E+00 0.  1.
         12    1    6    6    0    0  0.38275492702E+02 -0.59257882895E+02  0.66930430922E+02  0.97242956610E+02  0.00000000000E+00 0. -1.
         -5    1    3    3    0  503 -0.65605243099E+02  0.29322463890E+01  0.12421353090E+02  0.67000194056E+02  0.47000000000E+01 0.  1.
         11    1    4    4    0    0  0.24890256337E+01 -0.54440376384E+01 -0.64200143114E+02  0.64478610176E+02  0.00000000000E+00 0. -1.
        -12    1    4    4    0    0  0.44234968069E+02  0.28944423678E+02 -0.15942105990E+01  0.52887177742E+02  0.00000000000E+00 0.  1.
</event>
<event>
12    1  0.8500177E-002  0.2597088E+03  0.7818608E-02  0.1107466E+00
         21   -1    0    0  501  502  0.00000000000E+00  0.00000000000E+00  0.53024990115E+03  0.53024990115E+03  0.00000000000E+00 0.  1.
         21   -1    0    0  502  503 -0.00000000000E+00 -0.00000000000E+00 -0.17243046073E+03  0.17243046073E+03  0.00000000000E+00 0.  1.
         -6    2    1    2    0  503  0.18367839444E+03  0.61122597141E+02 -0.17338630555E+01  0.25971454781E+03  0.17313265318E+03 0.  0.
        -24    2    3    3    0    0  0.77532738913E+02  0.37425457018E+02 -0.67048408578E+02  0.13276363409E+03  0.75622106611E+02 0.  0.
          6    2    1    2  501    0 -0.18367839444E+03 -0.61122597141E+02  0.35955330347E+03  0.44296581407E+03  0.17165782805E+03 0.  0.
         24    2    5    5    0    0 -0.20231853250E+03 -0.46388238747E+02  0.35436901256E+03  0.41819641891E+03  0.78906212897E+02 0.  0.
          5    1    5    5  501    0  0.18640138068E+02 -0.14734358394E+02  0.51842909147E+01  0.24769395163E+02  0.47000000000E+01 0. -1.
        -11    1    6    6    0    0 -0.14127976789E+03 -0.68127574443E+02  0.26216409769E+03  0.30550180578E+03  0.00000000000E+00 0.  1.
         12    1    6    6    0    0 -0.61038764619E+02  0.21739335696E+02  0.92204914865E+02  0.11269461313E+03  0.00000000000E+00 0. -1.
         -5    1    3    3    0  503  0.10614565552E+03  0.23697140123E+02  0.65314545522E+02  0.12695091372E+03  0.47000000000E+01 0.  1.
         13    1    4    4    0    0  0.43548955376E+02  0.45071115443E+02 -0.66295703918E+01  0.63022759105E+02  0.00000000000E+00 0. -1.
        -14    1    4    4    0    0  0.33983783537E+02 -0.76456584255E+01 -0.60418838186E+02  0.69740874987E+02  0.00000000000E+00 0.  1.
</event>
<event>
12    1  0.8500177E-002  0.1849760E+03  0.7818608E-02  0.1163681E+00
         21   -1    0    0  501  502  0.00000000000E+00  0.00000000000E+00  0.11182299129E+03  0.11182299129E+03  0.00000000000E+00 0. -1.
         21   -1    0    0  502  503 -0.00000000000E+00 -0.00000000000E+00 -0.35625570325E+03  0.35625570325E+03  0.00000000000E+00 0. -1.
         -6    2    1    2    0  503 -0.24291353228E+02  0.53741724436E+02 -0.21451431248E+03  0.28325345996E+03  0.17532224484E+03 0.  0.
        -24    2    3    3    0    0  0.28368845698E+02 -0.27180677647E+02 -0.10313542011E+03  0.13577844725E+03  0.79090398986E+02 0.  0.
          6    2    1    2  501    0  0.24291353228E+02 -0.53741724436E+02 -0.29918399479E+02  0.18482523458E+03  0.17258914776E+03 0.  0.
         24    2    5    5    0    0  0.59866993826E+02  0.15615276824E+02 -0.99806287808E+00  0.10155161513E+03  0.80522298687E+02 0.  0.
          5    1    5    5  501    0 -0.35575640598E+02 -0.69357001260E+02 -0.28920336601E+02  0.83273619453E+02  0.47000000000E+01 0. -1.
        -13    1    6    6    0    0  0.76830256192E+01 -0.41336484670E+01 -0.35094286956E+02  0.36162479302E+02  0.00000000000E+00 0.  1.
         14    1    6    6    0    0  0.52183968207E+02  0.19748925291E+02  0.34096224077E+02  0.65389135828E+02  0.00000000000E+00 0. -1.
         -5    1    3    3    0  503 -0.52660198926E+02  0.80922402082E+02 -0.11137889237E+03  0.14747501271E+03  0.47000000000E+01 0.  1.
         11    1    4    4    0    0 -0.11441292224E+02 -0.42777584060E+02 -0.40958687985E+02  0.60319474361E+02  0.00000000000E+00 0. -1.
        -12    1    4    4    0    0  0.39810137923E+02  0.15596906413E+02 -0.62176732128E+02  0.75458972887E+02  0.00000000000E+00 0.  1.
</event>
<event>
12    1  0.8500177E-002  0.3071705E+03  0.7818608E-02  0.1081716E+00
         21   -1    0    0  503  502  0.00000000000E+00  0.00000000000E+00  0.66883290781E+02  0.66883290781E+02  0.00000000000E+00 0. -1.
         21   -1    0    0  501  503 -0.00000000000E+00 -0.00000000000E+00 -0.14490487566E+04  0.14490487566E+04  0.00000000000E+00 0. -1.
          6    2    1    2  501    0  0.24480916573E+03  0.69654545457E+02 -0.56751131239E+03  0.64530829422E+03  0.17196052329E+03 0.  0.
         24    2    3    3    0    0  0.53623892398E+02  0.53132701338E+02 -0.26003510129E+03  0.28283279096E+03  0.81716142541E+02 0.  0.
         -6    2    1    2    0  502 -0.24480916573E+03 -0.69654545457E+02 -0.81465415342E+03  0.87062375315E+03  0.17187508994E+03 0.  0.
        -24    2    5    5    0    0 -0.20240401925E+03 -0.10901062651E+03 -0.58302043830E+03  0.63182809670E+03  0.80269599447E+02 0.  0.
          5    1    3    3  501    0  0.19118527333E+03  0.16521844119E+02 -0.30747621110E+03  0.36247550326E+03  0.47000000000E+01 0. -1.
        -11    1    4    4    0    0  0.32128582975E+02 -0.28380643838E+01 -0.17980359420E+03  0.18267356935E+03  0.00000000000E+00 0.  1.
         12    1    4    4    0    0  0.21495309422E+02  0.55970765722E+02 -0.80231507090E+02  0.10015922161E+03  0.00000000000E+00 0. -1.
         -5    1    5    5    0  502 -0.42405146475E+02  0.39356081051E+02 -0.23163371511E+03  0.23879565645E+03  0.47000000000E+01 0.  1.
         11    1    6    6    0    0 -0.12783832174E+03 -0.65593837666E+02 -0.45733562764E+03  0.47937570272E+03  0.00000000000E+00 0. -1.
        -12    1    6    6    0    0 -0.74565697516E+02 -0.43416788843E+02 -0.12568481066E+03  0.15245239398E+03  0.00000000000E+00 0.  1.
</event>
<event>
12    1  0.8500177E-002  0.2396595E+03  0.7818608E-02  0.1120183E+00
         21   -1    0    0  501  502  0.00000000000E+00  0.00000000000E+00  0.17524963710E+03  0.17524963710E+03  0.00000000000E+00 0. -1.
         21   -1    0    0  502  503 -0.00000000000E+00 -0.00000000000E+00 -0.35277441573E+03  0.35277441573E+03  0.00000000000E+00 0.  1.
         -6    2    1    2    0  503 -0.14836523778E+03  0.74013570084E+02 -0.16756064865E+02  0.24024457787E+03  0.17305039482E+03 0.  0.
        -24    2    3    3    0    0 -0.85008852250E+02  0.62316879115E+02  0.56024756534E+02  0.14293074468E+03  0.78616321750E+02 0.  0.
          6    2    1    2  501    0  0.14836523778E+03 -0.74013570084E+02 -0.16076871377E+03  0.28777947496E+03  0.17169797478E+03 0.  0.
         24    2    5    5    0    0  0.15521742030E+03 -0.51111796481E+02 -0.18054179728E+03  0.25640259700E+03  0.80262618176E+02 0.  0.
          5    1    5    5  501    0 -0.68521825223E+01 -0.22901773604E+02  0.19773083507E+02  0.31376877966E+02  0.47000000000E+01 0. -1.
        -13    1    6    6    0    0  0.19290996738E+02 -0.41452668246E+02 -0.42260421648E+02  0.62260818319E+02  0.00000000000E+00 0.  1.
         14    1    6    6    0    0  0.13592642357E+03 -0.96591282342E+01 -0.13828137563E+03  0.19414177868E+03  0.00000000000E+00 0. -1.
         -5    1    3    3    0  503 -0.63356385531E+02  0.11696690969E+02 -0.72780821398E+02  0.97313833193E+02  0.47000000000E+01 0.  1.
         13    1    4    4    0    0 -0.13090698953E+02 -0.31167890358E+01  0.42725888811E+02  0.44794891982E+02  0.00000000000E+00 0. -1.
        -14    1    4    4    0    0 -0.71918153296E+02  0.65433668151E+02  0.13298867723E+02  0.98135852693E+02  0.00000000000E+00 0.  1.
</event>
<event>
12    1  0.8500177E-002  0.2679521E+03  0.7818608E-02  0.1104135E+00
         21   -1    0    0  501  502  0.00000000000E+00  0.00000000000E+00  0.14027607454E+03  0.14027607454E+03  0.00000000000E+00 0.  1.
         21   -1    0    0  502  503 -0.00000000000E+00 -0.00000000000E+00 -0.52595229944E+03  0.52595229944E+03  0.00000000000E+00 0. -1.
         -6    2    1    2    0  503  0.16488238765E+03 -0.12446538121E+03 -0.27554028235E+03  0.37652467472E+03  0.15221875901E+03 0.  0.
        -24    2    3    3    0    0  0.14007770165E+03 -0.35241659768E+02 -0.13421048896E+03  0.20749111173E+03  0.64624832832E+02 0.  0.
          6    2    1    2  501    0 -0.16488238765E+03  0.12446538121E+03 -0.11013594255E+03  0.28970369926E+03  0.17064722278E+03 0.  0.
         24    2    5    5    0    0 -0.20718514347E+02  0.73416590779E+02 -0.70965590958E+02  0.13176191310E+03  0.80658750331E+02 0.  0.
          5    1    5    5  501    0 -0.14416387331E+03  0.51048790435E+02 -0.39170351593E+02  0.15794178616E+03  0.47000000000E+01 0. -1.
        -11    1    6    6    0    0 -0.39105100085E+02  0.81727572995E+02 -0.61285119338E+02  0.10938222384E+03  0.00000000000E+00 0.  1.
         12    1    6    6    0    0  0.18386585738E+02 -0.83109822152E+01 -0.96804716200E+01  0.22379689257E+02  0.00000000000E+00 0. -1.
         -5    1    3    3    0  503  0.24804686007E+02 -0.89223721446E+02 -0.14132979340E+03  0.16903356299E+03  0.47000000000E+01 0.  1.
         13    1    4    4    0    0  0.11949392235E+03 -0.53172765736E+02 -0.10751697066E+03  0.16931048247E+03  0.00000000000E+00 0. -1.
        -14    1    4    4    0    0  0.20583779291E+02  0.17931105968E+02 -0.26693518300E+02  0.38180629256E+02  0.00000000000E+00 0.  1.
</event>
<event>
12    1  0.8500177E-002  0.1778730E+03  0.7818608E-02  0.1170643E+00
         21   -1    0    0  501  502  0.00000000000E+00  0.00000000000E+00  0.91091061067E+02  0.91091061067E+02  0.00000000000E+00 0. -1.
         21   -1    0    0  502  503 -0.00000000000E+00 -0.00000000000E+00 -0.61551797287E+03  0.61551797287E+03  0.00000000000E+00 0. -1.
         -6    2    1    2    0  503 -0.37151293392E+02 -0.16143078181E+02 -0.49674038417E+03  0.52659415739E+03  0.17002817344E+03 0.  0.
        -24    2    3    3    0    0 -0.68995020699E+02 -0.18350774420E+01 -0.47148201424E+03  0.48324883348E+03  0.80439200122E+02 0.  0.
          6    2    1    2  501    0  0.37151293392E+02  0.16143078181E+02 -0.27686527635E+02  0.18001487654E+03  0.17319929096E+03 0.  0.
         24    2    5    5    0    0  0.30328507735E+02  0.39631550643E+02 -0.78064694243E+02  0.12381604725E+03  0.82133055966E+02 0.  0.
          5    1    5    5  501    0  0.68227856571E+01 -0.23488472462E+02  0.50378166608E+02  0.56198829290E+02  0.47000000000E+01 0. -1.
        -13    1    6    6    0    0 -0.16735191728E+02 -0.59428114746E+01 -0.49048304339E+02  0.52164353815E+02  0.00000000000E+00 0.  1.
         14    1    6    6    0    0  0.47063699463E+02  0.45574362118E+02 -0.29016389904E+02  0.71651693439E+02  0.00000000000E+00 0. -1.
         -5    1    3    3    0  503  0.31843727307E+02 -0.14308000739E+02 -0.25258369932E+02  0.43345323918E+02  0.47000000000E+01 0.  1.
         13    1    4    4    0    0 -0.53913408471E+02 -0.20474403140E+02 -0.14738621752E+03  0.15826734948E+03  0.00000000000E+00 0. -1.
        -14    1    4    4    0    0 -0.15081612228E+02  0.18639325698E+02 -0.32409579671E+03  0.32498148399E+03  0.00000000000E+00 0.  1.
</event>
<event>
12    1  0.8500177E-002  0.1940299E+03  0.7818608E-02  0.1155194E+00
         21   -1    0    0  501  502  0.00000000000E+00  0.00000000000E+00  0.26301150412E+02  0.26301150412E+02  0.00000000000E+00 0.  1.
         21   -1    0    0  502  503 -0.00000000000E+00 -0.00000000000E+00 -0.15463221509E+04  0.15463221509E+04  0.00000000000E+00 0.  1.
         -6    2    1    2    0  503  0.71230330971E+02  0.52168127227E+02 -0.98144959849E+03  0.10001665330E+04  0.17115637816E+03 0.  0.
        -24    2    3    3    0    0  0.88497808714E+02  0.69418521374E+02 -0.51506622752E+03  0.53312126688E+03  0.79210309942E+02 0.  0.
          6    2    1    2  501    0 -0.71230330971E+02 -0.52168127227E+02 -0.53857140199E+03  0.57245676832E+03  0.17277824806E+03 0.  0.
         24    2    5    5    0    0 -0.10938791150E+03 -0.48860782304E+02 -0.48858659125E+03  0.50931002820E+03  0.79540910558E+02 0.  0.
          5    1    5    5  501    0  0.38157580526E+02 -0.33073449234E+01 -0.49984810746E+02  0.63146740117E+02  0.47000000000E+01 0. -1.
        -13    1    6    6    0    0 -0.20672305724E+02 -0.17922554383E+02 -0.27662107765E+02  0.38906996614E+02  0.00000000000E+00 0.  1.
         14    1    6    6    0    0 -0.88715605774E+02 -0.30938227921E+02 -0.46092448348E+03  0.47040303159E+03  0.00000000000E+00 0. -1.
         -5    1    3    3    0  503 -0.17267477743E+02 -0.17250394147E+02 -0.46638337096E+03  0.46704526611E+03  0.47000000000E+01 0.  1.
         13    1    4    4    0    0  0.59079775858E+02  0.48961785417E+02 -0.17386778126E+03  0.19004652512E+03  0.00000000000E+00 0. -1.
        -14    1    4    4    0    0  0.29418032856E+02  0.20456735957E+02 -0.34119844626E+03  0.34307474176E+03  0.00000000000E+00 0.  1.
</event>
<event>
12    1  0.8500177E-002  0.1780688E+03  0.7818608E-02  0.1173805E+00
         21   -1    0    0  503  502  0.00000000000E+00  0.00000000000E+00  0.49069707010E+03  0.49069707010E+03  0.00000000000E+00 0.  1.
         21   -1    0    0  501  503 -0.00000000000E+00 -0.00000000000E+00 -0.66376745494E+02  0.66376745494E+02  0.00000000000E+00 0.  1.
          6    2    1    2  501    0  0.40011092720E+01 -0.41094942191E+02  0.31404926268E+03  0.36102000910E+03  0.17321577421E+03 0.  0.
         24    2    3    3    0    0 -0.54207266177E+02 -0.58126343566E+02  0.24959582576E+03  0.27239371991E+03  0.74720565355E+02 0.  0.
         -6    2    1    2    0  502 -0.40011092720E+01  0.41094942191E+02  0.11027106193E+03  0.19605380649E+03  0.15675645056E+03 0.  0.
        -24    2    5    5    0    0 -0.27730195474E+02  0.80038733503E+02  0.79546568818E+02  0.14086528512E+03  0.79625431495E+02 0.  0.
          5    1    3    3  501    0  0.58208375449E+02  0.17031401375E+02  0.64453436913E+02  0.88626289188E+02  0.47000000000E+01 0. -1.
        -11    1    4    4    0    0 -0.25226051126E+02 -0.10769270726E+02  0.18583209575E+03  0.18784541160E+03  0.00000000000E+00 0.  1.
         12    1    4    4    0    0 -0.28981215052E+02 -0.47357072840E+02  0.63763730013E+02  0.84548308316E+02  0.00000000000E+00 0. -1.
         -5    1    5    5    0  502  0.23729086202E+02 -0.38943791311E+02  0.30724493108E+02  0.55188521365E+02  0.47000000000E+01 0.  1.
         13    1    6    6    0    0 -0.20315391719E+02  0.90238547695E+02  0.42617976020E+02  0.10184302878E+03  0.00000000000E+00 0. -1.
        -14    1    6    6    0    0 -0.74148037550E+01 -0.10199814192E+02  0.36928592797E+02  0.39022256345E+02  0.00000000000E+00 0.  1.
</event>
<event>
12    1  0.8500177E-002  0.2936556E+03  0.7818608E-02  0.1088570E+00
         21   -1    0    0  503  502  0.00000000000E+00  0.00000000000E+00  0.56621418863E+02  0.56621418863E+02  0.00000000000E+00 0. -1.
         21   -1    0    0  501  503 -0.00000000000E+00 -0.00000000000E+00 -0.15287606701E+04  0.15287606701E+04  0.00000000000E+00 0.  1.
          6    2    1    2  501    0 -0.12767404663E+02  0.23735171847E+03 -0.66969689075E+03  0.73089550006E+03  0.17092531011E+03 0.  0.
         24    2    3    3    0    0 -0.10037625960E+02  0.27478899488E+02 -0.20261093207E+03  0.21879645237E+03  0.77232466776E+02 0.  0.
         -6    2    1    2    0  502  0.12767404663E+02 -0.23735171847E+03 -0.80244236053E+03  0.85448658895E+03  0.17243765205E+03 0.  0.
        -24    2    5    5    0    0  0.67532239495E+02 -0.98427016782E+02 -0.42435400585E+03  0.44794980855E+03  0.79587861493E+02 0.  0.
          5    1    3    3  501    0 -0.27297787032E+01  0.20987281898E+03 -0.46708595868E+03  0.51209904768E+03  0.47000000000E+01 0. -1.
        -11    1    4    4    0    0  0.31734591985E+02  0.10100809671E+02 -0.12082420690E+03  0.12532996313E+03  0.00000000000E+00 0.  1.
         12    1    4    4    0    0 -0.41772217945E+02  0.17378089817E+02 -0.81786725173E+02  0.93466489247E+02  0.00000000000E+00 0. -1.
         -5    1    5    5    0  502 -0.54764834832E+02 -0.13892470169E+03 -0.37808835468E+03  0.40653678040E+03  0.47000000000E+01 0.  1.
         13    1    6    6    0    0  0.36527419873E+02 -0.28471348325E+02 -0.60796119481E+02  0.76426685274E+02  0.00000000000E+00 0. -1.
        -14    1    6    6    0    0  0.31004819621E+02 -0.69955668457E+02 -0.36355788637E+03  0.37152312328E+03  0.00000000000E+00 0.  1.
</event>
<event>
12    1  0.8500177E-002  0.1954279E+03  0.7818608E-02  0.1153887E+00
         21   -1    0    0  503  502  0.00000000000E+00  0.00000000000E+00  0.10036984402E+04  0.10036984402E+04  0.00000000000E+00 0.  1.
         21   -1    0    0  501  503 -0.00000000000E+00 -0.00000000000E+00 -0.53259461255E+02  0.53259461255E+02  0.00000000000E+00 0.  1.
          6    2    1    2  501    0  0.80317427130E+02  0.42657396815E+02  0.18997998363E+03  0.27178916628E+03  0.17177431160E+03 0.  0.
         24    2    3    3    0    0  0.99208768248E+02  0.69571191668E+02  0.99564787162E+02  0.17546558208E+03  0.78692396356E+02 0.  0.
         -6    2    1    2    0  502 -0.80317427130E+02 -0.42657396815E+02  0.76045899535E+03  0.78516873520E+03  0.17297837011E+03 0.  0.
        -24    2    5    5    0    0 -0.60663013046E+02  0.90462357455E+01  0.22253823637E+03  0.24439115194E+03  0.80261653164E+02 0.  0.
          5    1    3    3  501    0 -0.18891341118E+02 -0.26913794853E+02  0.90415196463E+02  0.96323584205E+02  0.47000000000E+01 0. -1.
        -11    1    4    4    0    0  0.77813463851E+02  0.29100512778E+02  0.22903521233E+02  0.86176251284E+02  0.00000000000E+00 0.  1.
         12    1    4    4    0    0  0.21395304398E+02  0.40470678890E+02  0.76661265929E+02  0.89289330796E+02  0.00000000000E+00 0. -1.
         -5    1    5    5    0  502 -0.19654414084E+02 -0.51703632561E+02  0.53792075898E+03  0.54077758326E+03  0.47000000000E+01 0.  1.
         13    1    6    6    0    0 -0.13297944630E+02 -0.31705153863E+02  0.48289802940E+02  0.59278640174E+02  0.00000000000E+00 0. -1.
        -14    1    6    6    0    0 -0.47365068416E+02  0.40751389608E+02  0.17424843343E+03  0.18511251177E+03  0.00000000000E+00 0.  1.
</event>
<event>
12    1  0.8500177E-002  0.2441515E+03  0.7818608E-02  0.1117593E+00
         21   -1    0    0  503  502  0.00000000000E+00  0.00000000000E+00  0.45145014187E+03  0.45145014187E+03  0.00000000000E+00 0. -1.
         21   -1    0    0  501  503 -0.00000000000E+00 -0.00000000000E+00 -0.13421972568E+03  0.13421972568E+03  0.00000000000E+00 0.  1.
          6    2    1    2  501    0  0.13951999773E+03  0.10110306946E+03  0.10949857326E+03  0.26758152224E+03  0.17298055693E+03 0.  0.
         24    2    3    3    0    0  0.88925927106E+01  0.17990787232E+02  0.68716058836E+02  0.10740513858E+03  0.80070096921E+02 0.  0.
         -6    2    1    2    0  502 -0.13951999773E+03 -0.10110306946E+03  0.20773184293E+03  0.31808834532E+03  0.16834493292E+03 0.  0.
        -24    2    5    5    0    0 -0.15588787134E+01 -0.44383817992E+02  0.70273351790E+02  0.11519115304E+03  0.79738976448E+02 0.  0.
          5    1    3    3  501    0  0.13062740502E+03  0.83112282230E+02  0.40782514425E+02  0.16017638366E+03  0.47000000000E+01 0. -1.
        -11    1    4    4    0    0 -0.17209307800E+02  0.38646842191E+01 -0.12048284626E+02  0.21360178405E+02  0.00000000000E+00 0.  1.
         12    1    4    4    0    0  0.26101900511E+02  0.14126103013E+02  0.80764343462E+02  0.86044960175E+02  0.00000000000E+00 0. -1.
         -5    1    5    5    0  502 -0.13796111901E+03 -0.56719251471E+02  0.13745849114E+03  0.20289719228E+03  0.47000000000E+01 0.  1.
         13    1    6    6    0    0 -0.34201967910E+02 -0.40229222408E+01  0.47093045710E+02  0.58341352971E+02  0.00000000000E+00 0. -1.
        -14    1    6    6    0    0  0.32643089197E+02 -0.40360895751E+02  0.23180306081E+02  0.56849800071E+02  0.00000000000E+00 0.  1.
</event>
<event>
12    1  0.8500177E-002  0.1962630E+03  0.7818608E-02  0.1153534E+00
         21   -1    0    0  501  502  0.00000000000E+00  0.00000000000E+00  0.99565587992E+03  0.99565587992E+03  0.00000000000E+00 0. -1.
         21   -1    0    0  502  503 -0.00000000000E+00 -0.00000000000E+00 -0.38177978988E+02  0.38177978988E+02  0.00000000000E+00 0. -1.
         -6    2    1    2    0  503  0.16522732095E+02 -0.92832059215E+02  0.45970335461E+03  0.49876500149E+03  0.16896319296E+03 0.  0.
        -24    2    3    3    0    0  0.65726313470E+02 -0.92615869848E+02  0.28156932982E+03  0.31390056482E+03  0.79715929814E+02 0.  0.
          6    2    1    2  501    0 -0.16522732095E+02  0.92832059215E+02  0.49777454632E+03  0.53506885742E+03  0.17212899617E+03 0.  0.
         24    2    5    5    0    0  0.87667452965E+01  0.48257991328E+02  0.46463293581E+03  0.47385724462E+03  0.79064743629E+02 0.  0.
          5    1    5    5  501    0 -0.25289477391E+02  0.44574067887E+02  0.33141610508E+02  0.61211612802E+02  0.47000000000E+01 0. -1.
        -13    1    6    6    0    0  0.67461300927E+01  0.69323632500E+02  0.39448450377E+03  0.40058619548E+03  0.00000000000E+00 0.  1.
         14    1    6    6    0    0  0.20206152037E+01 -0.21065641172E+02  0.70148432036E+02  0.73271049132E+02  0.00000000000E+00 0. -1.
         -5    1    3    3    0  503 -0.49203581375E+02 -0.21618936647E+00  0.17813402479E+03  0.18486443668E+03  0.47000000000E+01 0.  1.
         13    1    4    4    0    0 -0.61609769677E+01 -0.28807230303E+02  0.21028305668E+02  0.36193974556E+02  0.00000000000E+00 0. -1.
        -14    1    4    4    0    0  0.71887290437E+02 -0.63808639545E+02  0.26054102415E+03  0.27770659026E+03  0.00000000000E+00 0.  1.
</event>
<event>
12    1  0.8500177E-002  0.2206771E+03  0.7818608E-02  0.1133837E+00
         21   -1    0    0  503  502  0.00000000000E+00  0.00000000000E+00  0.23916309070E+03  0.23916309070E+03  0.00000000000E+00 0. -1.
         21   -1    0    0  501  503 -0.00000000000E+00 -0.00000000000E+00 -0.21524434425E+03  0.21524434425E+03  0.00000000000E+00 0. -1.
          6    2    1    2  501    0  0.11827632521E+03  0.71233958440E+02 -0.45673599452E+02  0.22535412547E+03  0.17214772215E+03 0.  0.
         24    2    3    3    0    0  0.59472155017E+02 -0.29498673402E+02 -0.17585867781E+02  0.10528745974E+03  0.79806500222E+02 0.  0.
         -6    2    1    2    0  502 -0.11827632521E+03 -0.71233958440E+02  0.69592345895E+02  0.22905330948E+03  0.16899336684E+03 0.  0.
        -24    2    5    5    0    0 -0.11412114743E+02  0.31585703018E+01 -0.21140787760E+01  0.80331726810E+02  0.79426091897E+02 0.  0.
          5    1    3    3  501    0  0.58804170195E+02  0.10073263184E+03 -0.28087731671E+02  0.12006666573E+03  0.47000000000E+01 0. -1.
        -13    1    4    4    0    0  0.19652468853E+02 -0.48741635704E+02 -0.28430572846E+02  0.59751686633E+02  0.00000000000E+00 0.  1.
         14    1    4    4    0    0  0.39819686164E+02  0.19242962303E+02  0.10844705064E+02  0.45535773106E+02  0.00000000000E+00 0. -1.
         -5    1    5    5    0  502 -0.10686421047E+03 -0.74392528742E+02  0.71706424671E+02  0.14872158267E+03  0.47000000000E+01 0.  1.
         11    1    6    6    0    0 -0.28077880820E+02  0.14662671187E+02  0.29172838745E+02  0.43062928815E+02  0.00000000000E+00 0. -1.
        -12    1    6    6    0    0  0.16665766077E+02 -0.11504100885E+02 -0.31286917521E+02  0.37268797996E+02  0.00000000000E+00 0.  1.
</event>
<event>
12    1  0.8500177E-002  0.1989401E+03  0.7818608E-02  0.1151122E+00
         21   -1    0    0  503  502  0.00000000000E+00  0.00000000000E+00  0.12816691172E+03  0.12816691172E+03  0.00000000000E+00 0.  1.
         21   -1    0    0  501  503 -0.00000000000E+00 -0.00000000000E+00 -0.50189839350E+03  0.50189839350E+03  0.00000000000E+00 0.  1.
          6    2    1    2  501    0 -0.84238380218E+02 -0.46560032968E+02 -0.38339134197E+03  0.43089082919E+03  0.17150523087E+03 0.  0.
         24    2    3    3    0    0  0.13177412794E+02 -0.13507784456E+02 -0.10278832156E+03  0.13198878350E+03  0.80619448466E+02 0.  0.
         -6    2    1    2    0  502  0.84238380218E+02  0.46560032968E+02  0.96598601847E+01  0.19917447602E+03  0.17410691436E+03 0.  0.
        -24    2    5    5    0    0  0.81613869672E+02 -0.30759210947E+02  0.20519689887E+02  0.12091095044E+03  0.81187729878E+02 0.  0.
          5    1    3    3  501    0 -0.97415793012E+02 -0.33052248512E+02 -0.28060302041E+03  0.29890204570E+03  0.47000000000E+01 0. -1.
        -13    1    4    4    0    0  0.12029052852E-01 -0.20350392303E+02  0.67572705611E+01  0.21442931633E+02  0.00000000000E+00 0.  1.
         14    1    4    4    0    0  0.13165383741E+02  0.68426078472E+01 -0.10954559212E+03  0.11054585186E+03  0.00000000000E+00 0. -1.
         -5    1    5    5    0  502  0.26245105461E+01  0.77319243915E+02 -0.10859829702E+02  0.78263525581E+02  0.47000000000E+01 0.  1.
         11    1    6    6    0    0  0.31955038640E+02 -0.48038661085E+02  0.33549399368E+02  0.66741288954E+02  0.00000000000E+00 0. -1.
        -12    1    6    6    0    0  0.49658831032E+02  0.17279450138E+02 -0.13029709481E+02  0.54169661488E+02  0.00000000000E+00 0.  1.
</event>
<event>
12    1  0.8500177E-002  0.2101141E+03  0.7818608E-02  0.1141838E+00
         21   -1    0    0  503  502  0.00000000000E+00  0.00000000000E+00  0.43907785617E+02  0.43907785617E+02  0.00000000000E+00 0. -1.
         21   -1    0    0  501  503 -0.00000000000E+00 -0.00000000000E+00 -0.31768838492E+04  0.31768838492E+04  0.00000000000E+00 0. -1.
          6    2    1    2  501    0  0.10972285421E+03  0.48599426794E+02 -0.29026777377E+04  0.29102724955E+04  0.17247301270E+03 0.  0.
         24    2    3    3    0    0  0.13480836833E+03  0.70472125678E+02 -0.26400109361E+04  0.26454638162E+04  0.75375349951E+02 0.  0.
         -6    2    1    2    0  502 -0.10972285421E+03 -0.48599426794E+02 -0.23029832580E+03  0.31051913923E+03  0.17024631550E+03 0.  0.
        -24    2    5    5    0    0 -0.10936195081E+03 -0.94403193549E+01 -0.23994401843E+03  0.26991500973E+03  0.56849138763E+02 0.  0.
          5    1    3    3  501    0 -0.25085514119E+02 -0.21872698884E+02 -0.26266680165E+03  0.26480867936E+03  0.47000000000E+01 0. -1.
        -11    1    4    4    0    0  0.10647405329E+02  0.79171497344E+01 -0.50201901160E+02  0.51925710204E+02  0.00000000000E+00 0.  1.
         12    1    4    4    0    0  0.12416096300E+03  0.62554975944E+02 -0.25898090349E+04  0.25935381060E+04  0.00000000000E+00 0. -1.
         -5    1    5    5    0  502 -0.36090339998E+00 -0.39159107439E+02  0.96456926334E+01  0.40604129507E+02  0.47000000000E+01 0.  1.
         13    1    6    6    0    0 -0.43778523067E+02 -0.19228389798E+02 -0.52124035931E+02  0.70733338518E+02  0.00000000000E+00 0. -1.
        -14    1    6    6    0    0 -0.65583427747E+02  0.97880704433E+01 -0.18781998250E+03  0.19918167121E+03  0.00000000000E+00 0.  1.
</event>
<event>
12    1  0.8500177E-002  0.2340131E+03  0.7818608E-02  0.1123973E+00
         21   -1    0    0  503  502  0.00000000000E+00  0.00000000000E+00  0.42843918811E+03  0.42843918811E+03  0.00000000000E+00 0. -1.
         21   -1    0    0  501  503 -0.00000000000E+00 -0.00000000000E+00 -0.28962686392E+03  0.28962686392E+03  0.00000000000E+00 0.  1.
          6    2    1    2  501    0 -0.15912164215E+03 -0.50473109324E+01 -0.19933287417E+03  0.30684308427E+03  0.17051073658E+03 0.  0.
         24    2    3    3    0    0 -0.48064842877E+02  0.43070900422E+02 -0.13381100275E+03  0.16913258879E+03  0.80840067731E+02 0.  0.
         -6    2    1    2    0  502  0.15912164215E+03  0.50473109324E+01  0.33814519836E+03  0.41122296776E+03  0.17151379445E+03 0.  0.
        -24    2    5    5    0    0  0.17253578540E+03  0.62044893966E+01  0.34563689565E+03  0.39511415559E+03  0.82723874349E+02 0.  0.
          5    1    3    3  501    0 -0.11105679928E+03 -0.48118211355E+02 -0.65521871416E+02  0.13771049547E+03  0.47000000000E+01 0. -1.
        -13    1    4    4    0    0  0.79038631695E+01  0.31031221522E+02 -0.94258064660E+02  0.99548935281E+02  0.00000000000E+00 0.  1.
         14    1    4    4    0    0 -0.55968706046E+02  0.12039678900E+02 -0.39552938092E+02  0.69583653513E+02  0.00000000000E+00 0. -1.
         -5    1    5    5    0  502 -0.13414143246E+02 -0.11571784641E+01 -0.74916972868E+01  0.16108812162E+02  0.47000000000E+01 0.  1.
         11    1    6    6    0    0  0.17913768352E+02 -0.27088142364E+02  0.73452067907E+02  0.80311125214E+02  0.00000000000E+00 0. -1.
        -12    1    6    6    0    0  0.15462201705E+03  0.33292631761E+02  0.27218482774E+03  0.31480303038E+03  0.00000000000E+00 0.  1.
</event>
<event>
12    1  0.8500177E-002  0.2017655E+03  0.7818608E-02  0.1149563E+00
         21   -1    0    0  503  502  0.00000000000E+00  0.00000000000E+00  0.17728489764E+03  0.17728489764E+03  0.00000000000E+00 0.  1.
         21   -1    0    0  501  503 -0.00000000000E+00 -0.00000000000E+00 -0.61828048778E+03  0.61828048778E+03  0.00000000000E+00 0.  1.
          6    2    1    2  501    0 -0.52432298466E+02 -0.87306393589E+02 -0.53990228995E+03  0.57637124970E+03  0.17417744545E+03 0.  0.
         24    2    3    3    0    0 -0.42430103142E+02 -0.11496166154E+03 -0.52073664574E+03  0.54095557980E+03  0.80310571067E+02 0.  0.
         -6    2    1    2    0  502  0.52432298466E+02  0.87306393589E+02  0.98906699814E+02  0.21919413572E+03  0.16700892666E+03 0.  0.
        -24    2    5    5    0    0  0.70547342336E+02  0.83133043410E+02  0.18504266724E+02  0.13653693451E+03  0.80074316610E+02 0.  0.
          5    1    3    3  501    0 -0.10002195323E+02  0.27655267949E+02 -0.19165644219E+02  0.35415669907E+02  0.47000000000E+01 0. -1.
        -11    1    4    4    0    0 -0.44318307861E+02 -0.72665253406E+02 -0.45408931301E+03  0.46199724637E+03  0.00000000000E+00 0.  1.
         12    1    4    4    0    0  0.18882047186E+01 -0.42296408132E+02 -0.66647332723E+02  0.78958333424E+02  0.00000000000E+00 0. -1.
         -5    1    5    5    0  502 -0.18115043870E+02  0.41733501796E+01  0.80402433090E+02  0.82657201217E+02  0.47000000000E+01 0.  1.
         11    1    6    6    0    0  0.67617082550E+02  0.19743470320E+02  0.13612528155E-01  0.70440575368E+02  0.00000000000E+00 0. -1.
        -12    1    6    6    0    0  0.29302597858E+01  0.63389573090E+02  0.18490654196E+02  0.66096359140E+02  0.00000000000E+00 0.  1.
</event>
<event>
12    1  0.8500177E-002  0.2192177E+03  0.7818608E-02  0.1135885E+00
         21   -1    0    0  503  502  0.00000000000E+00  0.00000000000E+00  0.21496852042E+04  0.21496852042E+04  0.00000000000E+00 0. -1.
         21   -1    0    0  501  503 -0.00000000000E+00 -0.00000000000E+00 -0.41959509300E+02  0.41959509300E+02  0.00000000000E+00 0. -1.
          6    2    1    2  501    0 -0.90161706498E+02 -0.10140713290E+03  0.28130819221E+03  0.35211833888E+03  0.16260530633E+03 0.  0.
         24    2    3    3    0    0 -0.22212960946E+02 -0.55306221989E+02  0.24095149364E+03  0.26050458921E+03  0.79074805637E+02 0.  0.
         -6    2    1    2    0  502  0.90161706498E+02  0.10140713290E+03  0.18264175027E+04  0.18395263747E+04  0.17217389140E+03 0.  0.
        -24    2    5    5    0    0  0.80243009211E+02  0.34782018852E+02  0.69431074807E+03  0.70540773875E+03  0.88791517843E+02 0.  0.
          5    1    3    3  501    0 -0.67948745552E+02 -0.46100910912E+02  0.40356698569E+02  0.91613749668E+02  0.47000000000E+01 0. -1.
        -13    1    4    4    0    0 -0.35894143056E+02  0.46622712270E+01  0.11054280426E+03  0.11631783118E+03  0.00000000000E+00 0.  1.
         14    1    4    4    0    0  0.13681182110E+02 -0.59968493216E+02  0.13040868939E+03  0.14418675803E+03  0.00000000000E+00 0. -1.
         -5    1    5    5    0  502  0.99186972874E+01  0.66625114049E+02  0.11321067547E+04  0.11341186359E+04  0.47000000000E+01 0.  1.
         11    1    6    6    0    0  0.87780634828E+02  0.34420868903E+02  0.69058466026E+03  0.69699168507E+03  0.00000000000E+00 0. -1.
        -12    1    6    6    0    0 -0.75376256169E+01  0.36114994854E+00  0.37260878100E+01  0.84160536829E+01  0.00000000000E+00 0.  1.
</event>
<event>
12    1  0.8500177E-002  0.1921200E+03  0.7818608E-02  0.1157705E+00
         21   -1    0    0  503  502  0.00000000000E+00  0.00000000000E+00  0.15112073627E+03  0.15112073627E+03  0.00000000000E+00 0. -1.
         21   -1    0    0  501  503 -0.00000000000E+00 -0.00000000000E+00 -0.45658076127E+03  0.45658076127E+03  0.00000000000E+00 0.  1.
          6    2    1    2  501    0  0.96025122635E+01 -0.73860417455E+02 -0.36196748172E+03  0.40744367091E+03  0.17158763835E+03 0.  0.
         24    2    3    3    0    0  0.27141792214E+02 -0.11280168374E+03 -0.30762493304E+03  0.33816704313E+03  0.79138820371E+02 0.  0.
         -6    2    1    2    0  502 -0.96025122635E+01  0.73860417455E+02  0.56507456720E+02  0.20025782662E+03  0.17709470616E+03 0.  0.
        -24    2    5    5    0    0  0.53506966830E+02  0.84838793666E+02  0.30528516440E+02  0.13097343852E+03  0.78494807932E+02 0.  0.
          5    1    3    3  501    0 -0.17539279951E+02  0.38941266280E+02 -0.54342548681E+02  0.69276627789E+02  0.47000000000E+01 0. -1.
        -13    1    4    4    0    0 -0.19910661798E+02 -0.59665925766E+02 -0.19639821097E+03  0.20622491222E+03  0.00000000000E+00 0.  1.
         14    1    4    4    0    0  0.47052454012E+02 -0.53135757969E+02 -0.11122672207E+03  0.13194213090E+03  0.00000000000E+00 0. -1.
         -5    1    5    5    0  502 -0.63109479093E+02 -0.10978376211E+02  0.25978940281E+02  0.69284388095E+02  0.47000000000E+01 0.  1.
         11    1    6    6    0    0 -0.79078491427E+01  0.60118732362E+02  0.86598350449E+01  0.61251847335E+02  0.00000000000E+00 0. -1.
        -12    1    6    6    0    0  0.61414815972E+02  0.24720061304E+02  0.21868681395E+02  0.69721591188E+02  0.00000000000E+00 0.  1.
</event>
<event>
12    1  0.8500177E-002  0.2373587E+03  0.7818608E-02  0.1121651E+00
         21   -1    0    0  501  502  0.00000000000E+00  0.00000000000E+00  0.16193519493E+03  0.16193519493E+03  0.00000000000E+00 0. -1.
         21   -1    0    0  502  503 -0.00000000000E+00 -0.00000000000E+00 -0.36008075669E+03  0.36008075669E+03  0.00000000000E+00 0.  1.
         -6    2    1    2    0  503 -0.15442036151E+03  0.50810763359E+02 -0.14840681508E+03  0.27950188311E+03  0.17224789746E+03 0.  0.
        -24    2    3    3    0    0 -0.94517464379E+02 -0.30792924896E+02 -0.46843794718E+02  0.13602834504E+03  0.80172403330E+02 0.  0.
          6    2    1    2  501    0  0.15442036151E+03 -0.50810763359E+02 -0.49738746678E+02  0.24251406851E+03  0.17295013381E+03 0.  0.
         24    2    5    5    0    0  0.60808280492E+01 -0.37474014020E+02 -0.85416370465E+01  0.87912070103E+02  0.78830795441E+02 0.  0.
          5    1    5    5  501    0  0.14833953346E+03 -0.13336749339E+02 -0.41197109631E+02  0.15460199841E+03  0.47000000000E+01 0. -1.
        -11    1    6    6    0    0 -0.70201200804E+01 -0.24373146827E+02 -0.42347319007E+02  0.49362210235E+02  0.00000000000E+00 0.  1.
         12    1    6    6    0    0  0.13100948130E+02 -0.13100867193E+02  0.33805681960E+02  0.38549859869E+02  0.00000000000E+00 0. -1.
         -5    1    3    3    0  503 -0.59902897128E+02  0.81603688256E+02 -0.10156302036E+03  0.14347353807E+03  0.47000000000E+01 0.  1.
         11    1    4    4    0    0 -0.15122150886E+01  0.44775924553E+01 -0.35615949916E+02  0.35928143802E+02  0.00000000000E+00 0. -1.
        -12    1    4    4    0    0 -0.93005249291E+02 -0.35270517352E+02 -0.11227844802E+02  0.10010020124E+03  0.00000000000E+00 0.  1.
</event>
<event>
12    1  0.8500177E-002  0.1951135E+03  0.7818608E-02  0.1154280E+00
         21   -1    0    0  503  502  0.00000000000E+00  0.00000000000E+00  0.70647942313E+03  0.70647942313E+03  0.00000000000E+00 0.  1.
         21   -1    0    0  501  503 -0.00000000000E+00 -0.00000000000E+00 -0.56251132016E+02  0.56251132016E+02  0.00000000000E+00 0. -1.
          6    2    1    2  501    0  0.49723346116E+02 -0.75970368292E+02  0.24118172498E+03  0.31022232560E+03  0.17270019928E+03 0.  0.
         24    2    3    3    0    0 -0.15897721145E+02 -0.50877523558E+02  0.21929747151E+03  0.23648776196E+03  0.70666969695E+02 0.  0.
         -6    2    1    2    0  502 -0.49723346116E+02  0.75970368292E+02  0.40904656613E+03  0.45250822954E+03  0.17088211296E+03 0.  0.
        -24    2    5    5    0    0 -0.28140817788E+02  0.68179832584E+02  0.11664682808E+03  0.15917191268E+03  0.79302081237E+02 0.  0.
          5    1    3    3  501    0  0.65621067262E+02 -0.25092844734E+02  0.21884253467E+02  0.73734563640E+02  0.47000000000E+01 0. -1.
        -13    1    4    4    0    0 -0.17580708800E+02 -0.70196380943E+01  0.16762732022E+03  0.16869284254E+03  0.00000000000E+00 0.  1.
         14    1    4    4    0    0  0.16829876547E+01 -0.43857885464E+02  0.51670151294E+02  0.67794919423E+02  0.00000000000E+00 0. -1.
         -5    1    5    5    0  502 -0.21582528328E+02  0.77905357080E+01  0.29239973805E+03  0.29333631686E+03  0.47000000000E+01 0.  1.
         13    1    6    6    0    0 -0.48520110933E+02  0.15361416052E+02  0.45658912620E+02  0.68373317674E+02  0.00000000000E+00 0. -1.
        -14    1    6    6    0    0  0.20379293145E+02  0.52818416532E+02  0.70987915460E+02  0.90798595008E+02  0.00000000000E+00 0.  1.
</event>
<event>
12    1  0.8500177E-002  0.1771954E+03  0.7818608E-02  0.1170651E+00
         21   -1    0    0  501  502  0.00000000000E+00  0.00000000000E+00  0.74835157213E+03  0.74835157213E+03  0.00000000000E+00 0.  1.
         21   -1    0    0  502  503 -0.00000000000E+00 -0.00000000000E+00 -0.46301734460E+02  0.46301734460E+02  0.00000000000E+00 0.  1.
         -6    2    1    2    0  503 -0.88609075071E+01 -0.41430842810E+02  0.47452801276E+03  0.50653236276E+03  0.17205571543E+03 0.  0.
        -24    2    3    3    0    0 -0.88911705408E+01 -0.90804815007E+02  0.36767272777E+03  0.38872772798E+03  0.87186262731E+02 0.  0.
          6    2    1    2  501    0  0.88609075071E+01  0.41430842810E+02  0.22752182491E+03  0.28812094383E+03  0.17161721081E+03 0.  0.
         24    2    5    5    0    0  0.35611686891E+02  0.22397873906E+02  0.23756452919E+03  0.25346832471E+03  0.77713763904E+02 0.  0.
          5    1    5    5  501    0 -0.26750779384E+02  0.19032968904E+02 -0.10042704281E+02  0.34652619125E+02  0.47000000000E+01 0. -1.
        -13    1    6    6    0    0 -0.19125131733E+01  0.44028959111E+02  0.10089977400E+03  0.11010436567E+03  0.00000000000E+00 0.  1.
         14    1    6    6    0    0  0.37524200065E+02 -0.21631085206E+02  0.13666475520E+03  0.14336395904E+03  0.00000000000E+00 0. -1.
         -5    1    3    3    0  503  0.30263033693E-01  0.49373972197E+02  0.10685528499E+03  0.11780463479E+03  0.47000000000E+01 0.  1.
         13    1    4    4    0    0  0.27670925612E+02 -0.57270608570E-01  0.99070308913E+02  0.10286208977E+03  0.00000000000E+00 0. -1.
        -14    1    4    4    0    0 -0.36562096153E+02 -0.90747544399E+02  0.26860241886E+03  0.28586563820E+03  0.00000000000E+00 0.  1.
</event>
<event>
12    1  0.8500177E-002  0.2037501E+03  0.7818608E-02  0.1148226E+00
         21   -1    0    0  501  502  0.00000000000E+00  0.00000000000E+00  0.36476361630E+03  0.36476361630E+03  0.00000000000E+00 0. -1.
         21   -1    0    0  502  503 -0.00000000000E+00 -0.00000000000E+00 -0.12632244277E+03  0.12632244277E+03  0.00000000000E+00 0. -1.
         -6    2    1    2    0  503 -0.49723323081E+02  0.98732957410E+02  0.31787266813E+02  0.20621474844E+03  0.17115340021E+03 0.  0.
        -24    2    3    3    0    0 -0.56610253575E+02  0.89706564030E+01 -0.23241043152E+02  0.10059796288E+03  0.79338581803E+02 0.  0.
          6    2    1    2  501    0  0.49723323081E+02 -0.98732957410E+02  0.20665390671E+03  0.28487131064E+03  0.16194202891E+03 0.  0.
         24    2    5    5    0    0  0.12550746455E+02 -0.49237321775E+02  0.20060667204E+03  0.22249922195E+03  0.81737578941E+02 0.  0.
          5    1    5    5  501    0  0.37172576627E+02 -0.49495635635E+02  0.60472346748E+01  0.62372088687E+02  0.47000000000E+01 0. -1.
        -11    1    6    6    0    0  0.19777552331E+02  0.82065374617E+01  0.12729225813E+03  0.12908066398E+03  0.00000000000E+00 0.  1.
         12    1    6    6    0    0 -0.72268058768E+01 -0.57443859237E+02  0.73314413907E+02  0.93418557973E+02  0.00000000000E+00 0. -1.
         -5    1    3    3    0  503  0.68869304938E+01  0.89762301007E+02  0.55028309965E+02  0.10561678556E+03  0.47000000000E+01 0.  1.
         11    1    4    4    0    0 -0.10891995441E+02  0.10902994126E+02 -0.46699136260E+02  0.49176418871E+02  0.00000000000E+00 0. -1.
        -12    1    4    4    0    0 -0.45718258134E+02 -0.19323377231E+01  0.23458093108E+02  0.51421544008E+02  0.00000000000E+00 0.  1.
</event>
<event>
12    1  0.8500177E-002  0.1871573E+03  0.7818608E-02  0.1162166E+00
         21   -1    0    0  501  502  0.00000000000E+00  0.00000000000E+00  0.15917147798E+03  0.15917147798E+03  0.00000000000E+00 0.  1.
         21   -1    0    0  502  503 -0.00000000000E+00 -0.00000000000E+00 -0.24451764628E+03  0.24451764628E+03  0.00000000000E+00 0.  1.
         -6    2    1    2    0  503  0.30365434142E+02  0.66780743354E+02 -0.11390361234E+03  0.21909336101E+03  0.17218054669E+03 0.  0.
        -24    2    3    3    0    0  0.31040674003E+02  0.12767104675E+01  0.21334811518E+01  0.85759451819E+02  0.79906059859E+02 0.  0.
          6    2    1    2  501    0 -0.30365434142E+02 -0.66780743354E+02  0.28557444034E+02  0.18459576326E+03  0.16696808357E+03 0.  0.
         24    2    5    5    0    0  0.33509909031E+02 -0.26301946568E+02 -0.24144372255E+02  0.92301863704E+02  0.78243063175E+02 0.  0.
          5    1    5    5  501    0 -0.63875343174E+02 -0.40478796785E+02  0.52701816289E+02  0.92293899554E+02  0.47000000000E+01 0. -1.
        -13    1    6    6    0    0  0.11465048575E+02 -0.53129090827E+02 -0.13956447438E+02  0.56115328174E+02  0.00000000000E+00 0.  1.
         14    1    6    6    0    0  0.22044860456E+02  0.26827144259E+02 -0.10187924817E+02  0.36186535530E+02  0.00000000000E+00 0. -1.
         -5    1    3    3    0  503 -0.67523986082E+00  0.65504032886E+02 -0.11603709349E+03  0.13333390919E+03  0.47000000000E+01 0.  1.
         13    1    4    4    0    0  0.19763051347E+02  0.15181309072E+02 -0.35912159441E+02  0.43711938179E+02  0.00000000000E+00 0. -1.
        -14    1    4    4    0    0  0.11277622656E+02 -0.13904598604E+02  0.38045640593E+02  0.42047513639E+02  0.00000000000E+00 0.  1.
</event>
<event>
12    1  0.8500177E-002  0.1810579E+03  0.7818608E-02  0.1166932E+00
         21   -1    0    0  503  502  0.00000000000E+00  0.00000000000E+00  0.20002040540E+03  0.20002040540E+03  0.00000000000E+00 0.  1.
         21   -1    0    0  501  503 -0.00000000000E+00 -0.00000000000E+00 -0.46127610725E+03  0.46127610725E+03  0.00000000000E+00 0.  1.
          6    2    1    2  501    0  0.64068672879E+01 -0.53996661737E+02 -0.39644315955E+03  0.43583157131E+03  0.17270000687E+03 0.  0.
         24    2    3    3    0    0 -0.51682645524E+02 -0.41958792187E+02 -0.33303351915E+03  0.34887080833E+03  0.79798997117E+02 0.  0.
         -6    2    1    2    0  502 -0.64068672879E+01  0.53996661737E+02  0.13518745769E+03  0.22546494134E+03  0.17205261877E+03 0.  0.
        -24    2    5    5    0    0 -0.14400042071E+02 -0.34734193325E+02  0.88621518722E+02  0.12482930075E+03  0.79465434930E+02 0.  0.
          5    1    3    3  501    0  0.58089512812E+02 -0.12037869550E+02 -0.63409640404E+02  0.86960762981E+02  0.47000000000E+01 0. -1.
        -13    1    4    4    0    0 -0.66539546361E+02 -0.34902077442E+02 -0.18136895439E+03  0.19631699839E+03  0.00000000000E+00 0.  1.
         14    1    4    4    0    0  0.14856900837E+02 -0.70567147454E+01 -0.15166456476E+03  0.15255380995E+03  0.00000000000E+00 0. -1.
         -5    1    5    5    0  502  0.79931747827E+01  0.88730855062E+02  0.46565938972E+02  0.10063564058E+03  0.47000000000E+01 0.  1.
         11    1    6    6    0    0 -0.42051058137E+02 -0.41399536386E+02  0.53664719597E+02  0.79762868760E+02  0.00000000000E+00 0. -1.
        -12    1    6    6    0    0  0.27651016066E+02  0.66653430617E+01  0.34956799124E+02  0.45066431994E+02  0.00000000000E+00 0.  1.
</event>
<event>
12    1  0.8500177E-002  0.2153460E+03  0.7818608E-02  0.1137743E+00
         21   -1    0    0  503  502  0.00000000000E+00  0.00000000000E+00  0.80621387712E+03  0.80621387712E+03  0.00000000000E+00 0.  1.
         21   -1    0    0  501  503 -0.00000000000E+00 -0.00000000000E+00 -0.71115132780E+02  0.71115132780E+02  0.00000000000E+00 0.  1.
          6    2    1    2  501    0 -0.70385980368E+02 -0.10841531398E+03  0.17366732967E+03  0.27664819868E+03  0.17223767851E+03 0.  0.
         24    2    3    3    0    0  0.59069331828E+01 -0.11272558266E+03  0.12075082736E+03  0.18358137703E+03  0.79871214086E+02 0.  0.
         -6    2    1    2    0  502  0.70385980368E+02  0.10841531398E+03  0.56143141467E+03  0.60068081123E+03  0.17001216738E+03 0.  0.
        -24    2    5    5    0    0 -0.17578768420E+02  0.26043621061E+02  0.30680363990E+03  0.31893573760E+03  0.81266524284E+02 0.  0.
          5    1    3    3  501    0 -0.76292913551E+02  0.43102686755E+01  0.52916502310E+02  0.93066821644E+02  0.47000000000E+01 0. -1.
        -11    1    4    4    0    0 -0.54210268398E+01 -0.39152836583E+02  0.98112846276E+02  0.10577553001E+03  0.00000000000E+00 0.  1.
         12    1    4    4    0    0  0.11327960023E+02 -0.73572746077E+02  0.22637981086E+02  0.77805847024E+02  0.00000000000E+00 0. -1.
         -5    1    5    5    0  502  0.87964748788E+02  0.82371692923E+02  0.25462777477E+03  0.28174507362E+03  0.47000000000E+01 0.  1.
         11    1    6    6    0    0  0.45696183293E+01  0.47583425784E+01 -0.32568304102E+01  0.73573215296E+01  0.00000000000E+00 0. -1.
        -12    1    6    6    0    0 -0.22148386749E+02  0.21285278483E+02  0.31006047031E+03  0.31157841607E+03  0.00000000000E+00 0.  1.
</event>
<event>
12    1  0.8500177E-002  0.1835291E+03  0.7818608E-02  0.1164573E+00
         21   -1    0    0  503  502  0.00000000000E+00  0.00000000000E+00  0.78219765321E+02  0.78219765321E+02  0.00000000000E+00 0.  1.
         21   -1    0    0  501  503 -0.00000000000E+00 -0.00000000000E+00 -0.95211290361E+03  0.95211290361E+03  0.00000000000E+00 0. -1.
          6    2    1    2  501    0  0.59396363334E+02  0.22061851378E+02 -0.81840412102E+03  0.83859860502E+03  0.17160321030E+03 0.  0.
         24    2    3    3    0    0  0.47662515867E+02 -0.24830183196E+02 -0.24622203132E+03  0.26435912549E+03  0.79826092892E+02 0.  0.
         -6    2    1    2    0  502 -0.59396363334E+02 -0.22061851378E+02 -0.55489017270E+02  0.19173406391E+03  0.17224478791E+03 0.  0.
        -24    2    5    5    0    0 -0.69741910959E+02  0.44319816075E+02 -0.42330627203E+02  0.12311344486E+03  0.80850838365E+02 0.  0.
          5    1    3    3  501    0  0.11733847467E+02  0.46892034574E+02 -0.57218208970E+03  0.57423947954E+03  0.47000000000E+01 0. -1.
        -13    1    4    4    0    0  0.14009763840E+02 -0.16351359662E+02 -0.70127693606E+01  0.22645515666E+02  0.00000000000E+00 0.  1.
         14    1    4    4    0    0  0.33652752027E+02 -0.84788235341E+01 -0.23920926196E+03  0.24171360982E+03  0.00000000000E+00 0. -1.
         -5    1    5    5    0  502  0.10345547624E+02 -0.66381667453E+02 -0.13158390067E+02  0.68620619049E+02  0.47000000000E+01 0.  1.
         13    1    6    6    0    0 -0.70253352164E+02  0.19640909386E+02 -0.58583314028E+02  0.93559090923E+02  0.00000000000E+00 0. -1.
        -14    1    6    6    0    0  0.51144120566E+00  0.24678906689E+02  0.16252686825E+02  0.29554353935E+02  0.00000000000E+00 0.  1.
</event>
<event>
12    1  0.8500177E-002  0.2689445E+03  0.7818608E-02  0.1102050E+00
         21   -1    0    0  501  502  0.00000000000E+00  0.00000000000E+00  0.57519843815E+03  0.57519843815E+03  0.00000000000E+00 0. -1.
         21   -1    0    0  502  503 -0.00000000000E+00 -0.00000000000E+00 -0.24248968051E+03  0.24248968051E+03  0.00000000000E+00 0. -1.
         -6    2    1    2    0  503  0.68931560732E+02  0.19337650346E+03 -0.11815202003E+03  0.29270565421E+03  0.17196123987E+03 0.  0.
        -24    2    3    3    0    0  0.56236052330E+02  0.17694126512E+02 -0.54116570508E+02  0.10522738268E+03  0.68327323722E+02 0.  0.
          6    2    1    2  501    0 -0.68931560732E+02 -0.19337650346E+03  0.45086077767E+03  0.52498246445E+03  0.17373863987E+03 0.  0.
         24    2    5    5    0    0 -0.59038749958E+02 -0.68378402670E+02  0.11570104240E+03  0.16710464864E+03  0.79850187445E+02 0.  0.
          5    1    5    5  501    0 -0.98928107740E+01 -0.12499810079E+03  0.33515973527E+03  0.35787781581E+03  0.47000000000E+01 0. -1.
        -13    1    6    6    0    0  0.14006789692E+02 -0.28636431895E+02  0.57025098108E+02  0.65330675822E+02  0.00000000000E+00 0.  1.
         14    1    6    6    0    0 -0.73045539650E+02 -0.39741970774E+02  0.58675944297E+02  0.10177397282E+03  0.00000000000E+00 0. -1.
         -5    1    3    3    0  503  0.12695508402E+02  0.17568237694E+03 -0.64035449525E+02  0.18747827153E+03  0.47000000000E+01 0.  1.
         13    1    4    4    0    0  0.31124654902E+02  0.20604994346E+02  0.79903789136E+01  0.38172713946E+02  0.00000000000E+00 0. -1.
        -14    1    4    4    0    0  0.25111397427E+02 -0.29108678341E+01 -0.62106949421E+02  0.67054668732E+02  0.00000000000E+00 0.  1.
</event>
<event>
12    1  0.8500177E-002  0.3476472E+03  0.7818608E-02  0.1063634E+00
         21   -1    0    0  503  502  0.00000000000E+00  0.00000000000E+00  0.80355201219E+03  0.80355201219E+03  0.00000000000E+00 0. -1.
         21   -1    0    0  501  503 -0.00000000000E+00 -0.00000000000E+00 -0.18623920033E+03  0.18623920033E+03  0.00000000000E+00 0.  1.
          6    2    1    2  501    0  0.23613107465E+02 -0.30114539538E+03  0.91120816008E+02  0.35939061373E+03  0.17208277694E+03 0.  0.
         24    2    3    3    0    0 -0.10077785430E+02 -0.90677413619E+02  0.81244719900E+02  0.14596269876E+03  0.79877717910E+02 0.  0.
         -6    2    1    2    0  502 -0.23613107465E+02  0.30114539538E+03  0.52619199585E+03  0.63040059880E+03  0.17111624839E+03 0.  0.
        -24    2    5    5    0    0 -0.78097631695E+02  0.22890167012E+03  0.41771920431E+03  0.48906356994E+03  0.78731360572E+02 0.  0.
          5    1    3    3  501    0  0.33690892895E+02 -0.21046798176E+03  0.98760961085E+01  0.21342791496E+03  0.47000000000E+01 0. -1.
        -13    1    4    4    0    0  0.22320864390E+01 -0.55320278441E+02 -0.12399160971E+01  0.55379173058E+02  0.00000000000E+00 0.  1.
         14    1    4    4    0    0 -0.12309871869E+02 -0.35357135178E+02  0.82484635997E+02  0.90583525704E+02  0.00000000000E+00 0. -1.
         -5    1    5    5    0  502  0.54484524230E+02  0.72243725264E+02  0.10847279155E+03  0.14133702886E+03  0.47000000000E+01 0.  1.
         11    1    6    6    0    0 -0.10562978155E+02  0.14062030152E+03  0.26491696149E+03  0.30011104977E+03  0.00000000000E+00 0. -1.
        -12    1    6    6    0    0 -0.67534653540E+02  0.88281368597E+02  0.15280224282E+03  0.18895252017E+03  0.00000000000E+00 0.  1.
</event>
<event>
12    1  0.8500177E-002  0.1793801E+03  0.7818608E-02  0.1168994E+00
         21   -1    0    0  503  502  0.00000000000E+00  0.00000000000E+00  0.41752727659E+03  0.41752727659E+03  0.00000000000E+00 0. -1.
         21   -1    0    0  501  503 -0.00000000000E+00 -0.00000000000E+00 -0.81367592214E+02  0.81367592214E+02  0.00000000000E+00 0. -1.
          6    2    1    2  501    0  0.41498094042E+02  0.11104651658E+02  0.10315594701E+03  0.20484050842E+03  0.17167725356E+03 0.  0.
         24    2    3    3    0    0  0.86174231558E+02  0.25770030022E+02  0.49251167033E+02  0.13315476444E+03  0.84937749015E+02 0.  0.
         -6    2    1    2    0  502 -0.41498094042E+02 -0.11104651658E+02  0.23300373736E+03  0.29405436038E+03  0.17416032882E+03 0.  0.
        -24    2    5    5    0    0 -0.12124470724E+02 -0.65566188036E+02  0.89389529942E+02  0.13760628827E+03  0.80616838843E+02 0.  0.
          5    1    3    3  501    0 -0.44676137515E+02 -0.14665378364E+02  0.53904779977E+02  0.71685743982E+02  0.47000000000E+01 0. -1.
        -11    1    4    4    0    0  0.20332040767E+02 -0.21166181197E+02  0.42990444306E+02  0.52053601315E+02  0.00000000000E+00 0.  1.
         12    1    4    4    0    0  0.65842190790E+02  0.46936211219E+02  0.62607227270E+01  0.81101163128E+02  0.00000000000E+00 0. -1.
         -5    1    5    5    0  502 -0.29373623318E+02  0.54461536379E+02  0.14361420742E+03  0.15644807210E+03  0.47000000000E+01 0.  1.
         11    1    6    6    0    0 -0.69772228639E+01 -0.66197762620E+02  0.10322773581E+03  0.12282829827E+03  0.00000000000E+00 0. -1.
        -12    1    6    6    0    0 -0.51472478602E+01  0.63157458406E+00 -0.13838205867E+02  0.14777990006E+02  0.00000000000E+00 0.  1.
</event>
<event>
12    1  0.8500177E-002  0.2945923E+03  0.7818608E-02  0.1088068E+00
         21   -1    0    0  501  502  0.00000000000E+00  0.00000000000E+00  0.10509902847E+03  0.10509902847E+03  0.00000000000E+00 0. -1.
         21   -1    0    0  502  503 -0.00000000000E+00 -0.00000000000E+00 -0.94163285053E+03  0.94163285053E+03  0.00000000000E+00 0.  1.
         -6    2    1    2    0  503  0.17900678002E+03  0.15768399027E+03 -0.60302599214E+03  0.67081892276E+03  0.17161005755E+03 0.  0.
        -24    2    3    3    0    0  0.17996852317E+03  0.10456100041E+03 -0.36809492663E+03  0.42990883052E+03  0.77498744543E+02 0.  0.
          6    2    1    2  501    0 -0.17900678002E+03 -0.15768399027E+03 -0.23350782992E+03  0.37591295624E+03  0.17284957610E+03 0.  0.
         24    2    5    5    0    0 -0.11870738013E+03 -0.13898875604E+03 -0.88840911235E+02  0.21800115563E+03  0.78882697384E+02 0.  0.
          5    1    5    5  501    0 -0.60299399889E+02 -0.18695234230E+02 -0.14466691868E+03  0.15791180061E+03  0.47000000000E+01 0. -1.
        -11    1    6    6    0    0 -0.50229864288E+02 -0.34695986284E+02 -0.68215425662E+02  0.91543405163E+02  0.00000000000E+00 0.  1.
         12    1    6    6    0    0 -0.68477515839E+02 -0.10429276976E+03 -0.20625485573E+02  0.12645775047E+03  0.00000000000E+00 0. -1.
         -5    1    3    3    0  503 -0.96174315409E+00  0.53122989857E+02 -0.23493106551E+03  0.24091009224E+03  0.47000000000E+01 0.  1.
         13    1    4    4    0    0  0.30765319688E+02  0.58232736250E+02 -0.10749150769E+03  0.12606339949E+03  0.00000000000E+00 0. -1.
        -14    1    4    4    0    0  0.14920320348E+03  0.46328264165E+02 -0.26060341894E+03  0.30384543102E+03  0.00000000000E+00 0.  1.
</event>
<event>
12    1  0.8500177E-002  0.2012708E+03  0.7818608E-02  0.1149061E+00
         21   -1    0    0  503  502  0.00000000000E+00  0.00000000000E+00  0.78692205734E+03  0.78692205734E+03  0.00000000000E+00 0. -1.
         21   -1    0    0  501  503 -0.00000000000E+00 -0.00000000000E+00 -0.52964271029E+02  0.52964271029E+02  0.00000000000E+00 0. -1.
          6    2    1    2  501    0 -0.95931579946E+02  0.41287228985E+02  0.44610202052E+03  0.48864443268E+03  0.16987897327E+03 0.  0.
         24    2    3    3    0    0 -0.12080631540E+03  0.65444928582E+02  0.41996034395E+03  0.44496578609E+03  0.52446694675E+02 0.  0.
         -6    2    1    2    0  502  0.95931579946E+02 -0.41287228985E+02  0.28785576579E+03  0.35124189570E+03  0.17205355005E+03 0.  0.
        -24    2    5    5    0    0  0.59116868078E+02 -0.92517088729E+02  0.22003743243E+03  0.25849903679E+03  0.79693566557E+02 0.  0.
          5    1    3    3  501    0  0.24874735449E+02 -0.24157699597E+02  0.26141676573E+02  0.43678646585E+02  0.47000000000E+01 0. -1.
        -13    1    4    4    0    0 -0.35437275664E+01  0.96234859306E+01  0.79627150792E+01  0.12983617291E+02  0.00000000000E+00 0.  1.
         14    1    4    4    0    0 -0.11726258783E+03  0.55821442652E+02  0.41199762887E+03  0.43198216880E+03  0.00000000000E+00 0. -1.
         -5    1    5    5    0  502  0.36814711868E+02  0.51229859744E+02  0.67818333356E+02  0.92742858908E+02  0.47000000000E+01 0.  1.
         11    1    6    6    0    0  0.37995519243E+02 -0.95699810369E+02  0.12934200350E+03  0.16532231264E+03  0.00000000000E+00 0. -1.
        -12    1    6    6    0    0  0.21121348834E+02  0.31827216398E+01  0.90695428934E+02  0.93176724149E+02  0.00000000000E+00 0.  1.
</event>
<event>
12    1  0.8500177E-002  0.1868384E+03  0.7818608E-02  0.1161623E+00
         21   -1    0    0  503  502  0.00000000000E+00  0.00000000000E+00  0.13607995316E+02  0.13607995316E+02  0.00000000000E+00 0. -1.
         21   -1    0    0  501  503 -0.00000000000E+00 -0.00000000000E+00 -0.25530457305E+04  0.25530457305E+04  0.00000000000E+00 0. -1.
          6    2    1    2  501    0  0.69154339252E+02 -0.73413922016E+01 -0.12130823068E+04  0.12272033549E+04  0.17211383577E+03 0.  0.
         24    2    3    3    0    0  0.10163242462E+03  0.30711528804E+02 -0.97030734499E+03  0.97928275689E+03  0.78905173795E+02 0.  0.
         -6    2    1    2    0  502 -0.69154339252E+02  0.73413922016E+01 -0.13263554283E+04  0.13394503709E+04  0.17341382626E+03 0.  0.
        -24    2    5    5    0    0 -0.62614364442E+02  0.64662939046E+02 -0.65630551144E+03  0.66690482438E+03  0.76962757982E+02 0.  0.
          5    1    3    3  501    0 -0.32478085363E+02 -0.38052921005E+02 -0.24277496185E+03  0.24792059803E+03  0.47000000000E+01 0. -1.
        -13    1    4    4    0    0  0.31379537355E+02  0.12617810454E+02 -0.64929248809E+03  0.65017276135E+03  0.00000000000E+00 0.  1.
         14    1    4    4    0    0  0.70252887260E+02  0.18093718350E+02 -0.32101485690E+03  0.32910999554E+03  0.00000000000E+00 0. -1.
         -5    1    5    5    0  502 -0.65399748099E+01 -0.57321546845E+02 -0.67004991686E+03  0.67254554647E+03  0.47000000000E+01 0.  1.
         13    1    6    6    0    0  0.12701276666E+02  0.30016734412E+02 -0.12544747826E+03  0.12961248619E+03  0.00000000000E+00 0. -1.
        -14    1    6    6    0    0 -0.75315641108E+02  0.34646204634E+02 -0.53085803318E+03  0.53729233819E+03  0.00000000000E+00 0.  1.
</event>
<event>
12    1  0.8500177E-002  0.1934294E+03  0.7818608E-02  0.1155844E+00
         21   -1    0    0  503  502  0.00000000000E+00  0.00000000000E+00  0.95906761143E+02  0.95906761143E+02  0.00000000000E+00 0. -1.
         21   -1    0    0  501  503 -0.00000000000E+00 -0.00000000000E+00 -0.80586188994E+03  0.80586188994E+03  0.00000000000E+00 0. -1.
          6    2    1    2  501    0  0.13474730698E+02 -0.87020181389E+02 -0.68125816934E+03  0.70818614329E+03  0.17222322702E+03 0.  0.
         24    2    3    3    0    0  0.30470020728E+02 -0.74007984125E+02 -0.23508411902E+03  0.26147423351E+03  0.81845145851E+02 0.  0.
         -6    2    1    2    0  502 -0.13474730698E+02  0.87020181389E+02 -0.28696959462E+02  0.19358250779E+03  0.16998997472E+03 0.  0.
        -24    2    5    5    0    0  0.85007503317E+00 -0.26160241632E+01  0.29922469441E+02  0.85424397371E+02  0.79965037852E+02 0.  0.
          5    1    3    3  501    0 -0.16995290030E+02 -0.13012197264E+02 -0.44617405032E+03  0.44671190978E+03  0.47000000000E+01 0. -1.
        -13    1    4    4    0    0  0.24699197412E+01 -0.71378917880E+02 -0.21596232616E+03  0.22746599030E+03  0.00000000000E+00 0.  1.
         14    1    4    4    0    0  0.28000100986E+02 -0.26290662444E+01 -0.19121792859E+02  0.34008243217E+02  0.00000000000E+00 0. -1.
         -5    1    5    5    0  502 -0.14324805731E+02  0.89636205552E+02 -0.58619428903E+02  0.10815811042E+03  0.47000000000E+01 0.  1.
         11    1    6    6    0    0  0.18688192492E+02  0.39895498408E+01  0.52518942993E+02  0.55887426311E+02  0.00000000000E+00 0. -1.
        -12    1    6    6    0    0 -0.17838117459E+02 -0.66055740040E+01 -0.22596473552E+02  0.29536971060E+02  0.00000000000E+00 0.  1.
</event>
<event>
12    1  0.8500177E-002  0.2124189E+03  0.7818608E-02  0.1139859E+00
         21   -1    0    0  501  502  0.00000000000E+00  0.00000000000E+00  0.63991729812E+03  0.63991729812E+03  0.00000000000E+00 0. -1.
         21   -1    0    0  502  503 -0.00000000000E+00 -0.00000000000E+00 -0.31643874873E+03  0.31643874873E+03  0.00000000000E+00 0. -1.
         -6    2    1    2    0  503 -0.26494361318E+02 -0.12969602317E+03 -0.26000698921E+03  0.33574604995E+03  0.16612876334E+03 0.  0.
        -24    2    3    3    0    0 -0.65224769523E+02 -0.10045605551E+03 -0.24596328234E+03  0.28500813581E+03  0.79912524469E+02 0.  0.
          6    2    1    2  501    0  0.26494361318E+02  0.12969602317E+03  0.58348553859E+03  0.62060999691E+03  0.16485868163E+03 0.  0.
         24    2    5    5    0    0  0.44462293780E+02  0.15489851878E+03  0.50125561171E+03  0.53262213833E+03  0.80366082916E+02 0.  0.
          5    1    5    5  501    0 -0.17967932462E+02 -0.25202495605E+02  0.82229926880E+02  0.87987858573E+02  0.47000000000E+01 0. -1.
        -11    1    6    6    0    0  0.21615960935E+02  0.16124714855E+02  0.27850332282E+02  0.38767218169E+02  0.00000000000E+00 0.  1.
         12    1    6    6    0    0  0.22846332844E+02  0.13877380392E+03  0.47340527943E+03  0.49385492017E+03  0.00000000000E+00 0. -1.
         -5    1    3    3    0  503  0.38730408205E+02 -0.29239967667E+02 -0.14043706863E+02  0.50737914141E+02  0.47000000000E+01 0.  1.
         11    1    4    4    0    0  0.10595373691E+02 -0.39246177999E+01 -0.67300390192E+02  0.68242267610E+02  0.00000000000E+00 0. -1.
        -12    1    4    4    0    0 -0.75820143214E+02 -0.96531437708E+02 -0.17866289215E+03  0.21676586820E+03  0.00000000000E+00 0.  1.
</event>
<event>
12    1  0.8500177E-002  0.1806995E+03  0.7818608E-02  0.1167478E+00
         21   -1    0    0  501  502  0.00000000000E+00  0.00000000000E+00  0.62515074782E+02  0.62515074782E+02  0.00000000000E+00 0. -1.
         21   -1    0    0  502  503 -0.00000000000E+00 -0.00000000000E+00 -0.74565628510E+03  0.74565628510E+03  0.00000000000E+00 0. -1.
         -6    2    1    2    0  503  0.41950606561E+02 -0.39835915962E+02 -0.56573786551E+03  0.59389530995E+03  0.17118864775E+03 0.  0.
        -24    2    3    3    0    0  0.92016609088E+01  0.38225677221E+02 -0.19629990193E+03  0.21485361738E+03  0.77990720226E+02 0.  0.
          6    2    1    2  501    0 -0.41950606561E+02  0.39835915962E+02 -0.11740334480E+03  0.21427604993E+03  0.16965826420E+03 0.  0.
         24    2    5    5    0    0 -0.87660648009E+01  0.86612684122E+02 -0.60480029451E+02  0.13333388736E+03  0.80879482021E+02 0.  0.
          5    1    5    5  501    0 -0.33184541761E+02 -0.46776768159E+02 -0.56923315352E+02  0.80942162573E+02  0.47000000000E+01 0. -1.
        -13    1    6    6    0    0 -0.85109316616E+00  0.33043430203E+02  0.18266206282E+02  0.37765684570E+02  0.00000000000E+00 0.  1.
         14    1    6    6    0    0 -0.79149716348E+01  0.53569253919E+02 -0.78746235733E+02  0.95568202785E+02  0.00000000000E+00 0. -1.
         -5    1    3    3    0  503  0.32748945653E+02 -0.78061593184E+02 -0.36943796358E+03  0.37904169257E+03  0.47000000000E+01 0.  1.
         13    1    4    4    0    0  0.28567050324E+02  0.36610195547E+02 -0.18812492301E+03  0.19377143608E+03  0.00000000000E+00 0. -1.
        -14    1    4    4    0    0 -0.19365389416E+02  0.16154816744E+01 -0.81749789248E+01  0.21082181307E+02  0.00000000000E+00 0.  1.
</event>
<event>
12    1  0.8500177E-002  0.2922227E+03  0.7818608E-02  0.1089319E+00
         21   -1    0    0  501  502  0.00000000000E+00  0.00000000000E+00  0.85313748729E+02  0.85313748729E+02  0.00000000000E+00 0.  1.
         21   -1    0    0  502  503 -0.00000000000E+00 -0.00000000000E+00 -0.99778880293E+03  0.99778880293E+03  0.00000000000E+00 0. -1.
         -6    2    1    2    0  503 -0.23126023603E+03 -0.53325257801E+02 -0.45073787270E+03  0.53717663799E+03  0.17049701062E+03 0.  0.
        -24    2    3    3    0    0 -0.19308220414E+03  0.26182734912E+01 -0.40369697647E+03  0.45458016875E+03  0.79901740289E+02 0.  0.
          6    2    1    2  501    0  0.23126023603E+03  0.53325257801E+02 -0.46173718150E+03  0.54592591367E+03  0.16884607945E+03 0.  0.
         24    2    5    5    0    0  0.15965215439E+03  0.90962075643E+02 -0.38676891761E+03  0.43553307874E+03  0.79598727615E+02 0.  0.
          5    1    5    5  501    0  0.71608081640E+02 -0.37636817842E+02 -0.74968263887E+02  0.11039283493E+03  0.47000000000E+01 0. -1.
        -13    1    6    6    0    0  0.81204955511E+02  0.81892771921E+02 -0.17564486414E+03  0.21012327142E+03  0.00000000000E+00 0.  1.
         14    1    6    6    0    0  0.78447198878E+02  0.90693037222E+01 -0.21112405347E+03  0.22540980732E+03  0.00000000000E+00 0. -1.
         -5    1    3    3    0  503 -0.38178031885E+02 -0.55943531293E+02 -0.47040896231E+02  0.82596469237E+02  0.47000000000E+01 0.  1.
         11    1    4    4    0    0 -0.14010861033E+03  0.11185022850E+02 -0.20353610969E+03  0.24735091545E+03  0.00000000000E+00 0. -1.
        -12    1    4    4    0    0 -0.52973593812E+02 -0.85667493585E+01 -0.20016086678E+03  0.20722925331E+03  0.00000000000E+00 0.  1.
</event>
<event>
12    1  0.8500177E-002  0.2052451E+03  0.7818608E-02  0.1145559E+00
         21   -1    0    0  503  502  0.00000000000E+00  0.00000000000E+00  0.11874964176E+04  0.11874964176E+04  0.00000000000E+00 0. -1.
         21   -1    0    0  501  503 -0.00000000000E+00 -0.00000000000E+00 -0.35330980757E+02  0.35330980757E+02  0.00000000000E+00 0.  1.
          6    2    1    2  501    0 -0.90784057238E+02 -0.64887247514E+02  0.58146921434E+03  0.61662954520E+03  0.17225982945E+03 0.  0.
         24    2    3    3    0    0 -0.10572969953E+03 -0.10106859439E+03  0.47714041179E+03  0.50509905104E+03  0.77900248157E+02 0.  0.
         -6    2    1    2    0  502  0.90784057238E+02  0.64887247514E+02  0.57069622248E+03  0.60619785314E+03  0.17125874827E+03 0.  0.
        -24    2    5    5    0    0  0.61413396601E+02  0.27863951354E+02  0.53883031025E+03  0.54900618830E+03  0.80756959315E+02 0.  0.
          5    1    3    3  501    0  0.14945642292E+02  0.36181346873E+02  0.10432880255E+03  0.11153049416E+03  0.47000000000E+01 0. -1.
        -11    1    4    4    0    0 -0.60840131892E+01 -0.55730403887E+02  0.15061294757E+03  0.16070828576E+03  0.00000000000E+00 0.  1.
         12    1    4    4    0    0 -0.99645686342E+02 -0.45338190500E+02  0.32652746422E+03  0.34439076529E+03  0.00000000000E+00 0. -1.
         -5    1    5    5    0  502  0.29370660637E+02  0.37023296160E+02  0.31865912224E+02  0.57191664835E+02  0.47000000000E+01 0.  1.
         11    1    6    6    0    0  0.24607901793E+02  0.38400331696E+02  0.11910888099E+03  0.12754238447E+03  0.00000000000E+00 0. -1.
        -12    1    6    6    0    0  0.36805494808E+02 -0.10536380341E+02  0.41972142926E+03  0.42146380383E+03  0.00000000000E+00 0.  1.
</event>
<event>
12    1  0.8500177E-002  0.3446058E+03  0.7818608E-02  0.1064890E+00
         21   -1    0    0  501  502  0.00000000000E+00  0.00000000000E+00  0.12946330042E+03  0.12946330042E+03  0.00000000000E+00 0.  1.
         21   -1    0    0  502  503 -0.00000000000E+00 -0.00000000000E+00 -0.91636321995E+03  0.91636321995E+03  0.00000000000E+00 0. -1.
         -6    2    1    2    0  503 -0.29559911072E+03  0.38940318524E+02 -0.39821375205E+03  0.52661876254E+03  0.17279451980E+03 0.  0.
        -24    2    3    3    0    0 -0.19948097305E+03  0.54390151226E+02 -0.35832805792E+03  0.42130802085E+03  0.79690050676E+02 0.  0.
          6    2    1    2  501    0  0.29559911072E+03 -0.38940318524E+02 -0.38868616748E+03  0.51920775783E+03  0.17205980452E+03 0.  0.
         24    2    5    5    0    0  0.23937002164E+03 -0.87582560055E+02 -0.27075156600E+03  0.37971425136E+03  0.76862150040E+02 0.  0.
          5    1    5    5  501    0  0.56229089078E+02  0.48642241531E+02 -0.11793460148E+03  0.13949350647E+03  0.47000000000E+01 0. -1.
        -13    1    6    6    0    0 -0.19315311793E+01 -0.13631847737E+02 -0.12021933084E+02  0.18277991151E+02  0.00000000000E+00 0.  1.
         14    1    6    6    0    0  0.24130155282E+03 -0.73950712317E+02 -0.25872963292E+03  0.36143626021E+03  0.00000000000E+00 0. -1.
         -5    1    3    3    0  503 -0.96118137671E+02 -0.15449832702E+02 -0.39885694125E+02  0.10531074169E+03  0.47000000000E+01 0.  1.
         13    1    4    4    0    0 -0.44887414595E+02 -0.74124134113E+01 -0.13696702605E+03  0.14432529260E+03  0.00000000000E+00 0. -1.
        -14    1    4    4    0    0 -0.15459355846E+03  0.61802564637E+02 -0.22136103188E+03  0.27698272824E+03  0.00000000000E+00 0.  1.
</event>
<event>
12    1  0.8500177E-002  0.1874167E+03  0.7818608E-02  0.1160913E+00
         21   -1    0    0  501  502  0.00000000000E+00  0.00000000000E+00  0.10829753558E+03  0.10829753558E+03  0.00000000000E+00 0.  1.
         21   -1    0    0  502  503 -0.00000000000E+00 -0.00000000000E+00 -0.37809683825E+03  0.37809683825E+03  0.00000000000E+00 0.  1.
         -6    2    1    2    0  503 -0.74754150996E+02 -0.12771840995E+02 -0.22711231218E+03  0.29417778712E+03  0.17090718265E+03 0.  0.
        -24    2    3    3    0    0 -0.68824616974E+02  0.40460294056E+02 -0.81723560211E+02  0.13916553350E+03  0.79463464077E+02 0.  0.
          6    2    1    2  501    0  0.74754150996E+02  0.12771840995E+02 -0.42686990492E+02  0.19221658671E+03  0.17138767177E+03 0.  0.
         24    2    5    5    0    0  0.11024968269E+02 -0.56337719556E+01  0.36645175917E+02  0.88699158485E+02  0.79820940149E+02 0.  0.
          5    1    5    5  501    0  0.63729182727E+02  0.18405612950E+02 -0.79332166409E+02  0.10351742822E+03  0.47000000000E+01 0. -1.
        -13    1    6    6    0    0 -0.30045315252E+02 -0.14856368303E+02  0.32017516617E+02  0.46352497431E+02  0.00000000000E+00 0.  1.
         14    1    6    6    0    0  0.41070283521E+02  0.92225963469E+01  0.46276593004E+01  0.42346661055E+02  0.00000000000E+00 0. -1.
         -5    1    3    3    0  503 -0.59295340221E+01 -0.53232135051E+02 -0.14538875196E+03  0.15501225362E+03  0.47000000000E+01 0.  1.
         13    1    4    4    0    0 -0.69379876126E+02  0.40502563480E+02 -0.27461885268E+02  0.84901001185E+02  0.00000000000E+00 0. -1.
        -14    1    4    4    0    0  0.55525915163E+00 -0.42269424090E-01 -0.54261674943E+02  0.54264532312E+02  0.00000000000E+00 0.  1.
</event>
<event>
12    1  0.8500177E-002  0.2079980E+03  0.7818608E-02  0.1144040E+00
         21   -1    0    0  503  502  0.00000000000E+00  0.00000000000E+00  0.32658086232E+03  0.32658086232E+03  0.00000000000E+00 0.  1.
         21   -1    0    0  501  503 -0.00000000000E+00 -0.00000000000E+00 -0.14095162633E+03  0.14095162633E+03  0.00000000000E+00 0.  1.
          6    2    1    2  501    0 -0.11363581620E+03  0.15941174521E+01  0.15968209149E+03  0.26222421647E+03  0.17420542307E+03 0.  0.
         24    2    3    3    0    0 -0.62038924930E+02 -0.23037387542E+02  0.17497991324E+03  0.20285197062E+03  0.78430877322E+02 0.  0.
         -6    2    1    2    0  502  0.11363581620E+03 -0.15941174521E+01  0.25947144495E+02  0.20530827217E+03  0.16900471112E+03 0.  0.
        -24    2    5    5    0    0  0.11270457222E+03  0.36197496732E+02 -0.20231796724E+02  0.14544461099E+03  0.82050166959E+02 0.  0.
          5    1    3    3  501    0 -0.51596891267E+02  0.24631504994E+02 -0.15297821745E+02  0.59372245847E+02  0.47000000000E+01 0. -1.
        -13    1    4    4    0    0 -0.73347416871E+02  0.35045420237E+01  0.11795522995E+03  0.13894445527E+03  0.00000000000E+00 0.  1.
         14    1    4    4    0    0  0.11308491941E+02 -0.26541929566E+02  0.57024683287E+02  0.63907515357E+02  0.00000000000E+00 0. -1.
         -5    1    5    5    0  502  0.93124397634E+00 -0.37791614184E+02  0.46178941219E+02  0.59863661182E+02  0.47000000000E+01 0.  1.
         11    1    6    6    0    0  0.15838656073E+02 -0.20100804062E+02  0.12834274093E+02  0.28629075110E+02  0.00000000000E+00 0. -1.
        -12    1    6    6    0    0  0.96865916148E+02  0.56298300794E+02 -0.33066070818E+02  0.11681553588E+03  0.00000000000E+00 0.  1.
</event>
<event>
12    1  0.8500177E-002  0.1888521E+03  0.7818608E-02  0.1159824E+00
         21   -1    0    0  501  502  0.00000000000E+00  0.00000000000E+00  0.14378615529E+03  0.14378615529E+03  0.00000000000E+00 0. -1.
         21   -1    0    0  502  503 -0.00000000000E+00 -0.00000000000E+00 -0.71421570272E+03  0.71421570272E+03  0.00000000000E+00 0. -1.
         -6    2    1    2    0  503 -0.66926131698E+02 -0.35778493316E+02 -0.63212458601E+03  0.65932778770E+03  0.17138387237E+03 0.  0.
        -24    2    3    3    0    0 -0.52458046553E+02  0.24204509330E+02 -0.53885923078E+03  0.54740012097E+03  0.77070856490E+02 0.  0.
          6    2    1    2  501    0  0.66926131698E+02  0.35778493316E+02  0.61695038575E+02  0.19867407030E+03  0.17293322624E+03 0.  0.
         24    2    5    5    0    0 -0.81321301434E+01 -0.12208933020E+02 -0.10423298451E+02  0.83958420576E+02  0.82007204859E+02 0.  0.
          5    1    5    5  501    0  0.75058261841E+02  0.47987426336E+02  0.72118337026E+02  0.11471564973E+03  0.47000000000E+01 0. -1.
        -11    1    6    6    0    0  0.18204616552E+02  0.23090544143E+02 -0.23909771484E+02  0.37898000806E+02  0.00000000000E+00 0.  1.
         12    1    6    6    0    0 -0.26336746696E+02 -0.35299477163E+02  0.13486473033E+02  0.46060419770E+02  0.00000000000E+00 0. -1.
         -5    1    3    3    0  503 -0.14468085145E+02 -0.59983002646E+02 -0.93265355233E+02  0.11192766674E+03  0.47000000000E+01 0.  1.
         13    1    4    4    0    0 -0.62056400278E+02  0.34464235894E+01 -0.24898121982E+03  0.25662136012E+03  0.00000000000E+00 0. -1.
        -14    1    4    4    0    0  0.95983537257E+01  0.20758085740E+02 -0.28987801096E+03  0.29077876084E+03  0.00000000000E+00 0.  1.
</event>
<event>
12    1  0.8500177E-002  0.1801283E+03  0.7818608E-02  0.1167772E+00
         21   -1    0    0  503  502  0.00000000000E+00  0.00000000000E+00  0.25323835339E+03  0.25323835339E+03  0.00000000000E+00 0. -1.
         21   -1    0    0  501  503 -0.00000000000E+00 -0.00000000000E+00 -0.13223685901E+03  0.13223685901E+03  0.00000000000E+00 0. -1.
          6    2    1    2  501    0  0.45498415189E+02 -0.29026915039E+02  0.25470782150E+02  0.18192025519E+03  0.17185328313E+03 0.  0.
         24    2    3    3    0    0  0.52838177258E+02 -0.79979031798E+02  0.59991547023E+01  0.12668236434E+03  0.82606979577E+02 0.  0.
         -6    2    1    2    0  502 -0.45498415189E+02  0.29026915039E+02  0.95530712229E+02  0.20355495721E+03  0.17145213923E+03 0.  0.
        -24    2    5    5    0    0 -0.48198921171E+02 -0.21079629100E+02  0.52071409771E+00  0.96005209454E+02  0.80307174861E+02 0.  0.
          5    1    3    3  501    0 -0.73397620690E+01  0.50952116759E+02  0.19471627447E+02  0.55237890844E+02  0.47000000000E+01 0. -1.
        -13    1    4    4    0    0 -0.20782081596E+02 -0.12157965234E+02  0.10975105718E+02  0.26460611852E+02  0.00000000000E+00 0.  1.
         14    1    4    4    0    0  0.73620258854E+02 -0.67821066565E+02 -0.49759510154E+01  0.10022175249E+03  0.00000000000E+00 0. -1.
         -5    1    5    5    0  502  0.27005059821E+01  0.50106544139E+02  0.95009998132E+02  0.10754974776E+03  0.47000000000E+01 0.  1.
         11    1    6    6    0    0 -0.28922792050E+02  0.20018083901E+02  0.26192217150E+02  0.43855259916E+02  0.00000000000E+00 0. -1.
        -12    1    6    6    0    0 -0.19276129120E+02 -0.41097713002E+02 -0.25671503052E+02  0.52149949538E+02  0.00000000000E+00 0.  1.
</event>
<event>
12    1  0.8500177E-002  0.1775762E+03  0.7818608E-02  0.1170237E+00
         21   -1    0    0  501  502  0.00000000000E+00  0.00000000000E+00  0.79498683687E+03  0.79498683687E+03  0.00000000000E+00 0. -1.
         21   -1    0    0  502  503 -0.00000000000E+00 -0.00000000000E+00 -0.26140392847E+03  0.26140392847E+03  0.00000000000E+00 0. -1.
         -6    2    1    2    0  503 -0.26123341865E+02 -0.36059568356E+02 -0.21977960040E+03  0.28238276372E+03  0.17162235003E+03 0.  0.
        -24    2    3    3    0    0 -0.47046950775E+02 -0.10751741539E+02 -0.23041414926E+03  0.24754790851E+03  0.76552408872E+02 0.  0.
          6    2    1    2  501    0  0.26123341865E+02  0.36059568356E+02  0.75336250880E+03  0.77400800162E+03  0.17190286633E+03 0.  0.
         24    2    5    5    0    0  0.74033133794E+02  0.65948560726E+02  0.42382282740E+03  0.43963217767E+03  0.61810557811E+02 0.  0.
          5    1    5    5  501    0 -0.47909791929E+02 -0.29888992370E+02  0.32953968140E+03  0.33437582395E+03  0.47000000000E+01 0. -1.
        -11    1    6    6    0    0  0.57502297904E+02  0.77009491164E+02  0.32925947315E+03  0.34299967442E+03  0.00000000000E+00 0.  1.
         12    1    6    6    0    0  0.16530835890E+02 -0.11060930438E+02  0.94563354254E+02  0.96632503254E+02  0.00000000000E+00 0. -1.
         -5    1    3    3    0  503  0.20923608911E+02 -0.25307826816E+02  0.10634548857E+02  0.34834855209E+02  0.47000000000E+01 0.  1.
         13    1    4    4    0    0  0.15015995666E+02  0.15598149382E+02 -0.76676610290E+02  0.79674870288E+02  0.00000000000E+00 0. -1.
        -14    1    4    4    0    0 -0.62062946441E+02 -0.26349890921E+02 -0.15373753897E+03  0.16787303822E+03  0.00000000000E+00 0.  1.
</event>
<event>
12    1  0.8500177E-002  0.1919856E+03  0.7818608E-02  0.1157025E+00
         21   -1    0    0  503  502  0.00000000000E+00  0.00000000000E+00  0.10802716113E+03  0.10802716113E+03  0.00000000000E+00 0.  1.
         21   -1    0    0  501  503 -0.00000000000E+00 -0.00000000000E+00 -0.53602232140E+03  0.53602232140E+03  0.00000000000E+00 0.  1.
          6    2    1    2  501    0 -0.75667760607E+02  0.34250180863E+02 -0.40894805295E+03  0.45112131849E+03  0.17138625704E+03 0.  0.
         24    2    3    3    0    0 -0.71466995671E+02 -0.35533651349E+02 -0.22409746335E+03  0.25343656911E+03  0.87408521512E+02 0.  0.
         -6    2    1    2    0  502  0.75667760607E+02 -0.34250180863E+02 -0.19047107330E+02  0.19292816404E+03  0.17308899242E+03 0.  0.
        -24    2    5    5    0    0  0.11933673899E+03 -0.29178965691E+02  0.10325550727E+00  0.14474597550E+03  0.76542259237E+02 0.  0.
          5    1    3    3  501    0 -0.42007649362E+01  0.69783832213E+02 -0.18485058960E+03  0.19768474938E+03  0.47000000000E+01 0. -1.
        -11    1    4    4    0    0 -0.23420845617E+02  0.26916712974E+02 -0.10259094708E+03  0.10861835881E+03  0.00000000000E+00 0.  1.
         12    1    4    4    0    0 -0.48046150054E+02 -0.62450364324E+02 -0.12150651627E+03  0.14481821030E+03  0.00000000000E+00 0. -1.
         -5    1    5    5    0  502 -0.43668978382E+02 -0.50712151725E+01 -0.19150362838E+02  0.48182188546E+02  0.47000000000E+01 0.  1.
         13    1    6    6    0    0  0.78583364008E+02  0.45722945668E+01 -0.29560344537E+02  0.84083678235E+02  0.00000000000E+00 0. -1.
        -14    1    6    6    0    0  0.40753374981E+02 -0.33751260258E+02  0.29663600044E+02  0.60662297260E+02  0.00000000000E+00 0.  1.
</event>
<event>
12    1  0.8500177E-002  0.2161839E+03  0.7818608E-02  0.1136894E+00
         21   -1    0    0  501  502  0.00000000000E+00  0.00000000000E+00  0.13285660302E+04  0.13285660302E+04  0.00000000000E+00 0.  1.
         21   -1    0    0  502  503 -0.00000000000E+00 -0.00000000000E+00 -0.22594440721E+03  0.22594440721E+03  0.00000000000E+00 0. -1.
         -6    2    1    2    0  503  0.12873410369E+03  0.10430779221E+02 -0.16323198690E+03  0.27032943194E+03  0.17248782455E+03 0.  0.
        -24    2    3    3    0    0  0.15058221186E+03  0.22252143639E+02 -0.92053537441E+02  0.19479436621E+03  0.79377773519E+02 0.  0.
          6    2    1    2  501    0 -0.12873410369E+03 -0.10430779221E+02  0.12658536099E+04  0.12841810055E+04  0.17336153712E+03 0.  0.
         24    2    5    5    0    0 -0.74939648685E+02  0.23739816841E+02  0.38904722811E+03  0.40504905056E+03  0.80792684153E+02 0.  0.
          5    1    5    5  501    0 -0.53794455005E+02 -0.34170596062E+02  0.87680638179E+03  0.87913195493E+03  0.47000000000E+01 0. -1.
        -11    1    6    6    0    0 -0.20412788221E+02 -0.16798694856E+02  0.23750756697E+03  0.23897431335E+03  0.00000000000E+00 0.  1.
         12    1    6    6    0    0 -0.54526860464E+02  0.40538511697E+02  0.15153966114E+03  0.16607473722E+03  0.00000000000E+00 0. -1.
         -5    1    3    3    0  503 -0.21848108168E+02 -0.11821364417E+02 -0.71178449459E+02  0.75535065728E+02  0.47000000000E+01 0.  1.
         11    1    4    4    0    0  0.40655012090E+02 -0.74964662138E+01 -0.66147878803E+02  0.78003646606E+02  0.00000000000E+00 0. -1.
        -12    1    4    4    0    0  0.10992719977E+03  0.29748609852E+02 -0.25905658638E+02  0.11679071961E+03  0.00000000000E+00 0.  1.
</event>
<event>
12    1  0.8500177E-002  0.1833706E+03  0.7818608E-02  0.1165109E+00
         21   -1    0    0  501  502  0.00000000000E+00  0.00000000000E+00  0.24053701640E+03  0.24053701640E+03  0.00000000000E+00 0.  1.
         21   -1    0    0  502  503 -0.00000000000E+00 -0.00000000000E+00 -0.14830361192E+03  0.14830361192E+03  0.00000000000E+00 0. -1.
         -6    2    1    2    0  503 -0.63293842615E+02 -0.61670031071E+01  0.96851270473E+02  0.20541187295E+03  0.16961640992E+03 0.  0.
        -24    2    3    3    0    0 -0.86541000772E+02 -0.48845961274E+02  0.49754760036E+02  0.13757312939E+03  0.81089808459E+02 0.  0.
          6    2    1    2  501    0  0.63293842615E+02  0.61670031071E+01 -0.46178659978E+01  0.18342875537E+03  0.17199023569E+03 0.  0.
         24    2    5    5    0    0  0.42492426582E+02  0.53575516327E+02  0.43794172484E+02  0.11239297914E+03  0.77706563112E+02 0.  0.
          5    1    5    5  501    0  0.20801416033E+02 -0.47408513220E+02 -0.48412038482E+02  0.71035776230E+02  0.47000000000E+01 0. -1.
        -13    1    6    6    0    0  0.43226990457E+01  0.53858148543E+02  0.50124207112E+02  0.73700895721E+02  0.00000000000E+00 0.  1.
         14    1    6    6    0    0  0.38169727536E+02 -0.28263221642E+00 -0.63300346274E+01  0.38692083422E+02  0.00000000000E+00 0. -1.
         -5    1    3    3    0  503  0.23247158157E+02  0.42678958167E+02  0.47096510437E+02  0.67838743561E+02  0.47000000000E+01 0.  1.
         11    1    4    4    0    0  0.97326359828E+01 -0.28153731550E+02  0.11584716154E+02  0.31961890616E+02  0.00000000000E+00 0. -1.
        -12    1    4    4    0    0 -0.96273636755E+02 -0.20692229723E+02  0.38170043881E+02  0.10561123877E+03  0.00000000000E+00 0.  1.
</event>
<event>
12    1  0.8500177E-002  0.1910145E+03  0.7818608E-02  0.1158077E+00
         21   -1    0    0  503  502  0.00000000000E+00  0.00000000000E+00  0.35274890075E+03  0.35274890075E+03  0.00000000000E+00 0.  1.
         21   -1    0    0  501  503 -0.00000000000E+00 -0.00000000000E+00 -0.16522237210E+03  0.16522237210E+03  0.00000000000E+00 0.  1.
          6    2    1    2  501    0  0.75741780278E+02  0.14039006341E+02 -0.65864651050E+02  0.20205124746E+03  0.17479314450E+03 0.  0.
         24    2    3    3    0    0  0.97613502646E+02  0.81573711047E+01  0.59872641226E+01  0.12656778181E+03  0.79928827457E+02 0.  0.
         -6    2    1    2    0  502 -0.75741780278E+02 -0.14039006341E+02  0.25339117970E+03  0.31592002539E+03  0.17223374093E+03 0.  0.
        -24    2    5    5    0    0 -0.18235033100E+02 -0.44058428118E+01  0.33782342613E+02  0.88653760544E+02  0.79789189137E+02 0.  0.
          5    1    3    3  501    0 -0.21871722368E+02  0.58816352367E+01 -0.71851915173E+02  0.75483465649E+02  0.47000000000E+01 0. -1.
        -11    1    4    4    0    0  0.61678333895E+02  0.34771873870E+00 -0.35469947177E+02  0.71150930655E+02  0.00000000000E+00 0.  1.
         12    1    4    4    0    0  0.35935168751E+02  0.78096523660E+01  0.41457211300E+02  0.55416851155E+02  0.00000000000E+00 0. -1.
         -5    1    5    5    0  502 -0.57506747178E+02 -0.96331635295E+01  0.21960883709E+03  0.22726626485E+03  0.47000000000E+01 0.  1.
         13    1    6    6    0    0 -0.28788444125E+02  0.29489969583E+02  0.24184565769E+01  0.41282947489E+02  0.00000000000E+00 0. -1.
        -14    1    6    6    0    0  0.10553411025E+02 -0.33895812395E+02  0.31363886036E+02  0.47370813055E+02  0.00000000000E+00 0.  1.
</event>
<event>
12    1  0.8500177E-002  0.2416631E+03  0.7818608E-02  0.1118858E+00
         21   -1    0    0  501  502  0.00000000000E+00  0.00000000000E+00  0.82043172527E+02  0.82043172527E+02  0.00000000000E+00 0. -1.
         21   -1    0    0  502  503 -0.00000000000E+00 -0.00000000000E+00 -0.75086414568E+03  0.75086414568E+03  0.00000000000E+00 0.  1.
         -6    2    1    2    0  503  0.15518042313E+03  0.68747424330E+02 -0.43226718603E+03  0.49473760328E+03  0.17059661164E+03 0.  0.
        -24    2    3    3    0    0  0.16290437509E+03  0.25097028086E+02 -0.39661861589E+03  0.43765934928E+03  0.84093301163E+02 0.  0.
          6    2    1    2  501    0 -0.15518042313E+03 -0.68747424330E+02 -0.23655378712E+03  0.33816971493E+03  0.17202874707E+03 0.  0.
         24    2    5    5    0    0 -0.90723461312E+02 -0.98837457530E+02 -0.21097438604E+03  0.26242999098E+03  0.79747847343E+02 0.  0.
          5    1    5    5  501    0 -0.64456961817E+02  0.30090033199E+02 -0.25579401079E+02  0.75739723951E+02  0.47000000000E+01 0. -1.
        -11    1    6    6    0    0  0.10758960047E+02  0.23692772391E+01 -0.27407925767E+02  0.29539178912E+02  0.00000000000E+00 0.  1.
         12    1    6    6    0    0 -0.10148242136E+03 -0.10120673477E+03 -0.18356646027E+03  0.23289081207E+03  0.00000000000E+00 0. -1.
         -5    1    3    3    0  503 -0.77239519588E+01  0.43650396244E+02 -0.35648570140E+02  0.57078253995E+02  0.47000000000E+01 0.  1.
         11    1    4    4    0    0  0.66004737971E+01 -0.19119450684E+02 -0.25498094827E+02  0.32546466607E+02  0.00000000000E+00 0. -1.
        -12    1    4    4    0    0  0.15630390129E+03  0.44216478771E+02 -0.37112052106E+03  0.40511288267E+03  0.00000000000E+00 0.  1.
</event>
<event>
12    1  0.8500177E-002  0.1781658E+03  0.7818608E-02  0.1170775E+00
         21   -1    0    0  501  502  0.00000000000E+00  0.00000000000E+00  0.50214088330E+03  0.50214088330E+03  0.00000000000E+00 0. -1.
         21   -1    0    0  502  503 -0.00000000000E+00 -0.00000000000E+00 -0.61540379795E+02  0.61540379795E+02  0.00000000000E+00 0. -1.
         -6    2    1    2    0  503 -0.51829678431E+01  0.36828336726E+02  0.21925232431E+03  0.27953678979E+03  0.16936955331E+03 0.  0.
        -24    2    3    3    0    0 -0.45112750409E+02  0.53008072489E+02  0.20694184269E+03  0.23448338434E+03  0.85513246200E+02 0.  0.
          6    2    1    2  501    0  0.51829678431E+01 -0.36828336726E+02  0.22134817919E+03  0.28414447330E+03  0.17424085553E+03 0.  0.
         24    2    5    5    0    0 -0.23766725789E+02  0.24259319954E+02  0.52489720373E+02  0.10219652560E+03  0.80842978914E+02 0.  0.
          5    1    5    5  501    0  0.28949693632E+02 -0.61087656681E+02  0.16885845882E+03  0.18194794770E+03  0.47000000000E+01 0. -1.
        -13    1    6    6    0    0 -0.31678457172E+02 -0.22614563599E+02  0.32181513124E+02  0.50503395158E+02  0.00000000000E+00 0.  1.
         14    1    6    6    0    0  0.79117313833E+01  0.46873883553E+02  0.20308207249E+02  0.51693130438E+02  0.00000000000E+00 0. -1.
         -5    1    3    3    0  503  0.39929782566E+02 -0.16179735762E+02  0.12310481619E+02  0.45053405452E+02  0.47000000000E+01 0.  1.
         13    1    4    4    0    0 -0.22790816596E+00  0.19368124328E+01 -0.84203238128E+01  0.86432076016E+01  0.00000000000E+00 0. -1.
        -14    1    4    4    0    0 -0.44884842243E+02  0.51071260056E+02  0.21536216651E+03  0.22584017674E+03  0.00000000000E+00 0.  1.
</event>
<event>
12    1  0.8500177E-002  0.1969509E+03  0.7818608E-02  0.1153113E+00
         21   -1    0    0  501  502  0.00000000000E+00  0.00000000000E+00  0.20937128849E+03  0.20937128849E+03  0.00000000000E+00 0.  1.
         21   -1    0    0  502  503 -0.00000000000E+00 -0.00000000000E+00 -0.26678112500E+03  0.26678112500E+03  0.00000000000E+00 0.  1.
         -6    2    1    2    0  503  0.84167917346E+02 -0.46296603338E+02 -0.16315014732E+03  0.25574914722E+03  0.17193615660E+03 0.  0.
        -24    2    3    3    0    0  0.78288439930E+02 -0.25592401932E+02 -0.26105111154E+02  0.11694473754E+03  0.78807004428E+02 0.  0.
          6    2    1    2  501    0 -0.84167917346E+02  0.46296603338E+02  0.10574031080E+03  0.22040326626E+03  0.16783614825E+03 0.  0.
         24    2    5    5    0    0 -0.35468495068E+02  0.84024790574E+02  0.11405079836E+03  0.15806384017E+03  0.60484819483E+02 0.  0.
          5    1    5    5  501    0 -0.48699422278E+02 -0.37728187236E+02 -0.83104875568E+01  0.62339426095E+02  0.47000000000E+01 0. -1.
        -13    1    6    6    0    0 -0.17514318974E+02 -0.41272526635E+01  0.29796709116E+02  0.34808468191E+02  0.00000000000E+00 0.  1.
         14    1    6    6    0    0 -0.17954176094E+02  0.88152043238E+02  0.84254089245E+02  0.12325537198E+03  0.00000000000E+00 0. -1.
         -5    1    3    3    0  503  0.58794774165E+01 -0.20704201407E+02 -0.13704503616E+03  0.13880440968E+03  0.47000000000E+01 0.  1.
         13    1    4    4    0    0  0.43264093796E+02 -0.46000882476E+02  0.84069327245E+01  0.63706667771E+02  0.00000000000E+00 0. -1.
        -14    1    4    4    0    0  0.35024346134E+02  0.20408480545E+02 -0.34512043878E+02  0.53238069770E+02  0.00000000000E+00 0.  1.
</event>
<event>
12    1  0.8500177E-002  0.1740694E+03  0.7818608E-02  0.1173978E+00
         21   -1    0    0  501  502  0.00000000000E+00  0.00000000000E+00  0.18224804186E+04  0.18224804186E+04  0.00000000000E+00 0.  1.
         21   -1    0    0  502  503 -0.00000000000E+00 -0.00000000000E+00 -0.30416376301E+02  0.30416376301E+02  0.00000000000E+00 0.  1.
         -6    2    1    2    0  503 -0.17862797116E+02  0.18005641190E+02  0.26789733306E+03  0.31882237996E+03  0.17098376024E+03 0.  0.
        -24    2    3    3    0    0 -0.69374995380E+02  0.14487686961E+02  0.11176993886E+03  0.15431178518E+03  0.79352534657E+02 0.  0.
          6    2    1    2  501    0  0.17862797116E+02 -0.18005641190E+02  0.15241667093E+04  0.15340744150E+04  0.17221170229E+03 0.  0.
         24    2    5    5    0    0 -0.36022015509E+02  0.35663786989E+02  0.70264228207E+03  0.70902383772E+03  0.80244218440E+02 0.  0.
          5    1    5    5  501    0  0.53884812625E+02 -0.53669428179E+02  0.82152442718E+03  0.82505057724E+03  0.47000000000E+01 0. -1.
        -11    1    6    6    0    0  0.14145824891E+02  0.31781468602E+02  0.14494136129E+03  0.14905758726E+03  0.00000000000E+00 0.  1.
         12    1    6    6    0    0 -0.50167840400E+02  0.38823183873E+01  0.55770092078E+03  0.55996625045E+03  0.00000000000E+00 0. -1.
         -5    1    3    3    0  503  0.51512198264E+02  0.35179542292E+01  0.15612739420E+03  0.16451059477E+03  0.47000000000E+01 0.  1.
         13    1    4    4    0    0 -0.12727780364E+02  0.36331450740E+02  0.72260585796E+02  0.81875289102E+02  0.00000000000E+00 0. -1.
        -14    1    4    4    0    0 -0.56647215017E+02 -0.21843763779E+02  0.39509353062E+02  0.72436496082E+02  0.00000000000E+00 0.  1.
</event>
<event>
12    1  0.8500177E-002  0.1772951E+03  0.7818608E-02  0.1171630E+00
         21   -1    0    0  503  502  0.00000000000E+00  0.00000000000E+00  0.28592571726E+03  0.28592571726E+03  0.00000000000E+00 0.  1.
         21   -1    0    0  501  503 -0.00000000000E+00 -0.00000000000E+00 -0.20086715945E+03  0.20086715945E+03  0.00000000000E+00 0.  1.
          6    2    1    2  501    0  0.97773288207E+01  0.41633904510E+02 -0.12413149787E+03  0.21257757066E+03  0.16718736980E+03 0.  0.
         24    2    3    3    0    0 -0.31357710238E+02  0.68076595240E+02 -0.12232615813E+03  0.16341806921E+03  0.78256294131E+02 0.  0.
         -6    2    1    2    0  502 -0.97773288207E+01 -0.41633904510E+02  0.20919005568E+03  0.27421530604E+03  0.17205980504E+03 0.  0.
        -24    2    5    5    0    0 -0.49800048419E+02  0.23462648872E+02  0.14727598992E+03  0.17575302451E+03  0.78538956587E+02 0.  0.
          5    1    3    3  501    0  0.41135039058E+02 -0.26442690729E+02 -0.18053397414E+01  0.49159501451E+02  0.47000000000E+01 0. -1.
        -13    1    4    4    0    0  0.10133667107E+02 -0.10065058609E+02 -0.25497158273E+01  0.14508537646E+02  0.00000000000E+00 0.  1.
         14    1    4    4    0    0 -0.41491377344E+02  0.78141653849E+02 -0.11977644230E+03  0.14890953157E+03  0.00000000000E+00 0. -1.
         -5    1    5    5    0  502  0.40022719599E+02 -0.65096553382E+02  0.61914065755E+02  0.98462281533E+02  0.47000000000E+01 0.  1.
         11    1    6    6    0    0 -0.46367610479E+02  0.45528076794E+02  0.70878705082E+02  0.96158992882E+02  0.00000000000E+00 0. -1.
        -12    1    6    6    0    0 -0.34324379405E+01 -0.22065427922E+02  0.76397284842E+02  0.79594031628E+02  0.00000000000E+00 0.  1.
</event>
<event>
12    1  0.8500177E-002  0.1916908E+03  0.7818608E-02  0.1156982E+00
         21   -1    0    0  503  502  0.00000000000E+00  0.00000000000E+00  0.60076546898E+03  0.60076546898E+03  0.00000000000E+00 0.  1.
         21   -1    0    0  501  503 -0.00000000000E+00 -0.00000000000E+00 -0.66198236224E+02  0.66198236224E+02  0.00000000000E+00 0. -1.
          6    2    1    2  501    0 -0.77409136203E+02 -0.30573233119E+02  0.17474039989E+03  0.25926193822E+03  0.17249825596E+03 0.  0.
         24    2    3    3    0    0 -0.66552653925E+02  0.29628587504E+02  0.16588231008E+03  0.19727259907E+03  0.78054010820E+02 0.  0.
         -6    2    1    2    0  502  0.77409136203E+02  0.30573233119E+02  0.35982683287E+03  0.40770176697E+03  0.17268029475E+03 0.  0.
        -24    2    5    5    0    0  0.89439774518E+02  0.91861358144E+00  0.13510423697E+03  0.18066329486E+03  0.79910913792E+02 0.  0.
          5    1    3    3  501    0 -0.10856482279E+02 -0.60201820623E+02  0.88580898099E+01  0.61989339155E+02  0.47000000000E+01 0. -1.
        -13    1    4    4    0    0 -0.12254593480E+02 -0.36389566506E+01  0.11514431490E+03  0.11585176011E+03  0.00000000000E+00 0.  1.
         14    1    4    4    0    0 -0.54298060445E+02  0.33267544154E+02  0.50737995177E+02  0.81420838958E+02  0.00000000000E+00 0. -1.
         -5    1    5    5    0  502 -0.12030638315E+02  0.29654619538E+02  0.22472259589E+03  0.22703847212E+03  0.47000000000E+01 0.  1.
         11    1    6    6    0    0  0.59425469039E+02 -0.19754407831E+02  0.30035484896E+02  0.69453245800E+02  0.00000000000E+00 0. -1.
        -12    1    6    6    0    0  0.30014305479E+02  0.20673021413E+02  0.10506875208E+03  0.11121004906E+03  0.00000000000E+00 0.  1.
</event>
<event>
12    1  0.8500177E-002  0.2465214E+03  0.7818608E-02  0.1117203E+00
         21   -1    0    0  503  502  0.00000000000E+00  0.00000000000E+00  0.39224664717E+03  0.39224664717E+03  0.00000000000E+00 0.  1.
         21   -1    0    0  501  503 -0.00000000000E+00 -0.00000000000E+00 -0.51484112652E+03  0.51484112652E+03  0.00000000000E+00 0. -1.
          6    2    1    2  501    0  0.26569710585E+02 -0.15823813657E+03 -0.44418510458E+03  0.50800905204E+03  0.18715643840E+03 0.  0.
         24    2    3    3    0    0  0.91616421318E+01  0.90458486790E+01 -0.12880872995E+03  0.15055790819E+03  0.76878031585E+02 0.  0.
         -6    2    1    2    0  502 -0.26569710585E+02  0.15823813657E+03  0.32159062523E+03  0.39907872165E+03  0.17348786254E+03 0.  0.
        -24    2    5    5    0    0  0.39915933549E+02  0.10243388613E+03  0.25128079223E+03  0.28727524290E+03  0.85434453590E+02 0.  0.
          5    1    3    3  501    0  0.17408068453E+02 -0.16728398525E+03 -0.31537637463E+03  0.35745114385E+03  0.47000000000E+01 0. -1.
        -11    1    4    4    0    0 -0.11406176653E+02  0.25080482010E+02 -0.11985963377E+03  0.12298562213E+03  0.00000000000E+00 0.  1.
         12    1    4    4    0    0  0.20567818785E+02 -0.16034633331E+02 -0.89490961798E+01  0.27572286051E+02  0.00000000000E+00 0. -1.
         -5    1    5    5    0  502 -0.66485644133E+02  0.55804250442E+02  0.70309832998E+02  0.11180347874E+03  0.47000000000E+01 0.  1.
         11    1    6    6    0    0  0.21594796379E+02 -0.78181783611E+01  0.75998678351E+02  0.79393061754E+02  0.00000000000E+00 0. -1.
        -12    1    6    6    0    0  0.18321137169E+02  0.11025206449E+03  0.17528211388E+03  0.20788218115E+03  0.00000000000E+00 0.  1.
</event>
<event>
12    1  0.8500177E-002  0.1919122E+03  0.7818608E-02  0.1156904E+00
         21   -1    0    0  503  502  0.00000000000E+00  0.00000000000E+00  0.10075489207E+04  0.10075489207E+04  0.00000000000E+00 0. -1.
         21   -1    0    0  501  503 -0.00000000000E+00 -0.00000000000E+00 -0.42822536524E+02  0.42822536524E+02  0.00000000000E+00 0. -1.
          6    2    1    2  501    0  0.79838765249E+02 -0.25256215156E+02  0.27855299032E+03  0.33786585672E+03  0.17189957497E+03 0.  0.
         24    2    3    3    0    0  0.10435171494E+03 -0.62266548406E+02  0.19488335659E+03  0.24303259736E+03  0.79491617451E+02 0.  0.
         -6    2    1    2    0  502 -0.79838765249E+02  0.25256215156E+02  0.68617339389E+03  0.71250560055E+03  0.17267947036E+03 0.  0.
        -24    2    5    5    0    0 -0.95582176259E+02  0.70793746474E+01  0.28552214453E+03  0.31110584203E+03  0.77960759135E+02 0.  0.
          5    1    3    3  501    0 -0.24512949693E+02  0.37010333250E+02  0.83669633737E+02  0.94833259354E+02  0.47000000000E+01 0. -1.
        -11    1    4    4    0    0  0.14907857852E+02  0.19138097205E+02  0.33443614433E+02  0.41315691168E+02  0.00000000000E+00 0.  1.
         12    1    4    4    0    0  0.89443857091E+02 -0.81404645611E+02  0.16143974215E+03  0.20171690619E+03  0.00000000000E+00 0. -1.
         -5    1    5    5    0  502  0.15743411010E+02  0.18176840509E+02  0.40065124936E+03  0.40139975852E+03  0.47000000000E+01 0.  1.
         11    1    6    6    0    0  0.92211149660E+01  0.15860933025E+02  0.40012628689E+02  0.44018275889E+02  0.00000000000E+00 0. -1.
        -12    1    6    6    0    0 -0.10480329123E+03 -0.87815583771E+01  0.24550951584E+03  0.26708756614E+03  0.00000000000E+00 0.  1.
</event>
<event>
12    1  0.8500177E-002  0.2517690E+03  0.7818608E-02  0.1112220E+00
         21   -1    0    0  501  502  0.00000000000E+00  0.00000000000E+00  0.60191006948E+03  0.60191006948E+03  0.00000000000E+00 0.  1.
         21   -1    0    0  502  503 -0.00000000000E+00 -0.00000000000E+00 -0.14262183744E+03  0.14262183744E+03  0.00000000000E+00 0. -1.
         -6    2    1    2    0  503  0.62978505617E+02  0.17511614460E+03  0.39106874097E+02  0.25478815134E+03  0.16957505180E+03 0.  0.
        -24    2    3    3    0    0  0.21418564665E+02  0.18253660260E+03  0.57774951313E+02  0.20838902424E+03  0.79433457829E+02 0.  0.
          6    2    1    2  501    0 -0.62978505617E+02 -0.17511614460E+03  0.42018135795E+03  0.48974375558E+03  0.16930627953E+03 0.  0.
         24    2    5    5    0    0 -0.92313794353E+02 -0.11208015126E+03  0.20534755415E+03  0.26389037642E+03  0.79916930855E+02 0.  0.
          5    1    5    5  501    0  0.29335288736E+02 -0.63035993334E+02  0.21483380380E+03  0.22585337915E+03  0.47000000000E+01 0. -1.
        -11    1    6    6    0    0 -0.15722000738E+02 -0.64193142896E+02  0.13166048541E+03  0.14731742707E+03  0.00000000000E+00 0.  1.
         12    1    6    6    0    0 -0.76591793615E+02 -0.47887008369E+02  0.73687068742E+02  0.11657294935E+03  0.00000000000E+00 0. -1.
         -5    1    3    3    0  503  0.41559940952E+02 -0.74204580020E+01 -0.18668077216E+02  0.46399127102E+02  0.47000000000E+01 0.  1.
         13    1    4    4    0    0  0.34559714539E+02  0.42085374266E+02  0.36916896976E+02  0.65790651908E+02  0.00000000000E+00 0. -1.
        -14    1    4    4    0    0 -0.13141149874E+02  0.14045122833E+03  0.20858054337E+02  0.14259837233E+03  0.00000000000E+00 0.  1.
</event>
<event>
12    1  0.8500177E-002  0.2146367E+03  0.7818608E-02  0.1138237E+00
         21   -1    0    0  503  502  0.00000000000E+00  0.00000000000E+00  0.27853519034E+03  0.27853519034E+03  0.00000000000E+00 0. -1.
         21   -1    0    0  501  503 -0.00000000000E+00 -0.00000000000E+00 -0.20226011595E+03  0.20226011595E+03  0.00000000000E+00 0.  1.
          6    2    1    2  501    0  0.70237684457E+02 -0.10450800791E+03 -0.65980683250E+02  0.22454923451E+03  0.17382074710E+03 0.  0.
         24    2    3    3    0    0  0.37284380598E+02 -0.12554532514E+03 -0.90244385673E+02  0.17829659992E+03  0.80584581002E+02 0.  0.
         -6    2    1    2    0  502 -0.70237684457E+02  0.10450800791E+03  0.14225575763E+03  0.25624607178E+03  0.17195956702E+03 0.  0.
        -24    2    5    5    0    0 -0.31527306774E+02  0.10551291721E+03  0.34667501977E+02  0.14180470715E+03  0.82339495428E+02 0.  0.
          5    1    3    3  501    0  0.32953303859E+02  0.21037317229E+02  0.24263702423E+02  0.46252634592E+02  0.47000000000E+01 0. -1.
        -13    1    4    4    0    0 -0.23228895656E+01 -0.10206258423E+03 -0.38693183710E+02  0.10917568127E+03  0.00000000000E+00 0.  1.
         14    1    4    4    0    0  0.39607270163E+02 -0.23482740912E+02 -0.51551201963E+02  0.69120918645E+02  0.00000000000E+00 0. -1.
         -5    1    5    5    0  502 -0.38710377683E+02 -0.10049092944E+01  0.10758825566E+03  0.11444136463E+03  0.47000000000E+01 0.  1.
         11    1    6    6    0    0 -0.21957398176E+02  0.62300077169E+02  0.61327277033E+02  0.90135796764E+02  0.00000000000E+00 0. -1.
        -12    1    6    6    0    0 -0.95699085977E+01  0.43212840039E+02 -0.26659775056E+02  0.51668910389E+02  0.00000000000E+00 0.  1.
</event>
<event>
12    1  0.8500177E-002  0.2746272E+03  0.7818608E-02  0.1098665E+00
         21   -1    0    0  501  502  0.00000000000E+00  0.00000000000E+00  0.15845893745E+04  0.15845893745E+04  0.00000000000E+00 0.  1.
         21   -1    0    0  502  503 -0.00000000000E+00 -0.00000000000E+00 -0.11092489461E+03  0.11092489461E+03  0.00000000000E+00 0. -1.
         -6    2    1    2    0  503  0.11655660651E+03 -0.17838216160E+03  0.96264722350E+02  0.29101031243E+03  0.17324683857E+03 0.  0.
        -24    2    3    3    0    0  0.93748577366E+02 -0.33555364569E+02  0.43496786521E+02  0.13512076056E+03  0.80317440491E+02 0.  0.
          6    2    1    2  501    0 -0.11655660651E+03  0.17838216160E+03  0.13773997576E+04  0.14045039567E+04  0.17319247718E+03 0.  0.
         24    2    5    5    0    0  0.28894310792E+01  0.73323407309E+02  0.72160052887E+03  0.72967107657E+03  0.79548009706E+02 0.  0.
          5    1    5    5  501    0 -0.11944603759E+03  0.10505875429E+03  0.65579922872E+03  0.67483288016E+03  0.47000000000E+01 0. -1.
        -13    1    6    6    0    0 -0.80806628008E-01  0.88836341891E+02  0.52742510999E+03  0.53485432486E+03  0.00000000000E+00 0.  1.
         14    1    6    6    0    0  0.29702377072E+01 -0.15512934582E+02  0.19417541888E+03  0.19481675172E+03  0.00000000000E+00 0. -1.
         -5    1    3    3    0  503  0.22808029140E+02 -0.14482679703E+03  0.52767935829E+02  0.15588955187E+03  0.47000000000E+01 0.  1.
         13    1    4    4    0    0  0.20015414558E+02  0.82651955859E+01 -0.19789091317E+02  0.29334935029E+02  0.00000000000E+00 0. -1.
        -14    1    4    4    0    0  0.73733162808E+02 -0.41820560155E+02  0.63285877838E+02  0.10578582553E+03  0.00000000000E+00 0.  1.
</event>
<event>
12    1  0.8500177E-002  0.2347963E+03  0.7818608E-02  0.1123337E+00
         21   -1    0    0  501  502  0.00000000000E+00  0.00000000000E+00  0.11848310292E+04  0.11848310292E+04  0.00000000000E+00 0. -1.
         21   -1    0    0  502  503 -0.00000000000E+00 -0.00000000000E+00 -0.74009537667E+02  0.74009537667E+02  0.00000000000E+00 0.  1.
         -6    2    1    2    0  503  0.11808014401E+03 -0.10875296845E+03  0.17176819084E+03  0.29091855898E+03  0.17134517215E+03 0.  0.
        -24    2    3    3    0    0  0.14883024462E+03 -0.10601698889E+03  0.16573633864E+03  0.25911403866E+03  0.79255961548E+02 0.  0.
          6    2    1    2  501    0 -0.11808014401E+03  0.10875296845E+03  0.93905330070E+03  0.96792200789E+03  0.17111920770E+03 0.  0.
         24    2    5    5    0    0 -0.53196592666E+02 -0.15735713821E+02  0.35709201663E+03  0.36924986606E+03  0.75850280696E+02 0.  0.
          5    1    5    5  501    0 -0.64883551340E+02  0.12448868227E+03  0.58196128407E+03  0.59867214183E+03  0.47000000000E+01 0. -1.
        -11    1    6    6    0    0  0.72204724412E+01 -0.30135526153E+02  0.96259319282E+02  0.10112438730E+03  0.00000000000E+00 0.  1.
         12    1    6    6    0    0 -0.60417065107E+02  0.14399812332E+02  0.26083269735E+03  0.26812547876E+03  0.00000000000E+00 0. -1.
         -5    1    3    3    0  503 -0.30750100611E+02 -0.27359795595E+01  0.60318522012E+01  0.31804520319E+02  0.47000000000E+01 0.  1.
         13    1    4    4    0    0  0.10973900842E+03 -0.87809663968E+02  0.16396023253E+03  0.21595403424E+03  0.00000000000E+00 0. -1.
        -14    1    4    4    0    0  0.39091236200E+02 -0.18207324926E+02  0.17761061054E+01  0.43160004420E+02  0.00000000000E+00 0.  1.
</event>
<event>
12    1  0.8500177E-002  0.2522363E+03  0.7818608E-02  0.1111978E+00
         21   -1    0    0  501  502  0.00000000000E+00  0.00000000000E+00  0.21457125281E+03  0.21457125281E+03  0.00000000000E+00 0.  1.
         21   -1    0    0  502  503 -0.00000000000E+00 -0.00000000000E+00 -0.29592797347E+03  0.29592797347E+03  0.00000000000E+00 0.  1.
         -6    2    1    2    0  503  0.18410793208E+03  0.63917883498E+01 -0.41190617440E+02  0.25508491084E+03  0.17156648612E+03 0.  0.
        -24    2    3    3    0    0  0.90514906194E+02  0.47191655716E+02  0.26609499211E+02  0.13243406702E+03  0.80066947281E+02 0.  0.
          6    2    1    2  501    0 -0.18410793208E+03 -0.63917883498E+01 -0.40166103216E+02  0.25541431544E+03  0.17229791371E+03 0.  0.
         24    2    5    5    0    0 -0.12600775640E+03 -0.71026565178E+02 -0.19934903739E+02  0.16605729992E+03  0.79087918395E+02 0.  0.
          5    1    5    5  501    0 -0.58100175679E+02  0.64634776828E+02 -0.20231199477E+02  0.89357015516E+02  0.47000000000E+01 0. -1.
        -11    1    6    6    0    0 -0.79232853900E+02  0.59427885423E+00 -0.12159099865E+02  0.80162597351E+02  0.00000000000E+00 0.  1.
         12    1    6    6    0    0 -0.46774902500E+02 -0.71620844032E+02 -0.77758038742E+01  0.85894702570E+02  0.00000000000E+00 0. -1.
         -5    1    3    3    0  503  0.93593025885E+02 -0.40799867367E+02 -0.67800116652E+02  0.12265084382E+03  0.47000000000E+01 0.  1.
         13    1    4    4    0    0  0.63573181748E+02  0.46660265175E+02 -0.17469516292E+02  0.80770748315E+02  0.00000000000E+00 0. -1.
        -14    1    4    4    0    0  0.26941724445E+02  0.53139054111E+00  0.44079015503E+02  0.51663318706E+02  0.00000000000E+00 0.  1.
</event>
<event>
12    1  0.8500177E-002  0.1797873E+03  0.7818608E-02  0.1168216E+00
         21   -1    0    0  501  502  0.00000000000E+00  0.00000000000E+00  0.23796786870E+03  0.23796786870E+03  0.00000000000E+00 0.  1.
         21   -1    0    0  502  503 -0.00000000000E+00 -0.00000000000E+00 -0.15679267751E+03  0.15679267751E+03  0.00000000000E+00 0.  1.
         -6    2    1    2    0  503 -0.35437320228E+02 -0.37183006115E+02 -0.32595207541E+02  0.18271814936E+03  0.17229363001E+03 0.  0.
        -24    2    3    3    0    0 -0.93204290472E+01 -0.84493086520E+02  0.42920042295E+01  0.11712019127E+03  0.80453501078E+02 0.  0.
          6    2    1    2  501    0  0.35437320228E+02  0.37183006115E+02  0.11377039873E+03  0.21204239685E+03  0.17140564409E+03 0.  0.
         24    2    5    5    0    0 -0.45377503866E+02  0.10431787412E+02  0.44243526948E+02  0.10202994576E+03  0.79275974353E+02 0.  0.
          5    1    5    5  501    0  0.80814824094E+02  0.26751218702E+02  0.69526871781E+02  0.11001245109E+03  0.47000000000E+01 0. -1.
        -13    1    6    6    0    0 -0.30606284299E+02  0.93597646098E+01  0.67359564210E+02  0.74576542710E+02  0.00000000000E+00 0.  1.
         14    1    6    6    0    0 -0.14771219567E+02  0.10720228026E+01 -0.23116037262E+02  0.27453403051E+02  0.00000000000E+00 0. -1.
         -5    1    3    3    0  503 -0.26116891181E+02  0.47310080405E+02 -0.36887211770E+02  0.65597958086E+02  0.47000000000E+01 0.  1.
         11    1    4    4    0    0 -0.13630480095E+02 -0.80900920587E+01  0.32018930285E+02  0.35727461060E+02  0.00000000000E+00 0. -1.
        -12    1    4    4    0    0  0.43100510483E+01 -0.76402994461E+02 -0.27726926056E+02  0.81392730211E+02  0.00000000000E+00 0.  1.
</event>
<event>
12    1  0.8500177E-002  0.2518146E+03  0.7818608E-02  0.1112211E+00
         21   -1    0    0  503  502  0.00000000000E+00  0.00000000000E+00  0.42679632780E+02  0.42679632780E+02  0.00000000000E+00 0.  1.
         21   -1    0    0  501  503 -0.00000000000E+00 -0.00000000000E+00 -0.15219078693E+04  0.15219078693E+04  0.00000000000E+00 0. -1.
          6    2    1    2  501    0 -0.18257378653E+03 -0.20224823072E+02 -0.61650837608E+03  0.66595284224E+03  0.17224511407E+03 0.  0.
         24    2    3    3    0    0 -0.53719553067E+02 -0.53660605018E+02 -0.20921201558E+03  0.23742772014E+03  0.82686177299E+02 0.  0.
         -6    2    1    2    0  502  0.18257378653E+03  0.20224823072E+02 -0.86271986047E+03  0.89863465987E+03  0.17180356011E+03 0.  0.
        -24    2    5    5    0    0  0.15920522737E+03 -0.34636283750E+02 -0.74305086125E+03  0.76484904789E+03  0.79520482084E+02 0.  0.
          5    1    3    3  501    0 -0.12885423346E+03  0.33435781945E+02 -0.40729636050E+03  0.42852512210E+03  0.47000000000E+01 0. -1.
        -11    1    4    4    0    0 -0.14750124863E+02  0.19652039847E+02 -0.81302080311E+02  0.84934075120E+02  0.00000000000E+00 0.  1.
         12    1    4    4    0    0 -0.38969428204E+02 -0.73312644865E+02 -0.12790993527E+03  0.15249364502E+03  0.00000000000E+00 0. -1.
         -5    1    5    5    0  502  0.23368559162E+02  0.54861106822E+02 -0.11966899922E+03  0.13378561198E+03  0.47000000000E+01 0.  1.
         11    1    6    6    0    0  0.55724696234E+02  0.25700927344E+02 -0.23732889535E+03  0.24513421631E+03  0.00000000000E+00 0. -1.
        -12    1    6    6    0    0  0.10348053113E+03 -0.60337211094E+02 -0.50572196590E+03  0.51971483158E+03  0.00000000000E+00 0.  1.
</event>
<event>
12    1  0.8500177E-002  0.1932168E+03  0.7818608E-02  0.1155768E+00
         21   -1    0    0  501  502  0.00000000000E+00  0.00000000000E+00  0.47422101683E+02  0.47422101683E+02  0.00000000000E+00 0. -1.
         21   -1    0    0  502  503 -0.00000000000E+00 -0.00000000000E+00 -0.86472983096E+03  0.86472983096E+03  0.00000000000E+00 0. -1.
         -6    2    1    2    0  503  0.22809122733E+02  0.83434918943E+02 -0.27006323980E+03  0.33206455709E+03  0.17277463589E+03 0.  0.
        -24    2    3    3    0    0 -0.49392404803E+02  0.25160420906E+02 -0.16213753216E+03  0.18966011170E+03  0.81300198033E+02 0.  0.
          6    2    1    2  501    0 -0.22809122733E+02 -0.83434918943E+02 -0.54724448948E+03  0.58008737555E+03  0.17188132601E+03 0.  0.
         24    2    5    5    0    0  0.24368410930E+02  0.21520195741E+01 -0.35039474248E+03  0.36026299878E+03  0.80090586813E+02 0.  0.
          5    1    5    5  501    0 -0.47177533662E+02 -0.85586938517E+02 -0.19684974700E+03  0.21982437677E+03  0.47000000000E+01 0. -1.
        -13    1    6    6    0    0 -0.45507727080E+01 -0.25021957511E+02 -0.40399397986E+02  0.47738027269E+02  0.00000000000E+00 0.  1.
         14    1    6    6    0    0  0.28919183637E+02  0.27173977085E+02 -0.30999534449E+03  0.31252497151E+03  0.00000000000E+00 0. -1.
         -5    1    3    3    0  503  0.72201527536E+02  0.58274498038E+02 -0.10792570763E+03  0.14240444539E+03  0.47000000000E+01 0.  1.
         13    1    4    4    0    0 -0.33684746692E+02  0.41505072912E+02 -0.43616898317E+02  0.68991065045E+02  0.00000000000E+00 0. -1.
        -14    1    4    4    0    0 -0.15707658111E+02 -0.16344652007E+02 -0.11852063384E+03  0.12066904665E+03  0.00000000000E+00 0.  1.
</event>
<event>
12    1  0.8500177E-002  0.1813967E+03  0.7818608E-02  0.1166645E+00
         21   -1    0    0  501  502  0.00000000000E+00  0.00000000000E+00  0.17384048729E+04  0.17384048729E+04  0.00000000000E+00 0.  1.
         21   -1    0    0  502  503 -0.00000000000E+00 -0.00000000000E+00 -0.30794421056E+02  0.30794421056E+02  0.00000000000E+00 0. -1.
         -6    2    1    2    0  503  0.35504462533E+02  0.42405798076E+02  0.30393403541E+03  0.35395010332E+03  0.17275983094E+03 0.  0.
        -24    2    3    3    0    0 -0.47141644526E+02  0.27271433083E+02  0.14872549517E+03  0.17739640333E+03  0.79900846608E+02 0.  0.
          6    2    1    2  501    0 -0.35504462533E+02 -0.42405798076E+02  0.14036764164E+04  0.14152491906E+04  0.17194176627E+03 0.  0.
         24    2    5    5    0    0 -0.50334302639E+01 -0.86403266097E+02  0.11388174169E+04  0.11449962708E+04  0.81366402813E+02 0.  0.
          5    1    5    5  501    0 -0.30471032269E+02  0.43997468021E+02  0.26485899953E+03  0.27025291974E+03  0.47000000000E+01 0. -1.
        -13    1    6    6    0    0 -0.21236680535E+02 -0.55768726221E+02  0.32448450119E+03  0.32992626288E+03  0.00000000000E+00 0.  1.
         14    1    6    6    0    0  0.16203250271E+02 -0.30634539876E+02  0.81433291567E+03  0.81507000797E+03  0.00000000000E+00 0. -1.
         -5    1    3    3    0  503  0.82646107058E+02  0.15134364993E+02  0.15520854024E+03  0.17655369999E+03  0.47000000000E+01 0.  1.
         13    1    4    4    0    0 -0.17859749868E+02  0.41828652397E+02  0.30573919850E+02  0.54803023654E+02  0.00000000000E+00 0. -1.
        -14    1    4    4    0    0 -0.29281894658E+02 -0.14557219314E+02  0.11815157532E+03  0.12259337967E+03  0.00000000000E+00 0.  1.
</event>
<event>
12    1  0.8500177E-002  0.2116285E+03  0.7818608E-02  0.1142802E+00
         21   -1    0    0  503  502  0.00000000000E+00  0.00000000000E+00  0.44630142254E+02  0.44630142254E+02  0.00000000000E+00 0.  1.
         21   -1    0    0  501  503 -0.00000000000E+00 -0.00000000000E+00 -0.10110591525E+04  0.10110591525E+04  0.00000000000E+00 0.  1.
          6    2    1    2  501    0 -0.80389891859E+02  0.61650368558E+02 -0.63139057498E+03  0.66591342562E+03  0.18580454674E+03 0.  0.
         24    2    3    3    0    0  0.58697927024E+00  0.92915795579E+02 -0.32790134834E+03  0.35021961626E+03  0.80627512382E+02 0.  0.
         -6    2    1    2    0  502  0.80389891859E+02 -0.61650368558E+02 -0.33503843524E+03  0.38977586911E+03  0.17149685827E+03 0.  0.
        -24    2    5    5    0    0  0.31118382365E+02 -0.10056284920E+03 -0.18867199600E+03  0.23044261039E+03  0.80158806431E+02 0.  0.
          5    1    3    3  501    0 -0.80976871130E+02 -0.31265427021E+02 -0.30348922664E+03  0.31569380936E+03  0.47000000000E+01 0. -1.
        -13    1    4    4    0    0  0.25352010676E+02  0.11316202028E+02 -0.32438174867E+02  0.42696792179E+02  0.00000000000E+00 0.  1.
         14    1    4    4    0    0 -0.24765031406E+02  0.81599593550E+02 -0.29546317347E+03  0.30752282408E+03  0.00000000000E+00 0. -1.
         -5    1    5    5    0  502  0.49271509494E+02  0.38912480646E+02 -0.14636643924E+03  0.15933325872E+03  0.47000000000E+01 0.  1.
         11    1    6    6    0    0  0.85152414123E+01  0.11538377165E+02 -0.74619388145E+01  0.16165519317E+02  0.00000000000E+00 0. -1.
        -12    1    6    6    0    0  0.22603140953E+02 -0.11210122637E+03 -0.18121005719E+03  0.21427709108E+03  0.00000000000E+00 0.  1.
</event>
<event>
12    1  0.8500177E-002  0.2344242E+03  0.7818608E-02  0.1123632E+00
         21   -1    0    0  503  502  0.00000000000E+00  0.00000000000E+00  0.57930002292E+03  0.57930002292E+03  0.00000000000E+00 0.  1.
         21   -1    0    0  501  503 -0.00000000000E+00 -0.00000000000E+00 -0.94828149504E+02  0.94828149504E+02  0.00000000000E+00 0. -1.
          6    2    1    2  501    0  0.65370120458E+02  0.14436140964E+03  0.22983001958E+03  0.32801086542E+03  0.17220865453E+03 0.  0.
         24    2    3    3    0    0  0.29783895926E+02  0.10468248971E+03  0.55700948894E+02  0.14584660076E+03  0.79518118302E+02 0.  0.
         -6    2    1    2    0  502 -0.65370120458E+02 -0.14436140964E+03  0.25464185384E+03  0.34611730700E+03  0.17274619312E+03 0.  0.
        -24    2    5    5    0    0 -0.54475337468E+02 -0.89186335795E+02  0.59886635285E+02  0.14334977946E+03  0.77723775652E+02 0.  0.
          5    1    3    3  501    0  0.35586224532E+02  0.39678919932E+02  0.17412907068E+03  0.18216426466E+03  0.47000000000E+01 0. -1.
        -11    1    4    4    0    0 -0.24252076256E+02  0.11137996691E+02  0.12976227877E+02  0.29674916393E+02  0.00000000000E+00 0.  1.
         12    1    4    4    0    0  0.54035972182E+02  0.93544493014E+02  0.42724721017E+02  0.11617168437E+03  0.00000000000E+00 0. -1.
         -5    1    5    5    0  502 -0.10894782990E+02 -0.55175073842E+02  0.19475521855E+03  0.20276752753E+03  0.47000000000E+01 0.  1.
         13    1    6    6    0    0  0.14535325984E+02 -0.39490289473E+02  0.55843676594E+01  0.42449308902E+02  0.00000000000E+00 0. -1.
        -14    1    6    6    0    0 -0.69010663452E+02 -0.49696046322E+02  0.54302267626E+02  0.10090047056E+03  0.00000000000E+00 0.  1.
</event>
<event>
12    1  0.8500177E-002  0.1981870E+03  0.7818608E-02  0.1152140E+00
         21   -1    0    0  503  502  0.00000000000E+00  0.00000000000E+00  0.80403951014E+03  0.80403951014E+03  0.00000000000E+00 0. -1.
         21   -1    0    0  501  503 -0.00000000000E+00 -0.00000000000E+00 -0.75016407930E+02  0.75016407930E+02  0.00000000000E+00 0.  1.
          6    2    1    2  501    0 -0.37269444062E+02  0.91685529931E+02  0.97754935882E+02  0.21740829790E+03  0.16707810343E+03 0.  0.
         24    2    3    3    0    0 -0.37570855900E+02  0.53916017871E+02 -0.94781390645E+01  0.10362056019E+03  0.79554253044E+02 0.  0.
         -6    2    1    2    0  502  0.37269444062E+02 -0.91685529931E+02  0.63126816632E+03  0.66164762017E+03  0.17170564232E+03 0.  0.
        -24    2    5    5    0    0 -0.41159696894E+02 -0.38562067982E+02  0.40292679401E+03  0.41439247934E+03  0.78676374217E+02 0.  0.
          5    1    3    3  501    0  0.30141183767E+00  0.37769512060E+02  0.10723307495E+03  0.11378773771E+03  0.47000000000E+01 0. -1.
        -13    1    4    4    0    0 -0.25899517474E+01  0.49703093415E+02 -0.34366791038E+02  0.60482903959E+02  0.00000000000E+00 0.  1.
         14    1    4    4    0    0 -0.34980904153E+02  0.42129244556E+01  0.24888651973E+02  0.43137656228E+02  0.00000000000E+00 0. -1.
         -5    1    5    5    0  502  0.78429140957E+02 -0.53123461949E+02  0.22834137231E+03  0.24725514084E+03  0.47000000000E+01 0.  1.
         13    1    6    6    0    0 -0.32478303528E+02 -0.62047877847E+02  0.32797194131E+03  0.33536602934E+03  0.00000000000E+00 0. -1.
        -14    1    6    6    0    0 -0.86813933668E+01  0.23485809865E+02  0.74954852699E+02  0.79026449996E+02  0.00000000000E+00 0.  1.
</event>
<event>
12    1  0.8500177E-002  0.1733453E+03  0.7818608E-02  0.1174587E+00
         21   -1    0    0  503  502  0.00000000000E+00  0.00000000000E+00  0.14149035182E+03  0.14149035182E+03  0.00000000000E+00 0.  1.
         21   -1    0    0  501  503 -0.00000000000E+00 -0.00000000000E+00 -0.40630848472E+03  0.40630848472E+03  0.00000000000E+00 0.  1.
          6    2    1    2  501    0  0.98738237400E+01 -0.17505229226E+02 -0.32221412000E+03  0.36588321278E+03  0.17217624930E+03 0.  0.
         24    2    3    3    0    0 -0.46517299654E+02  0.24615312415E+02 -0.22843522642E+03  0.24853471595E+03  0.82565607822E+02 0.  0.
         -6    2    1    2    0  502 -0.98738237400E+01  0.17505229226E+02  0.57395987097E+02  0.18191562375E+03  0.17144990342E+03 0.  0.
        -24    2    5    5    0    0  0.18159008822E+02 -0.50620695783E+02  0.18039201794E+02  0.98261407424E+02  0.80235197667E+02 0.  0.
          5    1    3    3  501    0  0.56391123394E+02 -0.42120541641E+02 -0.93778893585E+02  0.11734849683E+03  0.47000000000E+01 0. -1.
        -11    1    4    4    0    0  0.11215657915E+02  0.26906740799E+02 -0.13925536002E+03  0.14227374662E+03  0.00000000000E+00 0.  1.
         12    1    4    4    0    0 -0.57732957569E+02 -0.22914283847E+01 -0.89179866394E+02  0.10626096933E+03  0.00000000000E+00 0. -1.
         -5    1    5    5    0  502 -0.28032832562E+02  0.68125925010E+02  0.39356785303E+02  0.83654216327E+02  0.47000000000E+01 0.  1.
         11    1    6    6    0    0 -0.11458044034E+01  0.18077696112E+02 -0.11030527577E+02  0.21208217819E+02  0.00000000000E+00 0. -1.
        -12    1    6    6    0    0  0.19304813226E+02 -0.68698391895E+02  0.29069729371E+02  0.77053189605E+02  0.00000000000E+00 0.  1.
</event>
<event>
12    1  0.8500177E-002  0.1723617E+03  0.7818608E-02  0.1175472E+00
         21   -1    0    0  501  502  0.00000000000E+00  0.00000000000E+00  0.18516889303E+03  0.18516889303E+03  0.00000000000E+00 0.  1.
         21   -1    0    0  502  503 -0.00000000000E+00 -0.00000000000E+00 -0.24867990787E+03  0.24867990787E+03  0.00000000000E+00 0.  1.
         -6    2    1    2    0  503 -0.99630965360E+01 -0.72505233675E+01 -0.16113027451E+03  0.23576279672E+03  0.17166623889E+03 0.  0.
        -24    2    3    3    0    0 -0.13583934659E+02  0.37377017524E+02 -0.24509819010E+02  0.91915771256E+02  0.79159415472E+02 0.  0.
          6    2    1    2  501    0  0.99630965360E+01  0.72505233675E+01  0.97619259670E+02  0.19808600417E+03  0.17192065556E+03 0.  0.
         24    2    5    5    0    0  0.16686092786E+02  0.66649900252E+02  0.34271876156E+02  0.11085948498E+03  0.79966424317E+02 0.  0.
          5    1    5    5  501    0 -0.67229962496E+01 -0.59399376885E+02  0.63347383514E+02  0.87226519195E+02  0.47000000000E+01 0. -1.
        -13    1    6    6    0    0  0.33842816733E+02  0.77190913087E+02  0.33533368097E+02  0.90709757377E+02  0.00000000000E+00 0.  1.
         14    1    6    6    0    0 -0.17156723947E+02 -0.10541012835E+02  0.73850805948E+00  0.20149727599E+02  0.00000000000E+00 0. -1.
         -5    1    3    3    0  503  0.36208381233E+01 -0.44627540892E+02 -0.13662045550E+03  0.14384702547E+03  0.47000000000E+01 0.  1.
         11    1    4    4    0    0 -0.46505907966E+02  0.15787253973E+02 -0.15829533020E+02  0.51600493985E+02  0.00000000000E+00 0. -1.
        -12    1    4    4    0    0  0.32921973307E+02  0.21589763551E+02 -0.86802859894E+01  0.40315277272E+02  0.00000000000E+00 0.  1.
</event>
<event>
12    1  0.8500177E-002  0.2228496E+03  0.7818608E-02  0.1132080E+00
         21   -1    0    0  503  502  0.00000000000E+00  0.00000000000E+00  0.68804313189E+02  0.68804313189E+02  0.00000000000E+00 0. -1.
         21   -1    0    0  501  503 -0.00000000000E+00 -0.00000000000E+00 -0.71745736584E+03  0.71745736584E+03  0.00000000000E+00 0.  1.
          6    2    1    2  501    0 -0.26648682417E+02 -0.13871461838E+03 -0.34024379749E+03  0.40672814595E+03  0.17236602146E+03 0.  0.
         24    2    3    3    0    0  0.13631437612E+02 -0.67477686231E+02 -0.29285787780E+03  0.31204602538E+03  0.82872981945E+02 0.  0.
         -6    2    1    2    0  502  0.26648682417E+02  0.13871461838E+03 -0.30840925516E+03  0.37953353307E+03  0.17022789558E+03 0.  0.
        -24    2    5    5    0    0 -0.16228060732E+02  0.10799951325E+03 -0.11067322189E+03  0.17483018274E+03  0.79936136604E+02 0.  0.
          5    1    3    3  501    0 -0.40280120030E+02 -0.71236932145E+02 -0.47385919690E+02  0.94682120571E+02  0.47000000000E+01 0. -1.
        -11    1    4    4    0    0 -0.20484705261E+02 -0.64637710140E+02 -0.23721159532E+03  0.24671237844E+03  0.00000000000E+00 0.  1.
         12    1    4    4    0    0  0.34116142873E+02 -0.28399760915E+01 -0.55646282482E+02  0.65333646943E+02  0.00000000000E+00 0. -1.
         -5    1    5    5    0  502  0.42876743149E+02  0.30715105127E+02 -0.19773603327E+03  0.20470335034E+03  0.47000000000E+01 0.  1.
         13    1    6    6    0    0  0.16685190084E+02  0.84686155861E+02 -0.43939471706E+02  0.96854621657E+02  0.00000000000E+00 0. -1.
        -14    1    6    6    0    0 -0.32913250816E+02  0.23313357388E+02 -0.66733750183E+02  0.77975561079E+02  0.00000000000E+00 0.  1.
</event>
<event>
12    1  0.8500177E-002  0.2022501E+03  0.7818608E-02  0.1147883E+00
         21   -1    0    0  503  502  0.00000000000E+00  0.00000000000E+00  0.10220020388E+04  0.10220020388E+04  0.00000000000E+00 0. -1.
         21   -1    0    0  501  503 -0.00000000000E+00 -0.00000000000E+00 -0.53817612269E+02  0.53817612269E+02  0.00000000000E+00 0. -1.
          6    2    1    2  501    0  0.69098496806E+01 -0.10630645849E+03  0.21162812626E+03  0.29273119189E+03  0.17191939315E+03 0.  0.
         24    2    3    3    0    0 -0.96394294080E+01  0.82882544806E+01  0.12570484616E+03  0.14847195668E+03  0.77978200866E+02 0.  0.
         -6    2    1    2    0  502 -0.69098496806E+01  0.10630645849E+03  0.75655630031E+03  0.78308845922E+03  0.17175939651E+03 0.  0.
        -24    2    5    5    0    0  0.56687031765E+02  0.32518167808E+02  0.39805572854E+03  0.41155915334E+03  0.81619377996E+02 0.  0.
          5    1    3    3  501    0  0.16549279089E+02 -0.11459471297E+03  0.85923280103E+02  0.14425923521E+03  0.47000000000E+01 0. -1.
        -13    1    4    4    0    0  0.16946349629E+02 -0.28728748967E+02  0.49873438275E+02  0.59998996894E+02  0.00000000000E+00 0.  1.
         14    1    4    4    0    0 -0.26585779037E+02  0.37017003448E+02  0.75831407887E+02  0.88472959786E+02  0.00000000000E+00 0. -1.
         -5    1    5    5    0  502 -0.63596881445E+02  0.73788290685E+02  0.35850057177E+03  0.37152930588E+03  0.47000000000E+01 0.  1.
         11    1    6    6    0    0 -0.49759408140E+01  0.19717636484E+02  0.20823351884E+02  0.29105964324E+02  0.00000000000E+00 0. -1.
        -12    1    6    6    0    0  0.61662972579E+02  0.12800531323E+02  0.37723237666E+03  0.38245318902E+03  0.00000000000E+00 0.  1.
</event>
<event>
12    1  0.8500177E-002  0.2049751E+03  0.7818608E-02  0.1147291E+00
         21   -1    0    0  501  502  0.00000000000E+00  0.00000000000E+00  0.63525639839E+02  0.63525639839E+02  0.00000000000E+00 0.  1.
         21   -1    0    0  502  503 -0.00000000000E+00 -0.00000000000E+00 -0.12776585871E+04  0.12776585871E+04  0.00000000000E+00 0.  1.
         -6    2    1    2    0  503  0.50143223305E+02  0.99428806195E+02 -0.10763285612E+04  0.10941926375E+04  0.16240051096E+03 0.  0.
        -24    2    3    3    0    0  0.40399976494E+02  0.74578704773E+02 -0.37346725064E+03  0.39080897955E+03  0.77844266868E+02 0.  0.
          6    2    1    2  501    0 -0.50143223305E+02 -0.99428806195E+02 -0.13780438609E+03  0.24699158947E+03  0.17208825090E+03 0.  0.
         24    2    5    5    0    0 -0.94560021574E+02 -0.91921225531E+02 -0.77803532983E+02  0.17181574156E+03  0.77949662726E+02 0.  0.
          5    1    5    5  501    0  0.44416798268E+02 -0.75075806637E+01 -0.60000853112E+02  0.75175847917E+02  0.47000000000E+01 0. -1.
        -11    1    6    6    0    0  0.88306592083E-01 -0.59570164582E+01  0.13464313318E+02  0.14723504211E+02  0.00000000000E+00 0.  1.
         12    1    6    6    0    0 -0.94648328166E+02 -0.85964209073E+02 -0.91267846301E+02  0.15709223735E+03  0.00000000000E+00 0. -1.
         -5    1    3    3    0  503  0.97432468111E+01  0.24850101421E+02 -0.70286131056E+03  0.70338365796E+03  0.47000000000E+01 0.  1.
         13    1    4    4    0    0  0.24624706874E+02  0.12603229799E+02 -0.27591171520E+02  0.39070325514E+02  0.00000000000E+00 0. -1.
        -14    1    4    4    0    0  0.15775269620E+02  0.61975474975E+02 -0.34587607912E+03  0.35173865403E+03  0.00000000000E+00 0.  1.
</event>
<event>
12    1  0.8500177E-002  0.2064033E+03  0.7818608E-02  0.1144799E+00
         21   -1    0    0  503  502  0.00000000000E+00  0.00000000000E+00  0.16877536825E+03  0.16877536825E+03  0.00000000000E+00 0. -1.
         21   -1    0    0  501  503 -0.00000000000E+00 -0.00000000000E+00 -0.41503007442E+03  0.41503007442E+03  0.00000000000E+00 0. -1.
          6    2    1    2  501    0  0.10235702349E+03 -0.41255804862E+02 -0.30671236344E+03  0.36873003667E+03  0.17236694684E+03 0.  0.
         24    2    3    3    0    0  0.31362477202E+02 -0.44816600752E+02 -0.27350964761E+03  0.29013350234E+03  0.79861061648E+02 0.  0.
         -6    2    1    2    0  502 -0.10235702349E+03  0.41255804862E+02  0.60457657270E+02  0.21507540601E+03  0.17442276301E+03 0.  0.
        -24    2    5    5    0    0 -0.70371214289E+02 -0.16341837930E+02  0.91954975752E+02  0.14189923832E+03  0.80377315231E+02 0.  0.
          5    1    3    3  501    0  0.70994546284E+02  0.35607958899E+01 -0.33202715831E+02  0.78596534325E+02  0.47000000000E+01 0. -1.
        -13    1    4    4    0    0  0.26394394562E+02  0.35505976674E+00 -0.21458720477E+02  0.34018624549E+02  0.00000000000E+00 0.  1.
         14    1    4    4    0    0  0.49680826401E+01 -0.45171660518E+02 -0.25205092713E+03  0.25611487779E+03  0.00000000000E+00 0. -1.
         -5    1    5    5    0  502 -0.31985809197E+02  0.57597642792E+02 -0.31497318483E+02  0.73176167683E+02  0.47000000000E+01 0.  1.
         11    1    6    6    0    0 -0.33975813815E+02  0.30563459467E+02  0.56799896232E+02  0.72902052035E+02  0.00000000000E+00 0. -1.
        -12    1    6    6    0    0 -0.36395400474E+02 -0.46905297397E+02  0.35155079520E+02  0.68997186288E+02  0.00000000000E+00 0.  1.
</event>
<event>
12    1  0.8500177E-002  0.1741051E+03  0.7818608E-02  0.1173978E+00
         21   -1    0    0  501  502  0.00000000000E+00  0.00000000000E+00  0.87895353955E+03  0.87895353955E+03  0.00000000000E+00 0.  1.
         21   -1    0    0  502  503 -0.00000000000E+00 -0.00000000000E+00 -0.51736472527E+02  0.51736472527E+02  0.00000000000E+00 0.  1.
         -6    2    1    2    0  503  0.73432885740E+01 -0.23841288423E+02  0.14389948826E+03  0.22587529430E+03  0.17230860377E+03 0.  0.
        -24    2    3    3    0    0  0.78065392903E+01  0.23632075942E+02  0.15556079245E+03  0.17676306628E+03  0.80166104962E+02 0.  0.
          6    2    1    2  501    0 -0.73432885740E+01  0.23841288423E+02  0.68331757876E+03  0.70481471778E+03  0.17093432080E+03 0.  0.
         24    2    5    5    0    0  0.58518467235E+02  0.32944494237E+02  0.46417922818E+03  0.47576374980E+03  0.79868886578E+02 0.  0.
          5    1    5    5  501    0 -0.65861755809E+02 -0.91032058137E+01  0.21913835058E+03  0.22905096797E+03  0.47000000000E+01 0. -1.
        -11    1    6    6    0    0  0.32975599009E+02  0.55036844103E+02  0.37410146156E+03  0.37956336477E+03  0.00000000000E+00 0.  1.
         12    1    6    6    0    0  0.25542868225E+02 -0.22092349866E+02  0.90077766624E+02  0.96200385029E+02  0.00000000000E+00 0. -1.
         -5    1    3    3    0  503 -0.46325071632E+00 -0.47473364365E+02 -0.11661304190E+02  0.49112228017E+02  0.47000000000E+01 0.  1.
         13    1    4    4    0    0  0.31856717687E+02 -0.15538541025E+02  0.46953566868E+02  0.58829704747E+02  0.00000000000E+00 0. -1.
        -14    1    4    4    0    0 -0.24050178397E+02  0.39170616967E+02  0.10860722558E+03  0.11793336153E+03  0.00000000000E+00 0.  1.
</event>
<event>
12    1  0.8500177E-002  0.1950599E+03  0.7818608E-02  0.1154153E+00
         21   -1    0    0  501  502  0.00000000000E+00  0.00000000000E+00  0.21325186036E+03  0.21325186036E+03  0.00000000000E+00 0. -1.
         21   -1    0    0  502  503 -0.00000000000E+00 -0.00000000000E+00 -0.20147768105E+03  0.20147768105E+03  0.00000000000E+00 0.  1.
         -6    2    1    2    0  503  0.44105800050E+02 -0.78645889947E+02 -0.65397698423E+02  0.20495853614E+03  0.17204837975E+03 0.  0.
        -24    2    3    3    0    0  0.53011452548E+02 -0.11109725249E+03 -0.80062723331E+02  0.16795104322E+03  0.81515027073E+02 0.  0.
          6    2    1    2  501    0 -0.44105800050E+02  0.78645889947E+02  0.77171877736E+02  0.20977100527E+03  0.17296785348E+03 0.  0.
         24    2    5    5    0    0 -0.86933951373E+02  0.16950033721E+02  0.35219544928E+02  0.12361581130E+03  0.78712368234E+02 0.  0.
          5    1    5    5  501    0  0.42828151323E+02  0.61695856226E+02  0.41952332808E+02  0.86155193977E+02  0.47000000000E+01 0. -1.
        -13    1    6    6    0    0 -0.81052553246E+02  0.31609346900E+02  0.22148830478E+01  0.87026277101E+02  0.00000000000E+00 0.  1.
         14    1    6    6    0    0 -0.58813981267E+01 -0.14659313179E+02  0.33004661880E+02  0.36589534195E+02  0.00000000000E+00 0. -1.
         -5    1    3    3    0  503 -0.89056524981E+01  0.32451362540E+02  0.14665024908E+02  0.37007492926E+02  0.47000000000E+01 0.  1.
         11    1    4    4    0    0 -0.20205536323E+02 -0.36265042790E+02 -0.12518449822E+02  0.43360449866E+02  0.00000000000E+00 0. -1.
        -12    1    4    4    0    0  0.73216988870E+02 -0.74832209697E+02 -0.67544273509E+02  0.12459059335E+03  0.00000000000E+00 0.  1.
</event>
<event>
12    1  0.8500177E-002  0.1848976E+03  0.7818608E-02  0.1163641E+00
         21   -1    0    0  501  502  0.00000000000E+00  0.00000000000E+00  0.40691596753E+03  0.40691596753E+03  0.00000000000E+00 0.  1.
         21   -1    0    0  502  503 -0.00000000000E+00 -0.00000000000E+00 -0.29101048533E+03  0.29101048533E+03  0.00000000000E+00 0.  1.
         -6    2    1    2    0  503 -0.25413590999E+02  0.57183419223E+02 -0.23712988220E+03  0.29940281727E+03  0.17174304037E+03 0.  0.
        -24    2    3    3    0    0  0.28204890315E+01  0.35181599936E+02 -0.34864804460E+02  0.93941154179E+02  0.79772712916E+02 0.  0.
          6    2    1    2  501    0  0.25413590999E+02 -0.57183419223E+02  0.35303536440E+03  0.39852363558E+03  0.17398656717E+03 0.  0.
         24    2    5    5    0    0  0.14141420276E+02 -0.55672629557E+02  0.84225854830E+02  0.12943259754E+03  0.79745728625E+02 0.  0.
          5    1    5    5  501    0  0.11272170723E+02 -0.15107896664E+01  0.26880950957E+03  0.26909103804E+03  0.47000000000E+01 0. -1.
        -13    1    6    6    0    0  0.14800930752E+02 -0.45090163384E+02  0.99847850830E+02  0.11055217637E+03  0.00000000000E+00 0.  1.
         14    1    6    6    0    0 -0.65951047584E+00 -0.10582466173E+02 -0.15621995999E+02  0.18880421165E+02  0.00000000000E+00 0. -1.
         -5    1    3    3    0  503 -0.28234080030E+02  0.22001819287E+02 -0.20226507774E+03  0.20546166309E+03  0.47000000000E+01 0.  1.
         11    1    4    4    0    0 -0.24624361759E+02  0.46629695615E+02 -0.70102563286E+01  0.53196159626E+02  0.00000000000E+00 0. -1.
        -12    1    4    4    0    0  0.27444850790E+02 -0.11448095678E+02 -0.27854548131E+02  0.40744994553E+02  0.00000000000E+00 0.  1.
</event>
<event>
12    1  0.8500177E-002  0.2073020E+03  0.7818608E-02  0.1143926E+00
         21   -1    0    0  503  502  0.00000000000E+00  0.00000000000E+00  0.12170801007E+03  0.12170801007E+03  0.00000000000E+00 0.  1.
         21   -1    0    0  501  503 -0.00000000000E+00 -0.00000000000E+00 -0.92924033158E+03  0.92924033158E+03  0.00000000000E+00 0. -1.
          6    2    1    2  501    0 -0.20350907145E+02 -0.11334109488E+03 -0.81852987345E+03  0.84437271557E+03  0.17237681359E+03 0.  0.
         24    2    3    3    0    0  0.32278560510E+02 -0.44401033527E+02 -0.62119372090E+03  0.62876603657E+03  0.80322678115E+02 0.  0.
         -6    2    1    2    0  502  0.20350907145E+02  0.11334109488E+03  0.10997551938E+02  0.20657562608E+03  0.17114958350E+03 0.  0.
        -24    2    5    5    0    0  0.41728669977E+02  0.14295765179E+03  0.44181362792E+01  0.16916536148E+03  0.80120081693E+02 0.  0.
          5    1    3    3  501    0 -0.52629467655E+02 -0.68940061352E+02 -0.19733615255E+03  0.21560667900E+03  0.47000000000E+01 0. -1.
        -13    1    4    4    0    0  0.25254748189E+02 -0.57933897360E+01 -0.50821476975E+02  0.57045492308E+02  0.00000000000E+00 0.  1.
         14    1    4    4    0    0  0.70238123203E+01 -0.38607643791E+02 -0.57037224392E+03  0.57172054426E+03  0.00000000000E+00 0. -1.
         -5    1    5    5    0  502 -0.21377762831E+02 -0.29616556915E+02  0.65794156592E+01  0.37410264602E+02  0.47000000000E+01 0.  1.
         13    1    6    6    0    0  0.17770380747E+02 -0.22681425791E+01 -0.11235848583E+02  0.21146517350E+02  0.00000000000E+00 0. -1.
        -14    1    6    6    0    0  0.23958289229E+02  0.14522579437E+03  0.15653984862E+02  0.14801884413E+03  0.00000000000E+00 0.  1.
</event>
<event>
12    1  0.8500177E-002  0.1962914E+03  0.7818608E-02  0.1152909E+00
         21   -1    0    0  501  502  0.00000000000E+00  0.00000000000E+00  0.19280910589E+04  0.19280910589E+04  0.00000000000E+00 0. -1.
         21   -1    0    0  502  503 -0.00000000000E+00 -0.00000000000E+00 -0.25131854706E+02  0.25131854706E+02  0.00000000000E+00 0. -1.
         -6    2    1    2    0  503  0.88486961975E+02 -0.32847872306E+02  0.50938156814E+03  0.54588892464E+03  0.17209361097E+03 0.  0.
        -24    2    3    3    0    0  0.93061830024E+02 -0.59724221832E+02  0.49761654764E+03  0.51582610227E+03  0.78910407569E+02 0.  0.
          6    2    1    2  501    0 -0.88486961975E+02  0.32847872306E+02  0.13935776361E+04  0.14073339890E+04  0.17210869710E+03 0.  0.
         24    2    5    5    0    0 -0.29413888894E+02 -0.18752719196E+02  0.37313503528E+03  0.38387053554E+03  0.83126362646E+02 0.  0.
          5    1    5    5  501    0 -0.59073073080E+02  0.51600591502E+02  0.10204426008E+04  0.10234634534E+04  0.47000000000E+01 0. -1.
        -13    1    6    6    0    0 -0.53024557795E+02  0.79422913470E+01  0.19697346147E+03  0.20414021711E+03  0.00000000000E+00 0.  1.
         14    1    6    6    0    0  0.23610668901E+02 -0.26695010543E+02  0.17616157381E+03  0.17973031842E+03  0.00000000000E+00 0. -1.
         -5    1    3    3    0  503 -0.45748680497E+01  0.26876349526E+02  0.11765020499E+02  0.30062822370E+02  0.47000000000E+01 0.  1.
         11    1    4    4    0    0  0.79518219109E+02 -0.28973423788E+02  0.21244911188E+03  0.22868587975E+03  0.00000000000E+00 0. -1.
        -12    1    4    4    0    0  0.13543610915E+02 -0.30750798044E+02  0.28516743575E+03  0.28714022252E+03  0.00000000000E+00 0.  1.
</event>
<event>
12    1  0.8500177E-002  0.2005477E+03  0.7818608E-02  0.1149509E+00
         21   -1    0    0  503  502  0.00000000000E+00  0.00000000000E+00  0.75025248211E+03  0.75025248211E+03  0.00000000000E+00 0.  1.
         21   -1    0    0  501  503 -0.00000000000E+00 -0.00000000000E+00 -0.58562425848E+02  0.58562425848E+02  0.00000000000E+00 0.  1.
          6    2    1    2  501    0 -0.63548483049E+02 -0.78301304123E+02  0.46776165634E+03  0.50894040451E+03  0.17334896676E+03 0.  0.
         24    2    3    3    0    0 -0.20409206466E+02  0.70573336106E+01  0.33738108247E+03  0.34717428240E+03  0.78978768570E+02 0.  0.
         -6    2    1    2    0  502  0.63548483049E+02  0.78301304123E+02  0.22392839992E+03  0.29987450345E+03  0.17207930033E+03 0.  0.
        -24    2    5    5    0    0  0.74581637050E+02  0.90094480613E+02  0.23860995317E+03  0.27754856551E+03  0.80119039192E+02 0.  0.
          5    1    3    3  501    0 -0.43139276582E+02 -0.85358637734E+02  0.13038057387E+03  0.16176612211E+03  0.47000000000E+01 0. -1.
        -11    1    4    4    0    0 -0.39671647346E+02  0.15061847732E+02  0.96825714910E+02  0.10571621412E+03  0.00000000000E+00 0.  1.
         12    1    4    4    0    0  0.19262440880E+02 -0.80045141217E+01  0.24055536756E+03  0.24145806828E+03  0.00000000000E+00 0. -1.
         -5    1    5    5    0  502 -0.11033154002E+02 -0.11793176490E+02 -0.14681553251E+02  0.22325937938E+02  0.47000000000E+01 0.  1.
         11    1    6    6    0    0  0.20490121524E+02 -0.13688695626E+02  0.37778137130E+02  0.45104468881E+02  0.00000000000E+00 0. -1.
        -12    1    6    6    0    0  0.54091515526E+02  0.10378317624E+03  0.20083181604E+03  0.23244409663E+03  0.00000000000E+00 0.  1.
</event>
<event>
12    1  0.8500177E-002  0.2384146E+03  0.7818608E-02  0.1120864E+00
         21   -1    0    0  501  502  0.00000000000E+00  0.00000000000E+00  0.40792385213E+03  0.40792385213E+03  0.00000000000E+00 0.  1.
         21   -1    0    0  502  503 -0.00000000000E+00 -0.00000000000E+00 -0.17048512960E+03  0.17048512960E+03  0.00000000000E+00 0.  1.
         -6    2    1    2    0  503 -0.16286863103E+03 -0.25257187916E+02 -0.49708951295E+01  0.23840320678E+03  0.17218380496E+03 0.  0.
        -24    2    3    3    0    0 -0.81214453512E+02  0.14882522435E+02  0.60569017308E+02  0.12617054141E+03  0.73709719370E+02 0.  0.
          6    2    1    2  501    0  0.16286863103E+03  0.25257187916E+02  0.24240961766E+03  0.34000577496E+03  0.17227126213E+03 0.  0.
         24    2    5    5    0    0  0.14843980520E+03 -0.10383046317E+02  0.24934277170E+03  0.30065382538E+03  0.77966156092E+02 0.  0.
          5    1    5    5  501    0  0.14428825829E+02  0.35640234233E+02 -0.69331540415E+01  0.39351949583E+02  0.47000000000E+01 0. -1.
        -11    1    6    6    0    0  0.56617048010E+01  0.20640608072E+02  0.24792829188E+02  0.32753228574E+02  0.00000000000E+00 0.  1.
         12    1    6    6    0    0  0.14277810040E+03 -0.31023654390E+02  0.22454994251E+03  0.26790059680E+03  0.00000000000E+00 0. -1.
         -5    1    3    3    0  503 -0.81654177515E+02 -0.40139710350E+02 -0.65539912438E+02  0.11223266537E+03  0.47000000000E+01 0.  1.
         13    1    4    4    0    0 -0.24007280774E+02  0.41143550703E+02  0.28743433458E+02  0.55635656386E+02  0.00000000000E+00 0. -1.
        -14    1    4    4    0    0 -0.57207172738E+02 -0.26261028268E+02  0.31825583851E+02  0.70534885027E+02  0.00000000000E+00 0.  1.
</event>
<event>
12    1  0.8500177E-002  0.1797759E+03  0.7818608E-02  0.1169153E+00
         21   -1    0    0  503  502  0.00000000000E+00  0.00000000000E+00  0.24956900770E+02  0.24956900770E+02  0.00000000000E+00 0.  1.
         21   -1    0    0  501  503 -0.00000000000E+00 -0.00000000000E+00 -0.14070029554E+04  0.14070029554E+04  0.00000000000E+00 0.  1.
          6    2    1    2  501    0 -0.85156406521E+01  0.60241026077E+02 -0.91279347413E+03  0.92944881925E+03  0.16426102348E+03 0.  0.
         24    2    3    3    0    0 -0.14567259177E+02  0.91228511888E+02 -0.46365167583E+03  0.47917413493E+03  0.78103320421E+02 0.  0.
         -6    2    1    2    0  502  0.85156406521E+01 -0.60241026077E+02 -0.46925258051E+03  0.50251103693E+03  0.16916814287E+03 0.  0.
        -24    2    5    5    0    0  0.24650126532E+02 -0.10132866168E+03 -0.30676385260E+03  0.33406759796E+03  0.81375502008E+02 0.  0.
          5    1    3    3  501    0  0.60516185253E+01 -0.30987485810E+02 -0.44914179830E+03  0.45027468432E+03  0.47000000000E+01 0. -1.
        -11    1    4    4    0    0 -0.16697426653E+01 -0.10050552652E+02 -0.10373524047E+02  0.14540001731E+02  0.00000000000E+00 0.  1.
         12    1    4    4    0    0 -0.12897516512E+02  0.10127906454E+03 -0.45327815179E+03  0.46463413320E+03  0.00000000000E+00 0. -1.
         -5    1    5    5    0  502 -0.16134485880E+02  0.41087635607E+02 -0.16248872790E+03  0.16844343896E+03  0.47000000000E+01 0.  1.
         11    1    6    6    0    0 -0.12036553323E+02 -0.92989074894E+02 -0.20053776921E+03  0.22137579711E+03  0.00000000000E+00 0. -1.
        -12    1    6    6    0    0  0.36686679855E+02 -0.83395867908E+01 -0.10622608339E+03  0.11269180085E+03  0.00000000000E+00 0.  1.
</event>
<event>
12    1  0.8500177E-002  0.2237222E+03  0.7818608E-02  0.1131508E+00
         21   -1    0    0  503  502  0.00000000000E+00  0.00000000000E+00  0.16812448047E+03  0.16812448047E+03  0.00000000000E+00 0.  1.
         21   -1    0    0  501  503 -0.00000000000E+00 -0.00000000000E+00 -0.61383334856E+03  0.61383334856E+03  0.00000000000E+00 0.  1.
          6    2    1    2  501    0 -0.21614291795E+01 -0.13904829841E+03 -0.50413597071E+03  0.55073206062E+03  0.17266622299E+03 0.  0.
         24    2    3    3    0    0 -0.40016655928E+02 -0.15045770920E+03 -0.43251520833E+03  0.46878807701E+03  0.91945639895E+02 0.  0.
         -6    2    1    2    0  502  0.21614291795E+01  0.13904829841E+03  0.58427102623E+02  0.23122576842E+03  0.17524990326E+03 0.  0.
        -24    2    5    5    0    0  0.50638654428E+02  0.21993282504E+02  0.23461052834E+02  0.99709105006E+02  0.79646135019E+02 0.  0.
          5    1    3    3  501    0  0.37855226748E+02  0.11409410784E+02 -0.71620762380E+02  0.81943983614E+02  0.47000000000E+01 0. -1.
        -11    1    4    4    0    0 -0.49621030301E+02 -0.26710974481E+02 -0.14866479432E+03  0.15898724438E+03  0.00000000000E+00 0.  1.
         12    1    4    4    0    0  0.96043743728E+01 -0.12374673471E+03 -0.28385041402E+03  0.30980083263E+03  0.00000000000E+00 0. -1.
         -5    1    5    5    0  502 -0.48477225248E+02  0.11705501591E+03  0.34966049790E+02  0.13151666341E+03  0.47000000000E+01 0.  1.
         11    1    6    6    0    0  0.47836319483E+02  0.41880075274E+02  0.38760353915E+02  0.74462199821E+02  0.00000000000E+00 0. -1.
        -12    1    6    6    0    0  0.28023349446E+01 -0.19886792770E+02 -0.15299301081E+02  0.25246905184E+02  0.00000000000E+00 0.  1.
</event>
<event>
12    1  0.8500177E-002  0.2047207E+03  0.7818608E-02  0.1147864E+00
         21   -1    0    0  503  502  0.00000000000E+00  0.00000000000E+00  0.37743137453E+03  0.37743137453E+03  0.00000000000E+00 0. -1.
         21   -1    0    0  501  503 -0.00000000000E+00 -0.00000000000E+00 -0.11028877209E+03  0.11028877209E+03  0.00000000000E+00 0.  1.
          6    2    1    2  501    0 -0.78809522535E+02 -0.43168940495E+02  0.18578889801E+03  0.27645631569E+03  0.18394586594E+03 0.  0.
         24    2    3    3    0    0 -0.31281519780E+02  0.24425843098E+02  0.16994109681E+03  0.19218764644E+03  0.80504408371E+02 0.  0.
         -6    2    1    2    0  502  0.78809522535E+02  0.43168940495E+02  0.81353704429E+02  0.21126383093E+03  0.17303029437E+03 0.  0.
        -24    2    5    5    0    0  0.47429579170E+02  0.36514965662E+01 -0.20287238892E+02  0.97688743085E+02  0.82877138321E+02 0.  0.
          5    1    3    3  501    0 -0.47528002755E+02 -0.67594783593E+02  0.15847801195E+02  0.84268669253E+02  0.47000000000E+01 0. -1.
        -11    1    4    4    0    0 -0.43526721707E+02 -0.13463290838E+02  0.60564696850E+02  0.75788641677E+02  0.00000000000E+00 0.  1.
         12    1    4    4    0    0  0.12245201928E+02  0.37889133936E+02  0.10937639996E+03  0.11639900476E+03  0.00000000000E+00 0. -1.
         -5    1    5    5    0  502  0.31379943365E+02  0.39517443929E+02  0.10164094332E+03  0.11357508785E+03  0.47000000000E+01 0.  1.
         13    1    6    6    0    0  0.40597354994E+01 -0.26608551786E+02  0.18017696656E+02  0.32390336109E+02  0.00000000000E+00 0. -1.
        -14    1    6    6    0    0  0.43369843671E+02  0.30260048352E+02 -0.38304935549E+02  0.65298406977E+02  0.00000000000E+00 0.  1.
</event>
<event>
12    1  0.8500177E-002  0.2160812E+03  0.7818608E-02  0.1137166E+00
         21   -1    0    0  501  502  0.00000000000E+00  0.00000000000E+00  0.12861808603E+03  0.12861808603E+03  0.00000000000E+00 0. -1.
         21   -1    0    0  502  503 -0.00000000000E+00 -0.00000000000E+00 -0.38781010314E+03  0.38781010314E+03  0.00000000000E+00 0. -1.
         -6    2    1    2    0  503 -0.98256840606E+02  0.83709696775E+02 -0.19901905377E+03  0.29376805630E+03  0.17328983547E+03 0.  0.
        -24    2    3    3    0    0 -0.62988889146E+02 -0.16151009320E+02 -0.13451898247E+03  0.16967801552E+03  0.80416522239E+02 0.  0.
          6    2    1    2  501    0  0.98256840606E+02 -0.83709696775E+02 -0.60172963344E+02  0.22266013288E+03  0.17115790720E+03 0.  0.
         24    2    5    5    0    0  0.96131125857E+02 -0.12171781243E+03 -0.40153899396E+02  0.17939365116E+03  0.80705187064E+02 0.  0.
          5    1    5    5  501    0  0.21257147489E+01  0.38008115656E+02 -0.20019063948E+02  0.43266481718E+02  0.47000000000E+01 0. -1.
        -13    1    6    6    0    0  0.23584792730E+02 -0.65967069986E+02 -0.51847822154E+02  0.87155570291E+02  0.00000000000E+00 0.  1.
         14    1    6    6    0    0  0.72546333127E+02 -0.55750742445E+02  0.11693922757E+02  0.92238080871E+02  0.00000000000E+00 0. -1.
         -5    1    3    3    0  503 -0.35267951460E+02  0.99860706095E+02 -0.64500071296E+02  0.12409004077E+03  0.47000000000E+01 0.  1.
         11    1    4    4    0    0 -0.55296317525E+02  0.17910957069E+02 -0.11692704969E+03  0.13057725707E+03  0.00000000000E+00 0. -1.
        -12    1    4    4    0    0 -0.76925716216E+01 -0.34061966389E+02 -0.17591932776E+02  0.39100758448E+02  0.00000000000E+00 0.  1.
</event>
<event>
12    1  0.8500177E-002  0.1760443E+03  0.7818608E-02  0.1171836E+00
         21   -1    0    0  503  502  0.00000000000E+00  0.00000000000E+00  0.51847252902E+02  0.51847252902E+02  0.00000000000E+00 0. -1.
         21   -1    0    0  501  503 -0.00000000000E+00 -0.00000000000E+00 -0.59623446028E+03  0.59623446028E+03  0.00000000000E+00 0. -1.
          6    2    1    2  501    0  0.10855245894E+02  0.29555415310E+02 -0.28114412809E+03  0.33139808230E+03  0.17260159112E+03 0.  0.
         24    2    3    3    0    0  0.37518612258E+02  0.78934974465E+02 -0.18868876428E+03  0.22314208818E+03  0.80935562576E+02 0.  0.
         -6    2    1    2    0  502 -0.10855245894E+02 -0.29555415310E+02 -0.26324307929E+03  0.31668363088E+03  0.17320578609E+03 0.  0.
        -24    2    5    5    0    0 -0.47092396516E+02  0.28519875702E+01 -0.25016996163E+03  0.26612310030E+03  0.77528492637E+02 0.  0.
          5    1    3    3  501    0 -0.26663366364E+02 -0.49379559155E+02 -0.92455363806E+02  0.10825599413E+03  0.47000000000E+01 0. -1.
        -11    1    4    4    0    0  0.31056401864E+02 -0.78097044034E+01 -0.55086380217E+02  0.63718136076E+02  0.00000000000E+00 0.  1.
         12    1    4    4    0    0  0.64622103940E+01  0.86744678868E+02 -0.13360238407E+03  0.15942395210E+03  0.00000000000E+00 0. -1.
         -5    1    5    5    0  502  0.36237150622E+02 -0.32407402880E+02 -0.13073117662E+02  0.50560530575E+02  0.47000000000E+01 0.  1.
         13    1    6    6    0    0 -0.41156955781E+01 -0.29932596398E+02 -0.14224392165E+03  0.14541744230E+03  0.00000000000E+00 0. -1.
        -14    1    6    6    0    0 -0.42976700938E+02  0.32784583968E+02 -0.10792603997E+03  0.12070565800E+03  0.00000000000E+00 0.  1.
</event>
<event>
12    1  0.8500177E-002  0.2268175E+03  0.7818608E-02  0.1129178E+00
         21   -1    0    0  503  502  0.00000000000E+00  0.00000000000E+00  0.46542999082E+03  0.46542999082E+03  0.00000000000E+00 0. -1.
         21   -1    0    0  501  503 -0.00000000000E+00 -0.00000000000E+00 -0.12615252537E+03  0.12615252537E+03  0.00000000000E+00 0.  1.
          6    2    1    2  501    0  0.12869496113E+03 -0.72422387087E+02  0.27568367306E+03  0.35601865505E+03  0.17011878198E+03 0.  0.
         24    2    3    3    0    0  0.43541884419E+02 -0.54928495691E+02  0.57062467527E+02  0.12070098845E+03  0.79997300416E+02 0.  0.
         -6    2    1    2    0  502 -0.12869496113E+03  0.72422387087E+02  0.63593792398E+02  0.23556386113E+03  0.17215913298E+03 0.  0.
        -24    2    5    5    0    0 -0.11447704292E+02  0.74125616444E+02  0.23011935094E+02  0.11139141101E+03  0.79074903377E+02 0.  0.
          5    1    3    3  501    0  0.85153076712E+02 -0.17493891397E+02  0.21862120553E+03  0.23531766661E+03  0.47000000000E+01 0. -1.
        -11    1    4    4    0    0  0.10131335500E+01  0.12711695826E+02  0.35825763982E+02  0.38027608592E+02  0.00000000000E+00 0.  1.
         12    1    4    4    0    0  0.42528750869E+02 -0.67640191517E+02  0.21236703545E+02  0.82673379853E+02  0.00000000000E+00 0. -1.
         -5    1    5    5    0  502 -0.11724725684E+03 -0.17032293562E+01  0.40581857304E+02  0.12417245012E+03  0.47000000000E+01 0.  1.
         11    1    6    6    0    0  0.15049870438E+02 -0.10462062228E+02 -0.39319192117E+01  0.18746021843E+02  0.00000000000E+00 0. -1.
        -12    1    6    6    0    0 -0.26497574730E+02  0.84587678672E+02  0.26943854305E+02  0.92645389170E+02  0.00000000000E+00 0.  1.
</event>
<event>
12    1  0.8500177E-002  0.2131819E+03  0.7818608E-02  0.1139275E+00
         21   -1    0    0  503  502  0.00000000000E+00  0.00000000000E+00  0.10801772036E+03  0.10801772036E+03  0.00000000000E+00 0.  1.
         21   -1    0    0  501  503 -0.00000000000E+00 -0.00000000000E+00 -0.52878864657E+03  0.52878864657E+03  0.00000000000E+00 0.  1.
          6    2    1    2  501    0  0.91914104547E+02  0.83890644707E+02 -0.35528054378E+03  0.41379174797E+03  0.17179494468E+03 0.  0.
         24    2    3    3    0    0  0.53136006018E+02 -0.14923900090E+02 -0.23417313316E+03  0.25267951971E+03  0.77225160778E+02 0.  0.
         -6    2    1    2    0  502 -0.91914104547E+02 -0.83890644707E+02 -0.65490382424E+02  0.22301461895E+03  0.17309155725E+03 0.  0.
        -24    2    5    5    0    0 -0.63471620578E+02  0.20471386263E+02 -0.28218341164E+02  0.10850827213E+03  0.80808700449E+02 0.  0.
          5    1    3    3  501    0  0.38778098529E+02  0.98814544798E+02 -0.12110741062E+03  0.16111222827E+03  0.47000000000E+01 0. -1.
        -11    1    4    4    0    0  0.19837024693E+02  0.31795025644E+02 -0.87711801917E+02  0.95382343230E+02  0.00000000000E+00 0.  1.
         12    1    4    4    0    0  0.33298981324E+02 -0.46718925735E+02 -0.14646133124E+03  0.15729717648E+03  0.00000000000E+00 0. -1.
         -5    1    5    5    0  502 -0.28442483968E+02 -0.10436203097E+03 -0.37272041260E+02  0.11450634682E+03  0.47000000000E+01 0.  1.
         13    1    6    6    0    0 -0.54442234687E+02 -0.93223430151E+01 -0.46676541195E+02  0.72315714024E+02  0.00000000000E+00 0. -1.
        -14    1    6    6    0    0 -0.90293858919E+01  0.29793729278E+02  0.18458200030E+02  0.36192558106E+02  0.00000000000E+00 0.  1.
</event>
<event>
12    1  0.8500177E-002  0.1837869E+03  0.7818608E-02  0.1164929E+00
         21   -1    0    0  503  502  0.00000000000E+00  0.00000000000E+00  0.34447855183E+03  0.34447855183E+03  0.00000000000E+00 0.  1.
         21   -1    0    0  501  503 -0.00000000000E+00 -0.00000000000E+00 -0.96414407043E+02  0.96414407043E+02  0.00000000000E+00 0.  1.
          6    2    1    2  501    0  0.38212522903E+02 -0.41169915289E+02  0.11997561239E+03  0.21687443935E+03  0.17171259722E+03 0.  0.
         24    2    3    3    0    0  0.72288633387E+02  0.10361729646E+02  0.36895700314E+02  0.11323538529E+03  0.78281209894E+02 0.  0.
         -6    2    1    2    0  502 -0.38212522903E+02  0.41169915289E+02  0.12808853239E+03  0.22401851952E+03  0.17499276021E+03 0.  0.
        -24    2    5    5    0    0 -0.19983858358E+01 -0.15435950310E+02  0.13309098037E+03  0.15647000192E+03  0.80792266574E+02 0.  0.
          5    1    3    3  501    0 -0.34076110485E+02 -0.51531644935E+02  0.83079912078E+02  0.10363905406E+03  0.47000000000E+01 0. -1.
        -11    1    4    4    0    0  0.41103772293E+02  0.15931875579E+02 -0.19771940180E+02  0.48314328876E+02  0.00000000000E+00 0.  1.
         12    1    4    4    0    0  0.31184861094E+02 -0.55701459330E+01  0.56667640494E+02  0.64921056417E+02  0.00000000000E+00 0. -1.
         -5    1    5    5    0  502 -0.36214137067E+02  0.56605865599E+02 -0.50024479759E+01  0.67548517597E+02  0.47000000000E+01 0.  1.
         11    1    6    6    0    0  0.37931698806E+02 -0.11102543681E+02  0.85518316029E+02  0.94209673744E+02  0.00000000000E+00 0. -1.
        -12    1    6    6    0    0 -0.39930084642E+02 -0.43334066299E+01  0.47572664339E+02  0.62260328178E+02  0.00000000000E+00 0.  1.
</event>
<event>
12    1  0.8500177E-002  0.3954816E+03  0.7818608E-02  0.1045423E+00
         21   -1    0    0  501  502  0.00000000000E+00  0.00000000000E+00  0.29502276974E+03  0.29502276974E+03  0.00000000000E+00 0. -1.
         21   -1    0    0  502  503 -0.00000000000E+00 -0.00000000000E+00 -0.97165522551E+03  0.97165522551E+03  0.00000000000E+00 0.  1.
         -6    2    1    2    0  503 -0.79867357600E+02  0.34683730893E+03 -0.76555561716E+03  0.86132259129E+03  0.17066425994E+03 0.  0.
        -24    2    3    3    0    0 -0.36804063586E+02  0.62093979659E+02 -0.20581346364E+03  0.23182550687E+03  0.78572784197E+02 0.  0.
          6    2    1    2  501    0  0.79867357600E+02 -0.34683730893E+03  0.88923161392E+02  0.40535540397E+03  0.17242610365E+03 0.  0.
         24    2    5    5    0    0  0.69614897357E+02 -0.34772859187E+03  0.52003430452E+02  0.36674110792E+03  0.77674165091E+02 0.  0.
          5    1    5    5  501    0  0.10252460244E+02  0.89128294267E+00  0.36919730940E+02  0.38614296045E+02  0.47000000000E+01 0. -1.
        -11    1    6    6    0    0  0.55020096114E+02 -0.16462203432E+03 -0.72755295959E+01  0.17372552630E+03  0.00000000000E+00 0.  1.
         12    1    6    6    0    0  0.14594801242E+02 -0.18310655755E+03  0.59278960048E+02  0.19301558162E+03  0.00000000000E+00 0. -1.
         -5    1    3    3    0  503 -0.43063294014E+02  0.28474332927E+03 -0.55974215353E+03  0.62949708442E+03  0.47000000000E+01 0.  1.
         13    1    4    4    0    0 -0.67994403639E+00  0.55834634905E+01 -0.13189173694E+03  0.13201161942E+03  0.00000000000E+00 0. -1.
        -14    1    4    4    0    0 -0.36124119550E+02  0.56510516168E+02 -0.73921726695E+02  0.99813887453E+02  0.00000000000E+00 0.  1.
</event>
<event>
12    1  0.8500177E-002  0.1838005E+03  0.7818608E-02  0.1164383E+00
         21   -1    0    0  503  502  0.00000000000E+00  0.00000000000E+00  0.12010349146E+03  0.12010349146E+03  0.00000000000E+00 0. -1.
         21   -1    0    0  501  503 -0.00000000000E+00 -0.00000000000E+00 -0.32303374143E+03  0.32303374143E+03  0.00000000000E+00 0.  1.
          6    2    1    2  501    0  0.39726869210E+02 -0.47023171369E+02 -0.20742475780E+02  0.18496718897E+03  0.17318547258E+03 0.  0.
         24    2    3    3    0    0  0.65247414020E+02 -0.65166601793E+02 -0.59966117370E+02  0.13455819836E+03  0.77498790238E+02 0.  0.
         -6    2    1    2    0  502 -0.39726869210E+02  0.47023171369E+02 -0.18218777418E+03  0.25817004392E+03  0.17224977136E+03 0.  0.
        -24    2    5    5    0    0  0.27720575509E+02  0.57237579882E+02 -0.63263346393E+02  0.12098913612E+03  0.81188356332E+02 0.  0.
          5    1    3    3  501    0 -0.25520544810E+02  0.18143430424E+02  0.39223641590E+02  0.50408990612E+02  0.47000000000E+01 0. -1.
        -11    1    4    4    0    0  0.11052262940E+02  0.10137409785E+02 -0.35605436651E+02  0.38635045132E+02  0.00000000000E+00 0.  1.
         12    1    4    4    0    0  0.54195151080E+02 -0.75304011578E+02 -0.24360680719E+02  0.95923153229E+02  0.00000000000E+00 0. -1.
         -5    1    5    5    0  502 -0.67447444719E+02 -0.10214408513E+02 -0.11892442779E+03  0.13718090780E+03  0.47000000000E+01 0.  1.
         11    1    6    6    0    0 -0.12868480121E+02  0.33122778141E+02  0.71167526701E+01  0.36240369493E+02  0.00000000000E+00 0. -1.
        -12    1    6    6    0    0  0.40589055630E+02  0.24114801741E+02 -0.70380099064E+02  0.84748766623E+02  0.00000000000E+00 0.  1.
</event>
<event>
12    1  0.8500177E-002  0.1739610E+03  0.7818608E-02  0.1174260E+00
         21   -1    0    0  503  502  0.00000000000E+00  0.00000000000E+00  0.42324629564E+03  0.42324629564E+03  0.00000000000E+00 0.  1.
         21   -1    0    0  501  503 -0.00000000000E+00 -0.00000000000E+00 -0.82790498213E+02  0.82790498213E+02  0.00000000000E+00 0.  1.
          6    2    1    2  501    0 -0.12002302063E+02  0.99733069836E+01  0.74435369894E+02  0.18921692825E+03  0.17325963043E+03 0.  0.
         24    2    3    3    0    0  0.37227255475E+02 -0.26947422063E+01  0.98354486742E+02  0.13284102066E+03  0.81117208540E+02 0.  0.
         -6    2    1    2    0  502  0.12002302063E+02 -0.99733069836E+01  0.26602042754E+03  0.31681986561E+03  0.17136054760E+03 0.  0.
        -24    2    5    5    0    0  0.11799852404E+02  0.42425052640E+02  0.75522002290E+02  0.11919049255E+03  0.81016535813E+02 0.  0.
          5    1    3    3  501    0 -0.49229557538E+02  0.12668049190E+02 -0.23919116848E+02  0.56375907589E+02  0.47000000000E+01 0. -1.
        -13    1    4    4    0    0 -0.10091354888E+01 -0.34434107615E+02  0.63171207512E+02  0.71953648832E+02  0.00000000000E+00 0.  1.
         14    1    4    4    0    0  0.38236390964E+02  0.31739365409E+02  0.35183279230E+02  0.60887371826E+02  0.00000000000E+00 0. -1.
         -5    1    5    5    0  502  0.20244965878E+00 -0.52398359623E+02  0.19049842524E+03  0.19762937306E+03  0.47000000000E+01 0.  1.
         13    1    6    6    0    0  0.17480560756E+02 -0.92759034535E+01 -0.75488801772E+01  0.21180131755E+02  0.00000000000E+00 0. -1.
        -14    1    6    6    0    0 -0.56807083524E+01  0.51700956093E+02  0.83070882467E+02  0.98010360790E+02  0.00000000000E+00 0.  1.
</event>
<event>
12    1  0.8500177E-002  0.2459834E+03  0.7818608E-02  0.1116056E+00
         21   -1    0    0  501  502  0.00000000000E+00  0.00000000000E+00  0.31723302475E+03  0.31723302475E+03  0.00000000000E+00 0. -1.
         21   -1    0    0  502  503 -0.00000000000E+00 -0.00000000000E+00 -0.24177098520E+03  0.24177098520E+03  0.00000000000E+00 0.  1.
         -6    2    1    2    0  503  0.17483652526E+03  0.27932658633E+01 -0.91729956937E+02  0.26253036684E+03  0.17300923563E+03 0.  0.
        -24    2    3    3    0    0  0.13247829836E+03  0.58700173230E+02 -0.29417481672E+02  0.16859029950E+03  0.81000561631E+02 0.  0.
          6    2    1    2  501    0 -0.17483652526E+03 -0.27932658633E+01  0.16719199648E+03  0.29647364311E+03  0.17137048892E+03 0.  0.
         24    2    5    5    0    0 -0.19594546560E+03 -0.21006343133E+02  0.12849351629E+03  0.24854697084E+03  0.80181799951E+02 0.  0.
          5    1    5    5  501    0  0.21108940337E+02  0.18213077270E+02  0.38698480195E+02  0.47926672274E+02  0.47000000000E+01 0. -1.
        -13    1    6    6    0    0 -0.10014577389E+03 -0.19548449929E+02  0.11167712134E+03  0.15127160128E+03  0.00000000000E+00 0.  1.
         14    1    6    6    0    0 -0.95799691708E+02 -0.14578932044E+01  0.16816394953E+02  0.97275369561E+02  0.00000000000E+00 0. -1.
         -5    1    3    3    0  503  0.42358226906E+02 -0.55906907367E+02 -0.62312475266E+02  0.93940067339E+02  0.47000000000E+01 0.  1.
         13    1    4    4    0    0  0.34903347283E+02  0.24714562493E+02  0.27285023015E+02  0.50729929349E+02  0.00000000000E+00 0. -1.
        -14    1    4    4    0    0  0.97574951072E+02  0.33985610737E+02 -0.56702504687E+02  0.11786037015E+03  0.00000000000E+00 0.  1.
</event>
<event>
12    1  0.8500177E-002  0.4719417E+03  0.7818608E-02  0.1021444E+00
         21   -1    0    0  501  502  0.00000000000E+00  0.00000000000E+00  0.37839391811E+03  0.37839391811E+03  0.00000000000E+00 0.  1.
         21   -1    0    0  502  503 -0.00000000000E+00 -0.00000000000E+00 -0.58743572119E+03  0.58743572119E+03  0.00000000000E+00 0. -1.
         -6    2    1    2    0  503 -0.43643791187E+03 -0.53354268117E+02 -0.99470558572E+02  0.48133521187E+03  0.16871415268E+03 0.  0.
        -24    2    3    3    0    0 -0.18633805373E+03  0.29529837987E+02 -0.21976219311E+02  0.20665871723E+03  0.81430888448E+02 0.  0.
          6    2    1    2  501    0  0.43643791187E+03  0.53354268117E+02 -0.10957124450E+03  0.48449442744E+03  0.17147671489E+03 0.  0.
         24    2    5    5    0    0  0.22170996843E+03  0.82907923808E+02 -0.22503614138E+02  0.25086144492E+03  0.79975108438E+02 0.  0.
          5    1    5    5  501    0  0.21472794345E+03 -0.29553655691E+02 -0.87067630366E+02  0.23363298251E+03  0.47000000000E+01 0. -1.
        -11    1    6    6    0    0  0.11068970702E+03  0.18411045104E+02  0.23182705033E+02  0.11458017121E+03  0.00000000000E+00 0.  1.
         12    1    6    6    0    0  0.11102026141E+03  0.64496878703E+02 -0.45686319171E+02  0.13628127371E+03  0.00000000000E+00 0. -1.
         -5    1    3    3    0  503 -0.25009985815E+03 -0.82884106104E+02 -0.77494339261E+02  0.27467649464E+03  0.47000000000E+01 0.  1.
         13    1    4    4    0    0 -0.17234092124E+02  0.29746541200E+02 -0.14725208875E+02  0.37399230221E+02  0.00000000000E+00 0. -1.
        -14    1    4    4    0    0 -0.16910396160E+03 -0.21670321307E+00 -0.72510104364E+01  0.16925948701E+03  0.00000000000E+00 0.  1.
</event>
<event>
12    1  0.8500177E-002  0.3900439E+03  0.7818608E-02  0.1047319E+00
         21   -1    0    0  501  502  0.00000000000E+00  0.00000000000E+00  0.36089606232E+03  0.36089606232E+03  0.00000000000E+00 0.  1.
         21   -1    0    0  502  503 -0.00000000000E+00 -0.00000000000E+00 -0.64173631114E+03  0.64173631114E+03  0.00000000000E+00 0. -1.
         -6    2    1    2    0  503  0.50982321226E+02 -0.34616040269E+03  0.15347762363E+03  0.41915347779E+03  0.17236019121E+03 0.  0.
        -24    2    3    3    0    0  0.97793812032E+02 -0.24662297845E+03  0.12519706547E+03  0.30548336533E+03  0.85201280023E+02 0.  0.
          6    2    1    2  501    0 -0.50982321226E+02  0.34616040269E+03 -0.43431787245E+03  0.58347889567E+03  0.17143332784E+03 0.  0.
         24    2    5    5    0    0 -0.89087993517E+02  0.22706281090E+03 -0.23679193850E+03  0.34965232914E+03  0.81805491590E+02 0.  0.
          5    1    5    5  501    0  0.38105672291E+02  0.11909759179E+03 -0.19752593395E+03  0.23382656653E+03  0.47000000000E+01 0. -1.
        -11    1    6    6    0    0 -0.51829510433E+02  0.42156533580E+02 -0.44376944866E+02  0.80204642701E+02  0.00000000000E+00 0.  1.
         12    1    6    6    0    0 -0.37258483084E+02  0.18490627732E+03 -0.19241499363E+03  0.26944768644E+03  0.00000000000E+00 0. -1.
         -5    1    3    3    0  503 -0.46811490805E+02 -0.99537424239E+02  0.28280558160E+02  0.11367011245E+03  0.47000000000E+01 0.  1.
         13    1    4    4    0    0  0.56792593077E+02 -0.12556301812E+03  0.18614874539E+02  0.13906107904E+03  0.00000000000E+00 0. -1.
        -14    1    4    4    0    0  0.41001218954E+02 -0.12105996033E+03  0.10658219094E+03  0.16642228630E+03  0.00000000000E+00 0.  1.
</event>
<event>
12    1  0.8500177E-002  0.2096764E+03  0.7818608E-02  0.1142662E+00
         21   -1    0    0  501  502  0.00000000000E+00  0.00000000000E+00  0.26025444219E+03  0.26025444219E+03  0.00000000000E+00 0. -1.
         21   -1    0    0  502  503 -0.00000000000E+00 -0.00000000000E+00 -0.16563882477E+03  0.16563882477E+03  0.00000000000E+00 0. -1.
         -6    2    1    2    0  503 -0.80264043469E+01 -0.11935520027E+03  0.51145774475E+02  0.21175825233E+03  0.16707956244E+03 0.  0.
        -24    2    3    3    0    0 -0.52994668954E+02 -0.13092156349E+03  0.26302278651E+02  0.15888846072E+03  0.67858988824E+02 0.  0.
          6    2    1    2  501    0  0.80264043469E+01  0.11935520027E+03  0.43469842945E+02  0.21413501462E+03  0.17220363016E+03 0.  0.
         24    2    5    5    0    0  0.56645924794E+02  0.53350096395E+02  0.58170056216E+02  0.13071608525E+03  0.87452535254E+02 0.  0.
          5    1    5    5  501    0 -0.48619520447E+02  0.66005103880E+02 -0.14700213271E+02  0.83418929368E+02  0.47000000000E+01 0. -1.
        -13    1    6    6    0    0  0.70059484625E+02  0.33667634595E+02  0.11845274265E+02  0.78626659140E+02  0.00000000000E+00 0.  1.
         14    1    6    6    0    0 -0.13413559831E+02  0.19682461800E+02  0.46324781951E+02  0.52089426112E+02  0.00000000000E+00 0. -1.
         -5    1    3    3    0  503  0.44968264608E+02  0.11566363218E+02  0.24843495824E+02  0.52869791608E+02  0.47000000000E+01 0.  1.
         11    1    4    4    0    0 -0.16407644276E+02 -0.72702593816E+02  0.45722035885E+02  0.87437877969E+02  0.00000000000E+00 0. -1.
        -12    1    4    4    0    0 -0.36587024678E+02 -0.58218969676E+02 -0.19419757234E+02  0.71450582755E+02  0.00000000000E+00 0.  1.
</event>
<event>
12    1  0.8500177E-002  0.2277859E+03  0.7818608E-02  0.1128355E+00
         21   -1    0    0  501  502  0.00000000000E+00  0.00000000000E+00  0.13257110836E+03  0.13257110836E+03  0.00000000000E+00 0. -1.
         21   -1    0    0  502  503 -0.00000000000E+00 -0.00000000000E+00 -0.40010616007E+03  0.40010616007E+03  0.00000000000E+00 0. -1.
         -6    2    1    2    0  503 -0.13209290669E+03 -0.69308144623E+02 -0.91138365737E+02  0.24457624636E+03  0.17105316035E+03 0.  0.
        -24    2    3    3    0    0 -0.26336675317E+02 -0.29627209248E+02 -0.96556262175E+02  0.13139320564E+03  0.79810216939E+02 0.  0.
          6    2    1    2  501    0  0.13209290669E+03  0.69308144623E+02 -0.17639668597E+03  0.28810102207E+03  0.17214602287E+03 0.  0.
         24    2    5    5    0    0  0.42220624261E+02 -0.14943843655E+02 -0.26068935508E+02  0.93689223984E+02  0.78052429278E+02 0.  0.
          5    1    5    5  501    0  0.89872282424E+02  0.84251988278E+02 -0.15032775046E+03  0.19441179809E+03  0.47000000000E+01 0. -1.
        -11    1    6    6    0    0  0.35365433274E+02 -0.45764291643E+02 -0.21888552655E+02  0.61840059813E+02  0.00000000000E+00 0.  1.
         12    1    6    6    0    0  0.68551909864E+01  0.30820447988E+02 -0.41803828526E+01  0.31849164172E+02  0.00000000000E+00 0. -1.
         -5    1    3    3    0  503 -0.10575623137E+03 -0.39680935374E+02  0.54178964385E+01  0.11318304072E+03  0.47000000000E+01 0.  1.
         13    1    4    4    0    0 -0.54825179866E+02 -0.24795284358E+02 -0.67185689905E+02  0.90191592744E+02  0.00000000000E+00 0. -1.
        -14    1    4    4    0    0  0.28488504549E+02 -0.48319248907E+01 -0.29370572270E+02  0.41201612894E+02  0.00000000000E+00 0.  1.
</event>
<event>
12    1  0.8500177E-002  0.2414004E+03  0.7818608E-02  0.1119246E+00
         21   -1    0    0  503  502  0.00000000000E+00  0.00000000000E+00  0.80562492815E+03  0.80562492815E+03  0.00000000000E+00 0. -1.
         21   -1    0    0  501  503 -0.00000000000E+00 -0.00000000000E+00 -0.14142506864E+03  0.14142506864E+03  0.00000000000E+00 0.  1.
          6    2    1    2  501    0 -0.12886876604E+03 -0.10543975243E+03  0.29137761126E+00  0.24140060649E+03  0.17478406008E+03 0.  0.
         24    2    3    3    0    0 -0.20443179554E+02 -0.70884918489E+02  0.46690191710E+02  0.11841652499E+03  0.79999400801E+02 0.  0.
         -6    2    1    2    0  502  0.12886876604E+03  0.10543975243E+03  0.66390848190E+03  0.70564939030E+03  0.17158639058E+03 0.  0.
        -24    2    5    5    0    0  0.12058990270E+02  0.23748905816E+02  0.36528242140E+03  0.37471505822E+03  0.79187737061E+02 0.  0.
          5    1    3    3  501    0 -0.10842558648E+03 -0.34554833943E+02 -0.46398814099E+02  0.12298408150E+03  0.47000000000E+01 0. -1.
        -11    1    4    4    0    0  0.18378237967E+02 -0.14831975488E+02 -0.13726942068E+02  0.27316223498E+02  0.00000000000E+00 0.  1.
         12    1    4    4    0    0 -0.38821417521E+02 -0.56052943000E+02  0.60417133778E+02  0.91100301488E+02  0.00000000000E+00 0. -1.
         -5    1    5    5    0  502  0.11680977577E+03  0.81690846616E+02  0.29862606051E+03  0.33093433208E+03  0.47000000000E+01 0.  1.
         11    1    6    6    0    0  0.28455778674E+02  0.46665169148E+02  0.26318453559E+03  0.26880005418E+03  0.00000000000E+00 0. -1.
        -12    1    6    6    0    0 -0.16396788405E+02 -0.22916263332E+02  0.10209788581E+03  0.10591500404E+03  0.00000000000E+00 0.  1.
</event>
<event>
12    1  0.8500177E-002  0.2168792E+03  0.7818608E-02  0.1136407E+00
         21   -1    0    0  501  502  0.00000000000E+00  0.00000000000E+00  0.10495640102E+03  0.10495640102E+03  0.00000000000E+00 0. -1.
         21   -1    0    0  502  503 -0.00000000000E+00 -0.00000000000E+00 -0.61442314477E+03  0.61442314477E+03  0.00000000000E+00 0. -1.
         -6    2    1    2    0  503 -0.64179327262E+02  0.11581827958E+03 -0.44251739373E+03  0.49240197429E+03  0.17060246362E+03 0.  0.
        -24    2    3    3    0    0 -0.34873588928E+02  0.72956370935E+02 -0.42068433683E+03  0.43587992650E+03  0.80481052464E+02 0.  0.
          6    2    1    2  501    0  0.64179327262E+02 -0.11581827958E+03 -0.66949350013E+02  0.22697757151E+03  0.17176653506E+03 0.  0.
         24    2    5    5    0    0  0.44050732538E+02  0.56025244423E+00 -0.10190289817E+02  0.95856238547E+02  0.84520976934E+02 0.  0.
          5    1    5    5  501    0  0.20128594724E+02 -0.11637853203E+03 -0.56759060196E+02  0.13112133296E+03  0.47000000000E+01 0. -1.
        -13    1    6    6    0    0 -0.29418009222E+01 -0.14777553336E+02 -0.36765499950E+02  0.39733263921E+02  0.00000000000E+00 0.  1.
         14    1    6    6    0    0  0.46992533460E+02  0.15337805780E+02  0.26575210134E+02  0.56122974625E+02  0.00000000000E+00 0. -1.
         -5    1    3    3    0  503 -0.29305738334E+02  0.42861908649E+02 -0.21833056897E+02  0.56522047785E+02  0.47000000000E+01 0.  1.
         11    1    4    4    0    0 -0.40361068798E+02  0.88581383415E+02 -0.35030307464E+03  0.36357656891E+03  0.00000000000E+00 0. -1.
        -12    1    4    4    0    0  0.54874798707E+01 -0.15625012480E+02 -0.70381262199E+02  0.72303357592E+02  0.00000000000E+00 0.  1.
</event>
<event>
12    1  0.8500177E-002  0.1925415E+03  0.7818608E-02  0.1156633E+00
         21   -1    0    0  503  502  0.00000000000E+00  0.00000000000E+00  0.61025590491E+03  0.61025590491E+03  0.00000000000E+00 0. -1.
         21   -1    0    0  501  503 -0.00000000000E+00 -0.00000000000E+00 -0.86751375926E+02  0.86751375926E+02  0.00000000000E+00 0. -1.
          6    2    1    2  501    0  0.76681262479E+02 -0.31230438953E+02  0.69610291602E+02  0.20473840011E+03  0.17382998433E+03 0.  0.
         24    2    3    3    0    0  0.92403677710E+02 -0.66670975746E+02  0.85115116434E+02  0.16271798148E+03  0.79051247871E+02 0.  0.
         -6    2    1    2    0  502 -0.76681262479E+02  0.31230438953E+02  0.45389423738E+03  0.49226888072E+03  0.17161968380E+03 0.  0.
        -24    2    5    5    0    0 -0.95848855658E+02  0.12619842309E+02  0.44757045698E+03  0.46441513530E+03  0.77561848733E+02 0.  0.
          5    1    3    3  501    0 -0.15722415232E+02  0.35440536793E+02 -0.15504824831E+02  0.42020418631E+02  0.47000000000E+01 0. -1.
        -11    1    4    4    0    0  0.70731325329E+02 -0.60167443901E+02  0.99346002920E+02  0.13598775674E+03  0.00000000000E+00 0.  1.
         12    1    4    4    0    0  0.21672352381E+02 -0.65035318449E+01 -0.14230886486E+02  0.26730224735E+02  0.00000000000E+00 0. -1.
         -5    1    5    5    0  502  0.19167593179E+02  0.18610596644E+02  0.63237803971E+01  0.27853745425E+02  0.47000000000E+01 0.  1.
         11    1    6    6    0    0 -0.20256155153E+02  0.15972938840E+02  0.27216586493E+03  0.27338563355E+03  0.00000000000E+00 0. -1.
        -12    1    6    6    0    0 -0.75592700504E+02 -0.33530965316E+01  0.17540459205E+03  0.19102950175E+03  0.00000000000E+00 0.  1.
</event>
<event>
12    1  0.8500177E-002  0.1854981E+03  0.7818608E-02  0.1162638E+00
         21   -1    0    0  501  502  0.00000000000E+00  0.00000000000E+00  0.67234510570E+02  0.67234510570E+02  0.00000000000E+00 0. -1.
         21   -1    0    0  502  503 -0.00000000000E+00 -0.00000000000E+00 -0.60234432691E+03  0.60234432691E+03  0.00000000000E+00 0. -1.
         -6    2    1    2    0  503 -0.37009471831E+02  0.59051500522E+02 -0.39767508431E+03  0.43871557858E+03  0.17166567941E+03 0.  0.
        -24    2    3    3    0    0 -0.22008665375E+01 -0.22571188538E+01 -0.80066834378E+02  0.11334275206E+03  0.80161980255E+02 0.  0.
          6    2    1    2  501    0  0.37009471831E+02 -0.59051500522E+02 -0.13743473203E+03  0.23086325890E+03  0.17190915631E+03 0.  0.
         24    2    5    5    0    0  0.46142164427E+02 -0.10422534496E+02 -0.72130218918E+01  0.91479019467E+02  0.77965728077E+02 0.  0.
          5    1    5    5  501    0 -0.91326925953E+01 -0.48628966026E+02 -0.13022171014E+03  0.13938423943E+03  0.47000000000E+01 0. -1.
        -11    1    6    6    0    0  0.59645897054E+00  0.30038104925E+02  0.65504732217E+00  0.30051166330E+02  0.00000000000E+00 0.  1.
         12    1    6    6    0    0  0.45545705456E+02 -0.40460639422E+02 -0.78680692139E+01  0.61427853137E+02  0.00000000000E+00 0. -1.
         -5    1    3    3    0  503 -0.34808605294E+02  0.61308619376E+02 -0.31760824993E+03  0.32537282652E+03  0.47000000000E+01 0.  1.
         11    1    4    4    0    0 -0.19377999437E+01  0.11997255268E+02 -0.93181931464E+02  0.93971067643E+02  0.00000000000E+00 0. -1.
        -12    1    4    4    0    0 -0.26306659379E+00 -0.14254374122E+02  0.13115097086E+02  0.19371684418E+02  0.00000000000E+00 0.  1.
</event>
<event>
12    1  0.8500177E-002  0.2871792E+03  0.7818608E-02  0.1091884E+00
         21   -1    0    0  501  502  0.00000000000E+00  0.00000000000E+00  0.48323101635E+03  0.48323101635E+03  0.00000000000E+00 0. -1.
         21   -1    0    0  502  503 -0.00000000000E+00 -0.00000000000E+00 -0.21048833889E+03  0.21048833889E+03  0.00000000000E+00 0. -1.
         -6    2    1    2    0  503 -0.20132816742E+03  0.11135864909E+03  0.28760687083E+03  0.40615570421E+03  0.17120445145E+03 0.  0.
        -24    2    3    3    0    0 -0.21204370268E+03  0.11555418725E+03  0.29676817020E+03  0.39071405137E+03  0.79188515933E+02 0.  0.
          6    2    1    2  501    0  0.20132816742E+03 -0.11135864909E+03 -0.14864193366E+02  0.28756365102E+03  0.17186660357E+03 0.  0.
         24    2    5    5    0    0  0.51607841673E+02 -0.92957315800E+02 -0.26274567179E+02  0.13621282797E+03  0.80988577845E+02 0.  0.
          5    1    5    5  501    0  0.14972032574E+03 -0.18401333288E+02  0.11410373813E+02  0.15135082305E+03  0.47000000000E+01 0. -1.
        -13    1    6    6    0    0  0.25243101355E+02 -0.22784305663E+02 -0.47394978631E+02  0.58332004509E+02  0.00000000000E+00 0.  1.
         14    1    6    6    0    0  0.26364740319E+02 -0.70173010137E+02  0.21120411452E+02  0.77880823466E+02  0.00000000000E+00 0. -1.
         -5    1    3    3    0  503  0.10715535263E+02 -0.41955381592E+01 -0.91612993729E+01  0.15441652846E+02  0.47000000000E+01 0.  1.
         13    1    4    4    0    0 -0.21442772278E+02  0.53534729739E+01  0.75116257173E+02  0.78300090980E+02  0.00000000000E+00 0. -1.
        -14    1    4    4    0    0 -0.19060093040E+03  0.11020071427E+03  0.22165191303E+03  0.31241396039E+03  0.00000000000E+00 0.  1.
</event>
<event>
12    1  0.8500177E-002  0.1794121E+03  0.7818608E-02  0.1170217E+00
         21   -1    0    0  503  502  0.00000000000E+00  0.00000000000E+00  0.22902480219E+03  0.22902480219E+03  0.00000000000E+00 0. -1.
         21   -1    0    0  501  503 -0.00000000000E+00 -0.00000000000E+00 -0.55303028647E+03  0.55303028647E+03  0.00000000000E+00 0. -1.
          6    2    1    2  501    0  0.22636392394E+02  0.29000949822E+02 -0.50120082275E+03  0.52989066796E+03  0.16801307660E+03 0.  0.
         24    2    3    3    0    0  0.24425524708E+02 -0.45299840441E+02 -0.31759194469E+03  0.33175405213E+03  0.80916166316E+02 0.  0.
         -6    2    1    2    0  502 -0.22636392394E+02 -0.29000949822E+02  0.17719533847E+03  0.25216442069E+03  0.17559967465E+03 0.  0.
        -24    2    5    5    0    0 -0.54740694604E+02  0.12664176262E+02  0.17357352990E+03  0.19923166666E+03  0.80053492830E+02 0.  0.
          5    1    3    3  501    0 -0.17891323131E+01  0.74300790263E+02 -0.18360887806E+03  0.19813661583E+03  0.47000000000E+01 0. -1.
        -11    1    4    4    0    0  0.34746447424E+01 -0.43293885500E+02 -0.30311063572E+03  0.30620661515E+03  0.00000000000E+00 0.  1.
         12    1    4    4    0    0  0.20950879965E+02 -0.20059549409E+01 -0.14481308971E+02  0.25547436976E+02  0.00000000000E+00 0. -1.
         -5    1    5    5    0  502  0.32104302210E+02 -0.41665126084E+02  0.36218085746E+01  0.52932754031E+02  0.47000000000E+01 0.  1.
         13    1    6    6    0    0  0.10535083985E+02 -0.71234946753E+01  0.92106352146E+02  0.92980171416E+02  0.00000000000E+00 0. -1.
        -14    1    6    6    0    0 -0.65275778589E+02  0.19787670937E+02  0.81467177751E+02  0.10625149525E+03  0.00000000000E+00 0.  1.
</event>
<event>
12    1  0.8500177E-002  0.1789195E+03  0.7818608E-02  0.1169016E+00
         21   -1    0    0  501  502  0.00000000000E+00  0.00000000000E+00  0.75295410947E+03  0.75295410947E+03  0.00000000000E+00 0.  1.
         21   -1    0    0  502  503 -0.00000000000E+00 -0.00000000000E+00 -0.13904711034E+03  0.13904711034E+03  0.00000000000E+00 0.  1.
         -6    2    1    2    0  503 -0.49058780739E+02  0.79619168789E+01 -0.65136762246E+02  0.18978144253E+03  0.17118423421E+03 0.  0.
        -24    2    3    3    0    0  0.35355028453E+02 -0.12283485565E+02 -0.43705874953E+02  0.10024407361E+03  0.82084156412E+02 0.  0.
          6    2    1    2  501    0  0.49058780739E+02 -0.79619168789E+01  0.67904376137E+03  0.70221977728E+03  0.17187794990E+03 0.  0.
         24    2    5    5    0    0  0.26646223237E+02 -0.49191584152E+02  0.61425189099E+03  0.62208061916E+03  0.80926373852E+02 0.  0.
          5    1    5    5  501    0  0.22412557502E+02  0.41229667273E+02  0.64791870380E+02  0.80139158122E+02  0.47000000000E+01 0. -1.
        -13    1    6    6    0    0  0.32650226868E+02 -0.12194842360E+02  0.51184506888E+03  0.51303033636E+03  0.00000000000E+00 0.  1.
         14    1    6    6    0    0 -0.60040036304E+01 -0.36996741792E+02  0.10240682212E+03  0.10905028280E+03  0.00000000000E+00 0. -1.
         -5    1    3    3    0  503 -0.84413809192E+02  0.20245402444E+02 -0.21430887294E+02  0.89537368917E+02  0.47000000000E+01 0.  1.
         11    1    4    4    0    0  0.25129002264E+02 -0.34920022270E+02  0.71824000564E+01  0.43617216563E+02  0.00000000000E+00 0. -1.
        -12    1    4    4    0    0  0.10226026189E+02  0.22636536705E+02 -0.50888275009E+02  0.56626857047E+02  0.00000000000E+00 0.  1.
</event>
<event>
12    1  0.8500177E-002  0.1735717E+03  0.7818608E-02  0.1174771E+00
         21   -1    0    0  503  502  0.00000000000E+00  0.00000000000E+00  0.40080859253E+03  0.40080859253E+03  0.00000000000E+00 0.  1.
         21   -1    0    0  501  503 -0.00000000000E+00 -0.00000000000E+00 -0.11661871231E+03  0.11661871231E+03  0.00000000000E+00 0.  1.
          6    2    1    2  501    0 -0.68820199651E+01 -0.74670819153E+01 -0.14627867078E+02  0.17185649321E+03  0.17093144899E+03 0.  0.
         24    2    3    3    0    0 -0.74855980706E+01  0.31670264663E+02 -0.65175853318E+02  0.10775278726E+03  0.79396041871E+02 0.  0.
         -6    2    1    2    0  502  0.68820199651E+01  0.74670819153E+01  0.29881774730E+03  0.34557081162E+03  0.17327440732E+03 0.  0.
        -24    2    5    5    0    0 -0.25477241002E+02  0.63913565951E+02  0.14601268513E+03  0.17942387558E+03  0.78352978173E+02 0.  0.
          5    1    3    3  501    0  0.60357810551E+00 -0.39137346579E+02  0.50547986240E+02  0.64103705951E+02  0.47000000000E+01 0. -1.
        -13    1    4    4    0    0 -0.26345953139E+02  0.17166010699E+02  0.66053620195E+01  0.32131168319E+02  0.00000000000E+00 0.  1.
         14    1    4    4    0    0  0.18860355069E+02  0.14504253965E+02 -0.71781215337E+02  0.75621618944E+02  0.00000000000E+00 0. -1.
         -5    1    5    5    0  502  0.32359260967E+02 -0.56446484035E+02  0.15280506217E+03  0.16614693604E+03  0.47000000000E+01 0.  1.
         11    1    6    6    0    0 -0.24729641989E+02  0.37027614819E+02  0.17038496299E+02  0.47675043872E+02  0.00000000000E+00 0. -1.
        -12    1    6    6    0    0 -0.74759901300E+00  0.26885951132E+02  0.12897418883E+03  0.13174883171E+03  0.00000000000E+00 0.  1.
</event>
<event>
12    1  0.8500177E-002  0.1855250E+03  0.7818608E-02  0.1165463E+00
         21   -1    0    0  503  502  0.00000000000E+00  0.00000000000E+00  0.17770005338E+02  0.17770005338E+02  0.00000000000E+00 0.  1.
         21   -1    0    0  501  503 -0.00000000000E+00 -0.00000000000E+00 -0.22648576489E+04  0.22648576489E+04  0.00000000000E+00 0. -1.
          6    2    1    2  501    0  0.24989983391E+02  0.49990802162E+02 -0.16631093649E+04  0.16734253193E+04  0.17690664218E+03 0.  0.
         24    2    3    3    0    0  0.57433636994E+01  0.95432515743E+02 -0.14108492872E+04  0.14163404724E+04  0.79901634868E+02 0.  0.
         -6    2    1    2    0  502 -0.24989983391E+02 -0.49990802162E+02 -0.58397827867E+03  0.60920233496E+03  0.16423542672E+03 0.  0.
        -24    2    5    5    0    0 -0.21918943275E+02  0.33590918507E+02 -0.21327811712E+03  0.22915492332E+03  0.73590989666E+02 0.  0.
          5    1    3    3  501    0  0.19246619691E+02 -0.45441713580E+02 -0.25226007767E+03  0.25708484687E+03  0.47000000000E+01 0. -1.
        -11    1    4    4    0    0  0.39167157773E+02  0.73169453902E+02 -0.84412347438E+03  0.84819353643E+03  0.00000000000E+00 0.  1.
         12    1    4    4    0    0 -0.33423794074E+02  0.22263061841E+02 -0.56672581287E+03  0.56814693601E+03  0.00000000000E+00 0. -1.
         -5    1    5    5    0  502 -0.30710401157E+01 -0.83581720669E+02 -0.37070016156E+03  0.38004741164E+03  0.47000000000E+01 0.  1.
         13    1    6    6    0    0  0.20355881537E+02  0.36032023214E+02 -0.11049033971E+03  0.11798637115E+03  0.00000000000E+00 0. -1.
        -14    1    6    6    0    0 -0.42274824812E+02 -0.24411047069E+01 -0.10278777741E+03  0.11116855216E+03  0.00000000000E+00 0.  1.
</event>
<event>
12    1  0.8500177E-002  0.2718959E+03  0.7818608E-02  0.1100213E+00
         21   -1    0    0  501  502  0.00000000000E+00  0.00000000000E+00  0.13520178843E+03  0.13520178843E+03  0.00000000000E+00 0.  1.
         21   -1    0    0  502  503 -0.00000000000E+00 -0.00000000000E+00 -0.54891921266E+03  0.54891921266E+03  0.00000000000E+00 0. -1.
         -6    2    1    2    0  503  0.82936130521E+02  0.19343043162E+03 -0.22914185102E+03  0.35557470843E+03  0.17214427602E+03 0.  0.
        -24    2    3    3    0    0  0.62349653291E+02  0.13925477272E+03 -0.24126204984E+03  0.29617947057E+03  0.78965379120E+02 0.  0.
          6    2    1    2  501    0 -0.82936130521E+02 -0.19343043162E+03 -0.18457557321E+03  0.32854629265E+03  0.17199067000E+03 0.  0.
         24    2    5    5    0    0 -0.64642644914E+02 -0.15429163115E+02 -0.90436032044E+02  0.12630028796E+03  0.57934067959E+02 0.  0.
          5    1    5    5  501    0 -0.18293485607E+02 -0.17800126850E+03 -0.94139541167E+02  0.20224600470E+03  0.47000000000E+01 0. -1.
        -13    1    6    6    0    0 -0.96041105088E+01  0.51838962503E+01  0.66722997290E+01  0.12791845163E+02  0.00000000000E+00 0.  1.
         14    1    6    6    0    0 -0.55038534405E+02 -0.20613059365E+02 -0.97108331773E+02  0.11350844279E+03  0.00000000000E+00 0. -1.
         -5    1    3    3    0  503  0.20586477230E+02  0.54175658898E+02  0.12120198821E+02  0.59395237867E+02  0.47000000000E+01 0.  1.
         13    1    4    4    0    0  0.52268610147E+02  0.13442504445E+03 -0.16520452014E+03  0.21930488745E+03  0.00000000000E+00 0. -1.
        -14    1    4    4    0    0  0.10081043144E+02  0.48297282722E+01 -0.76057529699E+02  0.76874583120E+02  0.00000000000E+00 0.  1.
</event>
<event>
12    1  0.8500177E-002  0.1830192E+03  0.7818608E-02  0.1164988E+00
         21   -1    0    0  503  502  0.00000000000E+00  0.00000000000E+00  0.11354661076E+03  0.11354661076E+03  0.00000000000E+00 0.  1.
         21   -1    0    0  501  503 -0.00000000000E+00 -0.00000000000E+00 -0.29825103053E+03  0.29825103053E+03  0.00000000000E+00 0. -1.
          6    2    1    2  501    0  0.43569353286E+02  0.44941152796E+02 -0.11557440184E+03  0.21645659787E+03  0.17198261726E+03 0.  0.
         24    2    3    3    0    0 -0.14619419089E+02  0.74906436583E+02 -0.41762938412E+02  0.11769388428E+03  0.79265413107E+02 0.  0.
         -6    2    1    2    0  502 -0.43569353286E+02 -0.44941152796E+02 -0.69130017933E+02  0.19534104343E+03  0.17164255914E+03 0.  0.
        -24    2    5    5    0    0 -0.66078729683E+02 -0.14947174438E+02  0.68365756201E+01  0.11049221256E+03  0.87017088730E+02 0.  0.
          5    1    3    3  501    0  0.58188772375E+02 -0.29965283787E+02 -0.73811463424E+02  0.98762713590E+02  0.47000000000E+01 0. -1.
        -13    1    4    4    0    0 -0.37765637773E+02  0.74147607602E+01 -0.18023896452E+02  0.42498034270E+02  0.00000000000E+00 0.  1.
         14    1    4    4    0    0  0.23146218684E+02  0.67491675823E+02 -0.23739041961E+02  0.75195850005E+02  0.00000000000E+00 0. -1.
         -5    1    5    5    0  502  0.22509376397E+02 -0.29993978359E+02 -0.75966593553E+02  0.84848830868E+02  0.47000000000E+01 0.  1.
         11    1    6    6    0    0 -0.30665258247E+02  0.36119264212E+02  0.93607540613E+01  0.48296822122E+02  0.00000000000E+00 0. -1.
        -12    1    6    6    0    0 -0.35413471436E+02 -0.51066438649E+02 -0.25241784412E+01  0.62195390443E+02  0.00000000000E+00 0.  1.
</event>
<event>
12    1  0.8500177E-002  0.1850864E+03  0.7818608E-02  0.1163032E+00
         21   -1    0    0  503  502  0.00000000000E+00  0.00000000000E+00  0.46493016978E+02  0.46493016978E+02  0.00000000000E+00 0. -1.
         21   -1    0    0  501  503 -0.00000000000E+00 -0.00000000000E+00 -0.80303713420E+03  0.80303713420E+03  0.00000000000E+00 0. -1.
          6    2    1    2  501    0 -0.46505119717E+02  0.48803020717E+02 -0.50148809562E+03  0.53455335989E+03  0.17237321001E+03 0.  0.
         24    2    3    3    0    0 -0.85131162579E+02  0.34739906784E+02 -0.22372967272E+03  0.25373033047E+03  0.76615521793E+02 0.  0.
         -6    2    1    2    0  502  0.46505119717E+02 -0.48803020717E+02 -0.25505602160E+03  0.31497679128E+03  0.17208237534E+03 0.  0.
        -24    2    5    5    0    0  0.99000876383E+02 -0.32438325208E+02 -0.18907107300E+03  0.22895521743E+03  0.76283697312E+02 0.  0.
          5    1    3    3  501    0  0.38626042862E+02  0.14063113933E+02 -0.27775842290E+03  0.28082302942E+03  0.47000000000E+01 0. -1.
        -11    1    4    4    0    0 -0.30475518837E+02 -0.18051398104E+02 -0.32959465889E+02  0.48383226573E+02  0.00000000000E+00 0.  1.
         12    1    4    4    0    0 -0.54655643742E+02  0.52791304888E+02 -0.19077020683E+03  0.20534710390E+03  0.00000000000E+00 0. -1.
         -5    1    5    5    0  502 -0.52495756666E+02 -0.16364695509E+02 -0.65984948601E+02  0.86021573857E+02  0.47000000000E+01 0.  1.
         13    1    6    6    0    0  0.19969761439E+02 -0.41183358649E+02 -0.43819394881E+02  0.63364025829E+02  0.00000000000E+00 0. -1.
        -14    1    6    6    0    0  0.79031114944E+02  0.87450334403E+01 -0.14525167812E+03  0.16559119160E+03  0.00000000000E+00 0.  1.
</event>
<event>
12    1  0.8500177E-002  0.1919768E+03  0.7818608E-02  0.1156942E+00
         21   -1    0    0  503  502  0.00000000000E+00  0.00000000000E+00  0.20307921195E+04  0.20307921195E+04  0.00000000000E+00 0. -1.
         21   -1    0    0  501  503 -0.00000000000E+00 -0.00000000000E+00 -0.18093075230E+02  0.18093075230E+02  0.00000000000E+00 0. -1.
          6    2    1    2  501    0  0.59900554063E+01 -0.82508844351E+02  0.95464413597E+03  0.97375587724E+03  0.17323825200E+03 0.  0.
         24    2    3    3    0    0 -0.59529195626E+02 -0.21867261566E+02  0.49292109815E+03  0.50345764476E+03  0.80476635154E+02 0.  0.
         -6    2    1    2    0  502 -0.59900554063E+01  0.82508844351E+02  0.10580549083E+04  0.10751293175E+04  0.17198625002E+03 0.  0.
        -24    2    5    5    0    0 -0.76457081949E+01  0.12290979376E+03  0.73512494691E+03  0.74964379114E+03  0.79949057362E+02 0.  0.
          5    1    3    3  501    0  0.65519251032E+02 -0.60641582785E+02  0.46172303783E+03  0.47029823248E+03  0.47000000000E+01 0. -1.
        -13    1    4    4    0    0 -0.69928675390E+02 -0.39250891125E+02  0.42807037574E+03  0.43551681791E+03  0.00000000000E+00 0.  1.
         14    1    4    4    0    0  0.10399479764E+02  0.17383629559E+02  0.64850722402E+02  0.67940826843E+02  0.00000000000E+00 0. -1.
         -5    1    5    5    0  502  0.16556527886E+01 -0.40400949413E+02  0.32292996140E+03  0.32548552636E+03  0.47000000000E+01 0.  1.
         11    1    6    6    0    0 -0.34524989449E+02  0.75484640442E+02  0.30555296400E+03  0.31662678290E+03  0.00000000000E+00 0. -1.
        -12    1    6    6    0    0  0.26879281254E+02  0.47425153322E+02  0.42957198291E+03  0.43301700825E+03  0.00000000000E+00 0.  1.
</event>
<event>
12    1  0.8500177E-002  0.2178956E+03  0.7818608E-02  0.1135815E+00
         21   -1    0    0  503  502  0.00000000000E+00  0.00000000000E+00  0.81826397021E+02  0.81826397021E+02  0.00000000000E+00 0.  1.
         21   -1    0    0  501  503 -0.00000000000E+00 -0.00000000000E+00 -0.65416697406E+03  0.65416697406E+03  0.00000000000E+00 0.  1.
          6    2    1    2  501    0  0.11713304465E+03  0.57679570661E+02 -0.41287614117E+03  0.46597964473E+03  0.17211402713E+03 0.  0.
         24    2    3    3    0    0  0.43029001947E+02 -0.27457092555E+02 -0.12993555810E+03  0.16132061546E+03  0.80843705833E+02 0.  0.
         -6    2    1    2    0  502 -0.11713304465E+03 -0.57679570661E+02 -0.15946443587E+03  0.27001372635E+03  0.17444604636E+03 0.  0.
        -24    2    5    5    0    0 -0.60206216031E+02  0.87315703205E+01 -0.15219062209E+03  0.18211547933E+03  0.79391646862E+02 0.  0.
          5    1    3    3  501    0  0.74104042700E+02  0.85136663216E+02 -0.28294058308E+03  0.30465902928E+03  0.47000000000E+01 0. -1.
        -13    1    4    4    0    0  0.62614242003E+02 -0.16953290409E+01 -0.94042554592E+02  0.11299300649E+03  0.00000000000E+00 0.  1.
         14    1    4    4    0    0 -0.19585240056E+02 -0.25761763514E+02 -0.35893003505E+02  0.48327608962E+02  0.00000000000E+00 0. -1.
         -5    1    5    5    0  502 -0.56926828617E+02 -0.66411140981E+02 -0.72738137834E+01  0.87898247023E+02  0.47000000000E+01 0.  1.
         13    1    6    6    0    0  0.37458818625E+01 -0.11362127840E+02 -0.89624693086E+02  0.90419661528E+02  0.00000000000E+00 0. -1.
        -14    1    6    6    0    0 -0.63952097893E+02  0.20093698161E+02 -0.62565929000E+02  0.91695817801E+02  0.00000000000E+00 0.  1.
</event>
<event>
12    1  0.8500177E-002  0.2139588E+03  0.7818608E-02  0.1138899E+00
         21   -1    0    0  503  502  0.00000000000E+00  0.00000000000E+00  0.18639775362E+03  0.18639775362E+03  0.00000000000E+00 0. -1.
         21   -1    0    0  501  503 -0.00000000000E+00 -0.00000000000E+00 -0.37014615774E+03  0.37014615774E+03  0.00000000000E+00 0. -1.
          6    2    1    2  501    0  0.12231399498E+03  0.36257493282E+02 -0.25461151218E+03  0.33115549360E+03  0.16900183320E+03 0.  0.
         24    2    3    3    0    0  0.13250158849E+03 -0.13920898358E+02 -0.21080225579E+03  0.26360551955E+03  0.85438963762E+02 0.  0.
         -6    2    1    2    0  502 -0.12231399498E+03 -0.36257493282E+02  0.70863108061E+02  0.22538841776E+03  0.17176448873E+03 0.  0.
        -24    2    5    5    0    0 -0.27315477592E+02  0.10894202471E+01  0.87760485672E+02  0.12181659907E+03  0.79937843421E+02 0.  0.
          5    1    3    3  501    0 -0.10187593512E+02  0.50178391640E+02 -0.43809256389E+02  0.67549974052E+02  0.47000000000E+01 0. -1.
        -11    1    4    4    0    0 -0.90927813392E+01  0.38664870288E+01 -0.39159474901E+02  0.40386790773E+02  0.00000000000E+00 0.  1.
         12    1    4    4    0    0  0.14159436983E+03 -0.17787385387E+02 -0.17164278089E+03  0.22321872878E+03  0.00000000000E+00 0. -1.
         -5    1    5    5    0  502 -0.94998517389E+02 -0.37346913529E+02 -0.16897377610E+02  0.10357181869E+03  0.47000000000E+01 0.  1.
         11    1    6    6    0    0 -0.52198071236E+02  0.14449965122E+02  0.69792828953E+02  0.88342962969E+02  0.00000000000E+00 0. -1.
        -12    1    6    6    0    0  0.24882593644E+02 -0.13360544875E+02  0.17967656718E+02  0.33473636100E+02  0.00000000000E+00 0.  1.
</event>
<event>
12    1  0.8500177E-002  0.2907922E+03  0.7818608E-02  0.1089984E+00
         21   -1    0    0  503  502  0.00000000000E+00  0.00000000000E+00  0.20361788039E+03  0.20361788039E+03  0.00000000000E+00 0.  1.
         21   -1    0    0  501  503 -0.00000000000E+00 -0.00000000000E+00 -0.42679360345E+03  0.42679360345E+03  0.00000000000E+00 0.  1.
          6    2    1    2  501    0 -0.15172088944E+03 -0.17766171037E+03 -0.58749739407E+02  0.29666752772E+03  0.17313918821E+03 0.  0.
         24    2    3    3    0    0 -0.88549968512E+02 -0.18490144759E+03 -0.25676874321E+02  0.22484215998E+03  0.88685132821E+02 0.  0.
         -6    2    1    2    0  502  0.15172088944E+03  0.17766171037E+03 -0.16442598365E+03  0.33374395612E+03  0.17252887447E+03 0.  0.
        -24    2    5    5    0    0  0.40046289243E+02  0.14953681098E+02 -0.33119494345E+02  0.96660419678E+02  0.80118774118E+02 0.  0.
          5    1    3    3  501    0 -0.63170920929E+02  0.72397372158E+01 -0.33072865086E+02  0.71825367740E+02  0.47000000000E+01 0. -1.
        -11    1    4    4    0    0 -0.53855880789E+02 -0.39923368701E+02 -0.34719038717E+02  0.75496641736E+02  0.00000000000E+00 0.  1.
         12    1    4    4    0    0 -0.34694087723E+02 -0.14497807889E+03  0.90421643961E+01  0.14934551824E+03  0.00000000000E+00 0. -1.
         -5    1    5    5    0  502  0.11167460020E+03  0.16270802928E+03 -0.13130648931E+03  0.23708353645E+03  0.47000000000E+01 0.  1.
         13    1    6    6    0    0 -0.15616990060E+02  0.90353074685E+01 -0.36359286352E+02  0.40589713766E+02  0.00000000000E+00 0. -1.
        -14    1    6    6    0    0  0.55663279303E+02  0.59183736299E+01  0.32397920069E+01  0.56070705912E+02  0.00000000000E+00 0.  1.
</event>
<event>
12    1  0.8500177E-002  0.2739709E+03  0.7818608E-02  0.1099074E+00
         21   -1    0    0  503  502  0.00000000000E+00  0.00000000000E+00  0.10770870936E+03  0.10770870936E+03  0.00000000000E+00 0. -1.
         21   -1    0    0  501  503 -0.00000000000E+00 -0.00000000000E+00 -0.86891937815E+03  0.86891937815E+03  0.00000000000E+00 0.  1.
          6    2    1    2  501    0 -0.49823609261E+01  0.21294048754E+03 -0.59823002101E+03  0.65784487732E+03  0.17179129611E+03 0.  0.
         24    2    3    3    0    0  0.55447987496E+02  0.98823666458E+02 -0.23891482040E+03  0.27600200485E+03  0.79096263528E+02 0.  0.
         -6    2    1    2    0  502  0.49823609261E+01 -0.21294048754E+03 -0.16298064778E+03  0.31878321020E+03  0.17231241511E+03 0.  0.
        -24    2    5    5    0    0  0.11993805943E+01 -0.13481718905E+03 -0.24023110372E+02  0.15925625978E+03  0.81291656832E+02 0.  0.
          5    1    3    3  501    0 -0.60430348422E+02  0.11411682109E+03 -0.35931520061E+03  0.38184287247E+03  0.47000000000E+01 0. -1.
        -13    1    4    4    0    0 -0.17238739165E+02  0.24352052437E+02 -0.86065347870E+02  0.91090288670E+02  0.00000000000E+00 0.  1.
         14    1    4    4    0    0  0.72686726661E+02  0.74471614021E+02 -0.15284947253E+03  0.18491171618E+03  0.00000000000E+00 0. -1.
         -5    1    5    5    0  502  0.37829803318E+01 -0.78123298491E+02 -0.13895753741E+03  0.15952695042E+03  0.47000000000E+01 0.  1.
         11    1    6    6    0    0 -0.30231836108E+02 -0.23175903279E+02  0.80233131273E+01  0.38928909062E+02  0.00000000000E+00 0. -1.
        -12    1    6    6    0    0  0.31431216702E+02 -0.11164128578E+03 -0.32046423499E+02  0.12032735072E+03  0.00000000000E+00 0.  1.
</event>
<event>
12    1  0.8500177E-002  0.1800325E+03  0.7818608E-02  0.1167847E+00
         21   -1    0    0  501  502  0.00000000000E+00  0.00000000000E+00  0.18852042916E+03  0.18852042916E+03  0.00000000000E+00 0. -1.
         21   -1    0    0  502  503 -0.00000000000E+00 -0.00000000000E+00 -0.29422146331E+03  0.29422146331E+03  0.00000000000E+00 0. -1.
         -6    2    1    2    0  503  0.53720551275E+02 -0.62928152764E+01 -0.20868272952E+03  0.27560876842E+03  0.17171550448E+03 0.  0.
        -24    2    3    3    0    0  0.94587211801E+01  0.42254044915E+02 -0.18581190570E+03  0.20588738131E+03  0.77386547707E+02 0.  0.
          6    2    1    2  501    0 -0.53720551275E+02  0.62928152764E+01  0.10298169537E+03  0.20713312405E+03  0.17138670994E+03 0.  0.
         24    2    5    5    0    0  0.39177217208E+01  0.35670162930E+02  0.13173887869E+02  0.96350763735E+02  0.88443254598E+02 0.  0.
          5    1    5    5  501    0 -0.57638272996E+02 -0.29377347653E+02  0.89807807501E+02  0.11078236032E+03  0.47000000000E+01 0. -1.
        -13    1    6    6    0    0  0.19266452075E+02 -0.18030066349E+02 -0.18422694529E+02  0.32181907057E+02  0.00000000000E+00 0.  1.
         14    1    6    6    0    0 -0.15348730354E+02  0.53700229279E+02  0.31596582398E+02  0.64168856678E+02  0.00000000000E+00 0. -1.
         -5    1    3    3    0  503  0.44261830095E+02 -0.48546860192E+02 -0.22870823816E+02  0.69721387105E+02  0.47000000000E+01 0.  1.
         13    1    4    4    0    0  0.16798882810E+02  0.63310082452E+02 -0.12510866800E+03  0.14121808599E+03  0.00000000000E+00 0. -1.
        -14    1    4    4    0    0 -0.73401616297E+01 -0.21056037536E+02 -0.60703237704E+02  0.64669295320E+02  0.00000000000E+00 0.  1.
</event>
<event>
12    1  0.8500177E-002  0.1829557E+03  0.7818608E-02  0.1164975E+00
         21   -1    0    0  503  502  0.00000000000E+00  0.00000000000E+00  0.28512505701E+02  0.28512505701E+02  0.00000000000E+00 0.  1.
         21   -1    0    0  501  503 -0.00000000000E+00 -0.00000000000E+00 -0.11844128501E+04  0.11844128501E+04  0.00000000000E+00 0.  1.
          6    2    1    2  501    0 -0.59450417463E+02  0.21483813483E+02 -0.63506954413E+03  0.66089501803E+03  0.17167700079E+03 0.  0.
         24    2    3    3    0    0 -0.39860411316E+02  0.70372073997E+02 -0.53494328420E+03  0.54766433189E+03  0.85034239713E+02 0.  0.
         -6    2    1    2    0  502  0.59450417463E+02 -0.21483813483E+02 -0.52083080029E+03  0.55203033780E+03  0.17168827838E+03 0.  0.
        -24    2    5    5    0    0 -0.16392836174E+02 -0.56367286624E+02 -0.30745302749E+03  0.32285525244E+03  0.79133771781E+02 0.  0.
          5    1    3    3  501    0 -0.19590006146E+02 -0.48888260514E+02 -0.10012625993E+03  0.11323068615E+03  0.47000000000E+01 0. -1.
        -11    1    4    4    0    0 -0.37890944600E+02 -0.19949459259E+01 -0.28280350895E+03  0.28533756880E+03  0.00000000000E+00 0.  1.
         12    1    4    4    0    0 -0.19694667165E+01  0.72367019923E+02 -0.25213977525E+03  0.26232676309E+03  0.00000000000E+00 0. -1.
         -5    1    5    5    0  502  0.75843253637E+02  0.34883473141E+02 -0.21337777280E+03  0.22917508535E+03  0.47000000000E+01 0.  1.
         11    1    6    6    0    0  0.85468610078E+01 -0.53704579962E+01 -0.20873180848E+03  0.20897573669E+03  0.00000000000E+00 0. -1.
        -12    1    6    6    0    0 -0.24939697182E+02 -0.50996828628E+02 -0.98721219014E+02  0.11387951576E+03  0.00000000000E+00 0.  1.
</event>
<event>
12    1  0.8500177E-002  0.1814304E+03  0.7818608E-02  0.1166615E+00
         21   -1    0    0  503  502  0.00000000000E+00  0.00000000000E+00  0.15246391713E+03  0.15246391713E+03  0.00000000000E+00 0.  1.
         21   -1    0    0  501  503 -0.00000000000E+00 -0.00000000000E+00 -0.22618085099E+03  0.22618085099E+03  0.00000000000E+00 0.  1.
          6    2    1    2  501    0  0.54982701503E+02  0.72412220617E+01  0.52244860059E+01  0.18150562769E+03  0.17274682304E+03 0.  0.
         24    2    3    3    0    0  0.73346755092E+02 -0.90207454121E+01  0.58058370375E+02  0.12306592041E+03  0.79456441302E+02 0.  0.
         -6    2    1    2    0  502 -0.54982701503E+02 -0.72412220617E+01 -0.78941419860E+02  0.19713914042E+03  0.17192021451E+03 0.  0.
        -24    2    5    5    0    0 -0.96819205566E+02  0.23354320444E+02 -0.53145992907E+02  0.13905407913E+03  0.81192102520E+02 0.  0.
          5    1    3    3  501    0 -0.18364053589E+02  0.16261967474E+02 -0.52833884369E+02  0.58439707288E+02  0.47000000000E+01 0. -1.
        -13    1    4    4    0    0  0.51154313683E+01 -0.94849783687E+01  0.53616304175E+02  0.54688577656E+02  0.00000000000E+00 0.  1.
         14    1    4    4    0    0  0.68231323724E+02  0.46423295651E+00  0.44420662006E+01  0.68377342749E+02  0.00000000000E+00 0. -1.
         -5    1    5    5    0  502  0.41836504063E+02 -0.30595542506E+02 -0.25795426953E+02  0.58085061291E+02  0.47000000000E+01 0.  1.
         11    1    6    6    0    0 -0.12267815317E+02 -0.16838549539E+02  0.12881169322E+02  0.24494092478E+02  0.00000000000E+00 0. -1.
        -12    1    6    6    0    0 -0.84551390249E+02  0.40192869983E+02 -0.66027162228E+02  0.11455998665E+03  0.00000000000E+00 0.  1.
</event>
<event>
12    1  0.8500177E-002  0.1861639E+03  0.7818608E-02  0.1161978E+00
         21   -1    0    0  501  502  0.00000000000E+00  0.00000000000E+00  0.75550780940E+02  0.75550780940E+02  0.00000000000E+00 0. -1.
         21   -1    0    0  502  503 -0.00000000000E+00 -0.00000000000E+00 -0.57446282162E+03  0.57446282162E+03  0.00000000000E+00 0.  1.
         -6    2    1    2    0  503 -0.11133429184E+02  0.70669171019E+02 -0.39538221808E+03  0.43699851630E+03  0.17182118581E+03 0.  0.
        -24    2    3    3    0    0  0.42951101472E+02  0.52792201188E+02 -0.30638819151E+03  0.33123108619E+03  0.10587017964E+03 0.  0.
          6    2    1    2  501    0  0.11133429184E+02 -0.70669171019E+02 -0.10352982260E+03  0.21301508626E+03  0.17186889722E+03 0.  0.
         24    2    5    5    0    0  0.43874732067E+02 -0.33657132090E+02 -0.40338231133E+00  0.98564063434E+02  0.81589933379E+02 0.  0.
          5    1    5    5  501    0 -0.32741302883E+02 -0.37012038930E+02 -0.10312644029E+03  0.11445102283E+03  0.47000000000E+01 0. -1.
        -11    1    6    6    0    0  0.36670717886E+02 -0.51882935620E+02 -0.23977142259E+02  0.67907907564E+02  0.00000000000E+00 0.  1.
         12    1    6    6    0    0  0.72040141809E+01  0.18225803530E+02  0.23573759947E+02  0.30656155869E+02  0.00000000000E+00 0. -1.
         -5    1    3    3    0  503 -0.54084530657E+02  0.17876969832E+02 -0.88994026572E+02  0.10576743011E+03  0.47000000000E+01 0.  1.
         11    1    4    4    0    0  0.61511911799E+02  0.50960791949E+02 -0.12151044649E+03  0.14541494495E+03  0.00000000000E+00 0. -1.
        -12    1    4    4    0    0 -0.18560810327E+02  0.18314092385E+01 -0.18487774502E+03  0.18581614124E+03  0.00000000000E+00 0.  1.
</event>
<event>
12    1  0.8500177E-002  0.1993925E+03  0.7818608E-02  0.1152665E+00
         21   -1    0    0  503  502  0.00000000000E+00  0.00000000000E+00  0.11297361600E+03  0.11297361600E+03  0.00000000000E+00 0.  1.
         21   -1    0    0  501  503 -0.00000000000E+00 -0.00000000000E+00 -0.43097018412E+03  0.43097018412E+03  0.00000000000E+00 0.  1.
          6    2    1    2  501    0 -0.83932682468E+02  0.31820933019E+01 -0.29233548700E+03  0.35386069142E+03  0.18083841149E+03 0.  0.
         24    2    3    3    0    0 -0.53351488476E+02  0.22965755824E+02 -0.55742217527E+02  0.11443415177E+03  0.81327566139E+02 0.  0.
         -6    2    1    2    0  502  0.83932682468E+02 -0.31820933019E+01 -0.25661081123E+02  0.19008310869E+03  0.16857721145E+03 0.  0.
        -24    2    5    5    0    0  0.84815467770E+02  0.46099092805E+02 -0.49252979174E+02  0.13523712189E+03  0.80897671476E+02 0.  0.
          5    1    3    3  501    0 -0.30581193992E+02 -0.19783662522E+02 -0.23659326947E+03  0.23942653965E+03  0.47000000000E+01 0. -1.
        -13    1    4    4    0    0 -0.59678192302E+02  0.56687232963E+01 -0.69251088042E+02  0.91593309009E+02  0.00000000000E+00 0.  1.
         14    1    4    4    0    0  0.63267038262E+01  0.17297032528E+02  0.13508870515E+02  0.22840842764E+02  0.00000000000E+00 0. -1.
         -5    1    5    5    0  502 -0.88278530279E+00 -0.49281186107E+02  0.23591898051E+02  0.54845986796E+02  0.47000000000E+01 0.  1.
         11    1    6    6    0    0  0.39700173947E+02 -0.15295389647E+02 -0.40164671957E+02  0.58508577400E+02  0.00000000000E+00 0. -1.
        -12    1    6    6    0    0  0.45115293823E+02  0.61394482452E+02 -0.90883072171E+01  0.76728544495E+02  0.00000000000E+00 0.  1.
</event>
<event>
12    1  0.8500177E-002  0.2768010E+03  0.7818608E-02  0.1097682E+00
         21   -1    0    0  503  502  0.00000000000E+00  0.00000000000E+00  0.87727072273E+02  0.87727072273E+02  0.00000000000E+00 0.  1.
         21   -1    0    0  501  503 -0.00000000000E+00 -0.00000000000E+00 -0.12202549801E+04  0.12202549801E+04  0.00000000000E+00 0.  1.
          6    2    1    2  501    0 -0.17516556428E+03 -0.12768434048E+03 -0.91881350358E+03  0.95960255147E+03  0.17214103729E+03 0.  0.
         24    2    3    3    0    0 -0.86228375157E+02  0.18485475769E+01 -0.46546521145E+03  0.47977408558E+03  0.78016410580E+02 0.  0.
         -6    2    1    2    0  502  0.17516556428E+03  0.12768434048E+03 -0.21371440426E+03  0.34837950091E+03  0.16943483807E+03 0.  0.
        -24    2    5    5    0    0  0.81538446282E+02  0.32701875464E+02 -0.31337845754E+02  0.12239055212E+03  0.79243017292E+02 0.  0.
          5    1    3    3  501    0 -0.88937189126E+02 -0.12953288806E+03 -0.45334829213E+03  0.47982846589E+03  0.47000000000E+01 0. -1.
        -13    1    4    4    0    0 -0.65508827446E+02 -0.34515199645E+02 -0.27781551591E+03  0.28751376726E+03  0.00000000000E+00 0.  1.
         14    1    4    4    0    0 -0.20719547711E+02  0.36363747222E+02 -0.18764969553E+03  0.19226031833E+03  0.00000000000E+00 0. -1.
         -5    1    5    5    0  502  0.93627118001E+02  0.94982465018E+02 -0.18237655851E+03  0.22598894880E+03  0.47000000000E+01 0.  1.
         11    1    6    6    0    0  0.58864392348E+02  0.36550117201E+02 -0.55690103437E+02  0.88894968219E+02  0.00000000000E+00 0. -1.
        -12    1    6    6    0    0  0.22674053935E+02 -0.38482417369E+01  0.24352257683E+02  0.33495583896E+02  0.00000000000E+00 0.  1.
</event>
<event>
12    1  0.8500177E-002  0.2061912E+03  0.7818608E-02  0.1144767E+00
         21   -1    0    0  503  502  0.00000000000E+00  0.00000000000E+00  0.14736603919E+03  0.14736603919E+03  0.00000000000E+00 0.  1.
         21   -1    0    0  501  503 -0.00000000000E+00 -0.00000000000E+00 -0.28774932381E+03  0.28774932381E+03  0.00000000000E+00 0. -1.
          6    2    1    2  501    0 -0.10020197008E+03  0.52133246103E+02 -0.77041364879E+02  0.22011402157E+03  0.17250072589E+03 0.  0.
         24    2    3    3    0    0  0.43857372751E+01  0.63060755014E+02 -0.32363190136E+02  0.10576268454E+03  0.78373948806E+02 0.  0.
         -6    2    1    2    0  502  0.10020197008E+03 -0.52133246103E+02 -0.63341919742E+02  0.21500134143E+03  0.17162478802E+03 0.  0.
        -24    2    5    5    0    0  0.16192644041E-01 -0.22661890915E+02 -0.11596993253E+02  0.98359246992E+02  0.95007839962E+02 0.  0.
          5    1    3    3  501    0 -0.10458770736E+03 -0.10927508912E+02 -0.44678174743E+02  0.11435133703E+03  0.47000000000E+01 0. -1.
        -11    1    4    4    0    0 -0.66431534243E+01  0.27741815264E+02  0.24713165269E+02  0.37742288473E+02  0.00000000000E+00 0.  1.
         12    1    4    4    0    0  0.11028890699E+02  0.35318939751E+02 -0.57076355405E+02  0.68020396070E+02  0.00000000000E+00 0. -1.
         -5    1    5    5    0  502  0.10018577744E+03 -0.29471355188E+02 -0.51744926488E+02  0.11664209444E+03  0.47000000000E+01 0.  1.
         13    1    6    6    0    0  0.24284880224E+01 -0.21793632761E+02 -0.52750043538E+02  0.57126413122E+02  0.00000000000E+00 0. -1.
        -14    1    6    6    0    0 -0.24122953784E+01 -0.86825815419E+00  0.41153050285E+02  0.41232833870E+02  0.00000000000E+00 0.  1.
</event>
<event>
12    1  0.8500177E-002  0.3266613E+03  0.7818608E-02  0.1072643E+00
         21   -1    0    0  503  502  0.00000000000E+00  0.00000000000E+00  0.69267592970E+03  0.69267592970E+03  0.00000000000E+00 0. -1.
         21   -1    0    0  501  503 -0.00000000000E+00 -0.00000000000E+00 -0.15609659351E+03  0.15609659351E+03  0.00000000000E+00 0.  1.
          6    2    1    2  501    0 -0.22755601944E+03 -0.15974079475E+03  0.21884375761E+03  0.39319227578E+03  0.17148968483E+03 0.  0.
         24    2    3    3    0    0 -0.71728426123E+02 -0.46838652626E+02  0.24067721940E+02  0.11935121494E+03  0.79540120532E+02 0.  0.
         -6    2    1    2    0  502  0.22755601944E+03  0.15974079475E+03  0.31773557858E+03  0.45558024742E+03  0.17116833952E+03 0.  0.
        -24    2    5    5    0    0  0.20770528316E+03  0.17993117967E+03  0.24801365345E+03  0.38018170488E+03  0.86663962241E+02 0.  0.
          5    1    3    3  501    0 -0.15582759332E+03 -0.11290214212E+03  0.19477603567E+03  0.27384106084E+03  0.47000000000E+01 0. -1.
        -13    1    4    4    0    0 -0.70723487237E+02 -0.42928941427E+02  0.47617815897E+02  0.95457645319E+02  0.00000000000E+00 0.  1.
         14    1    4    4    0    0 -0.10049388859E+01 -0.39097111999E+01 -0.23550093957E+02  0.23893569621E+02  0.00000000000E+00 0. -1.
         -5    1    5    5    0  502  0.19850736278E+02 -0.20190384927E+02  0.69721925132E+02  0.75398542548E+02  0.47000000000E+01 0.  1.
         11    1    6    6    0    0  0.20771227426E+03  0.16358561130E+03  0.24980214813E+03  0.36373857963E+03  0.00000000000E+00 0. -1.
        -12    1    6    6    0    0 -0.69910984887E-02  0.16345568377E+02 -0.17884946835E+01  0.16443125240E+02  0.00000000000E+00 0.  1.
</event>
<event>
12    1  0.8500177E-002  0.2099757E+03  0.7818608E-02  0.1141619E+00
         21   -1    0    0  503  502  0.00000000000E+00  0.00000000000E+00  0.84820314085E+02  0.84820314085E+02  0.00000000000E+00 0.  1.
         21   -1    0    0  501  503 -0.00000000000E+00 -0.00000000000E+00 -0.91747100853E+03  0.91747100853E+03  0.00000000000E+00 0.  1.
          6    2    1    2  501    0  0.11384947661E+03 -0.41899906715E+02 -0.74633999246E+03  0.77526858332E+03  0.17117443278E+03 0.  0.
         24    2    3    3    0    0  0.40845588363E+02  0.40140309989E+02 -0.37729474828E+03  0.39020151500E+03  0.81402018735E+02 0.  0.
         -6    2    1    2    0  502 -0.11384947661E+03  0.41899906715E+02 -0.86310701984E+02  0.22702273929E+03  0.17138401725E+03 0.  0.
        -24    2    5    5    0    0 -0.53134484675E+02 -0.42703712290E+02 -0.37577581182E+02  0.11195280552E+03  0.80464125865E+02 0.  0.
          5    1    3    3  501    0  0.73003888248E+02 -0.82040216704E+02 -0.36904524418E+03  0.38506706832E+03  0.47000000000E+01 0. -1.
        -13    1    4    4    0    0 -0.21280832292E+01  0.20309043842E+01 -0.25576832434E+03  0.25578524009E+03  0.00000000000E+00 0.  1.
         14    1    4    4    0    0  0.42973671593E+02  0.38109405605E+02 -0.12152642393E+03  0.13441627491E+03  0.00000000000E+00 0. -1.
         -5    1    5    5    0  502 -0.60714991936E+02  0.84603619004E+02 -0.48733120802E+02  0.11506993377E+03  0.47000000000E+01 0.  1.
         11    1    6    6    0    0 -0.25479717977E+02 -0.54633532874E+01  0.23614404075E+02  0.35166807321E+02  0.00000000000E+00 0. -1.
        -12    1    6    6    0    0 -0.27654766699E+02 -0.37240359003E+02 -0.61191985257E+02  0.76785998199E+02  0.00000000000E+00 0.  1.
</event>
<event>
12    1  0.8500177E-002  0.2451623E+03  0.7818608E-02  0.1116714E+00
         21   -1    0    0  503  502  0.00000000000E+00  0.00000000000E+00  0.48037164720E+02  0.48037164720E+02  0.00000000000E+00 0.  1.
         21   -1    0    0  501  503 -0.00000000000E+00 -0.00000000000E+00 -0.13370483218E+04  0.13370483218E+04  0.00000000000E+00 0. -1.
          6    2    1    2  501    0  0.10615283920E+03  0.14023052636E+03 -0.45693691357E+03  0.51764550415E+03  0.16802529329E+03 0.  0.
         24    2    3    3    0    0  0.11242929741E+03  0.14178976946E+03 -0.29390333630E+03  0.35441602616E+03  0.80541063260E+02 0.  0.
         -6    2    1    2    0  502 -0.10615283920E+03 -0.14023052636E+03 -0.83207424352E+03  0.86743998238E+03  0.17079681062E+03 0.  0.
        -24    2    5    5    0    0 -0.22595202220E+02 -0.68517617549E+01 -0.36623371872E+03  0.37570706901E+03  0.80443614903E+02 0.  0.
          5    1    3    3  501    0 -0.62764582089E+01 -0.15592430981E+01 -0.16303357727E+03  0.16322947799E+03  0.47000000000E+01 0. -1.
        -11    1    4    4    0    0  0.11583549644E+03  0.10334274781E+03 -0.26110412982E+03  0.30376463318E+03  0.00000000000E+00 0.  1.
         12    1    4    4    0    0 -0.34061990259E+01  0.38447021648E+02 -0.32799206480E+02  0.50651392983E+02  0.00000000000E+00 0. -1.
         -5    1    5    5    0  502 -0.83557636980E+02 -0.13337876460E+03 -0.46584052480E+03  0.49173291337E+03  0.47000000000E+01 0.  1.
         13    1    6    6    0    0 -0.28957893222E+02 -0.31201428715E+02 -0.32210854808E+03  0.32490922652E+03  0.00000000000E+00 0. -1.
        -14    1    6    6    0    0  0.63626910019E+01  0.24349666960E+02 -0.44125170636E+02  0.50797842489E+02  0.00000000000E+00 0.  1.
</event>
<event>
12    1  0.8500177E-002  0.1859924E+03  0.7818608E-02  0.1162877E+00
         21   -1    0    0  503  502  0.00000000000E+00  0.00000000000E+00  0.11844849448E+03  0.11844849448E+03  0.00000000000E+00 0.  1.
         21   -1    0    0  501  503 -0.00000000000E+00 -0.00000000000E+00 -0.34199155652E+03  0.34199155652E+03  0.00000000000E+00 0.  1.
          6    2    1    2  501    0  0.25137402077E+02  0.61684590487E+02 -0.20323970744E+03  0.27334273677E+03  0.17021455689E+03 0.  0.
         24    2    3    3    0    0 -0.34653747205E+02  0.56750485173E+02 -0.17796901853E+03  0.20807387248E+03  0.84854375779E+02 0.  0.
         -6    2    1    2    0  502 -0.25137402077E+02 -0.61684590487E+02 -0.20303354598E+02  0.18709731424E+03  0.17365569700E+03 0.  0.
        -24    2    5    5    0    0 -0.21602499762E+02 -0.76176200617E+02  0.34845301277E+02  0.12977396347E+03  0.96734714747E+02 0.  0.
          5    1    3    3  501    0  0.59791149282E+02  0.49341053138E+01 -0.25270688912E+02  0.65268864290E+02  0.47000000000E+01 0. -1.
        -11    1    4    4    0    0 -0.33341779856E+02  0.47963184886E+02 -0.18669547436E+03  0.19562040163E+03  0.00000000000E+00 0.  1.
         12    1    4    4    0    0 -0.13119673488E+01  0.87873002867E+01  0.87264558324E+01  0.12453470843E+02  0.00000000000E+00 0. -1.
         -5    1    5    5    0  502 -0.35349023147E+01  0.14491610130E+02 -0.55148655874E+02  0.57323350768E+02  0.47000000000E+01 0.  1.
         11    1    6    6    0    0 -0.16539486180E+01 -0.45633507547E+02 -0.30515908196E+02  0.54921518643E+02  0.00000000000E+00 0. -1.
        -12    1    6    6    0    0 -0.19948551144E+02 -0.30542693070E+02  0.65361209473E+02  0.74852444826E+02  0.00000000000E+00 0.  1.
</event>
<event>
12    1  0.8500177E-002  0.1918209E+03  0.7818608E-02  0.1156896E+00
         21   -1    0    0  503  502  0.00000000000E+00  0.00000000000E+00  0.75340468951E+03  0.75340468951E+03  0.00000000000E+00 0. -1.
         21   -1    0    0  501  503 -0.00000000000E+00 -0.00000000000E+00 -0.12611186965E+03  0.12611186965E+03  0.00000000000E+00 0. -1.
          6    2    1    2  501    0  0.57248972630E+02 -0.63663480388E+02 -0.30659754807E+02  0.19425567168E+03  0.17165302739E+03 0.  0.
         24    2    3    3    0    0 -0.27828945424E+02 -0.38887248511E+02 -0.46947899969E+02  0.10403645266E+03  0.79578953694E+02 0.  0.
         -6    2    1    2    0  502 -0.57248972630E+02  0.63663480388E+02  0.65795257466E+03  0.68526088748E+03  0.17131961305E+03 0.  0.
        -24    2    5    5    0    0  0.49745391803E+01  0.91971426434E+02  0.44976063978E+03  0.46608270203E+03  0.80404991856E+02 0.  0.
          5    1    3    3  501    0  0.85077918054E+02 -0.24776231877E+02  0.16288145162E+02  0.90219219012E+02  0.47000000000E+01 0. -1.
        -13    1    4    4    0    0  0.20684757326E+02  0.66822741309E+01 -0.26773519800E+02  0.34486712451E+02  0.00000000000E+00 0.  1.
         14    1    4    4    0    0 -0.48513702750E+02 -0.45569522642E+02 -0.20174380170E+02  0.69549740212E+02  0.00000000000E+00 0. -1.
         -5    1    5    5    0  502 -0.62223511810E+02 -0.28307946046E+02  0.20819193488E+03  0.21917818546E+03  0.47000000000E+01 0.  1.
         11    1    6    6    0    0 -0.31936817358E+02  0.29090736172E+02  0.24376932210E+03  0.24756759406E+03  0.00000000000E+00 0. -1.
        -12    1    6    6    0    0  0.36911356538E+02  0.62880690261E+02  0.20599131768E+03  0.21851510797E+03  0.00000000000E+00 0.  1.
</event>
<event>
12    1  0.8500177E-002  0.1785089E+03  0.7818608E-02  0.1170810E+00
         21   -1    0    0  501  502  0.00000000000E+00  0.00000000000E+00  0.40820213469E+02  0.40820213469E+02  0.00000000000E+00 0. -1.
         21   -1    0    0  502  503 -0.00000000000E+00 -0.00000000000E+00 -0.95003649157E+03  0.95003649157E+03  0.00000000000E+00 0. -1.
         -6    2    1    2    0  503  0.37650392696E+02 -0.27483749599E+02 -0.68628615423E+03  0.70912207718E+03  0.17231519462E+03 0.  0.
        -24    2    3    3    0    0  0.47314197490E+02 -0.80659619073E+02 -0.41925019788E+03  0.43663106045E+03  0.78302918802E+02 0.  0.
          6    2    1    2  501    0 -0.37650392696E+02  0.27483749599E+02 -0.22293012388E+03  0.28173462786E+03  0.16584224987E+03 0.  0.
         24    2    5    5    0    0 -0.71906848697E+02  0.27706821951E+02 -0.22055532454E+03  0.24707508068E+03  0.80393914184E+02 0.  0.
          5    1    5    5  501    0  0.34256456001E+02 -0.22307235197E+00 -0.23747993383E+01  0.34659547183E+02  0.47000000000E+01 0. -1.
        -13    1    6    6    0    0 -0.22445339652E+02 -0.67696564949E+01 -0.15969559176E+03  0.16140725990E+03  0.00000000000E+00 0.  1.
         14    1    6    6    0    0 -0.49461509045E+02  0.34476478446E+02 -0.60859732781E+02  0.85667820780E+02  0.00000000000E+00 0. -1.
         -5    1    3    3    0  503 -0.96638047938E+01  0.53175869473E+02 -0.26703595634E+03  0.27249101673E+03  0.47000000000E+01 0.  1.
         13    1    4    4    0    0 -0.13846780540E+02 -0.51458788868E+02 -0.21125047226E+03  0.21786808466E+03  0.00000000000E+00 0. -1.
        -14    1    4    4    0    0  0.61160978030E+02 -0.29200830205E+02 -0.20799972563E+03  0.21876297580E+03  0.00000000000E+00 0.  1.
</event>
<event>
12    1  0.8500177E-002  0.1803340E+03  0.7818608E-02  0.1167698E+00
         21   -1    0    0  503  502  0.00000000000E+00  0.00000000000E+00  0.43920200485E+02  0.43920200485E+02  0.00000000000E+00 0.  1.
         21   -1    0    0  501  503 -0.00000000000E+00 -0.00000000000E+00 -0.84750271122E+03  0.84750271122E+03  0.00000000000E+00 0.  1.
          6    2    1    2  501    0 -0.47031741658E+02  0.20311531772E+02 -0.56379137536E+03  0.59192994474E+03  0.17290402398E+03 0.  0.
         24    2    3    3    0    0 -0.62558675951E+02 -0.12108293943E+02 -0.53738027017E+03  0.54707721612E+03  0.80347538293E+02 0.  0.
         -6    2    1    2    0  502  0.47031741658E+02 -0.20311531772E+02 -0.23979113538E+03  0.29949296696E+03  0.17196425678E+03 0.  0.
        -24    2    5    5    0    0 -0.34602079456E+02  0.34686327713E+00 -0.16764457627E+03  0.18850618384E+03  0.78945887661E+02 0.  0.
          5    1    3    3  501    0  0.15526934293E+02  0.32419825714E+02 -0.26411105193E+02  0.44852728628E+02  0.47000000000E+01 0. -1.
        -13    1    4    4    0    0 -0.42659243915E+01 -0.24529514215E+02 -0.33960268795E+03  0.34051414191E+03  0.00000000000E+00 0.  1.
         14    1    4    4    0    0 -0.58292751560E+02  0.12421220273E+02 -0.19777758221E+03  0.20656307420E+03  0.00000000000E+00 0. -1.
         -5    1    5    5    0  502  0.81633821114E+02 -0.20658395049E+02 -0.72146559108E+02  0.11098678312E+03  0.47000000000E+01 0.  1.
         13    1    6    6    0    0 -0.50708029742E+01  0.25218394715E+02 -0.13649551670E+03  0.13889818773E+03  0.00000000000E+00 0. -1.
        -14    1    6    6    0    0 -0.29531276482E+02 -0.24871531438E+02 -0.31149059567E+02  0.49607996116E+02  0.00000000000E+00 0.  1.
</event>
<event>
12    1  0.8500177E-002  0.1743639E+03  0.7818608E-02  0.1173723E+00
         21   -1    0    0  501  502  0.00000000000E+00  0.00000000000E+00  0.38516986813E+03  0.38516986813E+03  0.00000000000E+00 0.  1.
         21   -1    0    0  502  503 -0.00000000000E+00 -0.00000000000E+00 -0.78818303461E+02  0.78818303461E+02  0.00000000000E+00 0.  1.
         -6    2    1    2    0  503 -0.74525327817E+01  0.17151139697E+02  0.13511476569E+03  0.22058734733E+03  0.17335823042E+03 0.  0.
        -24    2    3    3    0    0 -0.31143635126E+02 -0.37197952737E+02  0.13056853134E+03  0.16093962796E+03  0.80621391547E+02 0.  0.
          6    2    1    2  501    0  0.74525327817E+01 -0.17151139697E+02  0.17123679898E+03  0.24340082426E+03  0.17196574685E+03 0.  0.
         24    2    5    5    0    0 -0.54417491265E+02  0.18759958771E+02  0.96545885199E+02  0.13987145901E+03  0.83244925898E+02 0.  0.
          5    1    5    5  501    0  0.61870024046E+02 -0.35911098468E+02  0.74690913776E+02  0.10352936525E+03  0.47000000000E+01 0. -1.
        -11    1    6    6    0    0 -0.43938634165E+02  0.55957534365E+01  0.10983555408E+03  0.11843042248E+03  0.00000000000E+00 0.  1.
         12    1    6    6    0    0 -0.10478857099E+02  0.13164205334E+02 -0.13289668885E+02  0.21441036525E+02  0.00000000000E+00 0. -1.
         -5    1    3    3    0  503  0.23691102344E+02  0.54349092433E+02  0.45462343476E+01  0.59647719364E+02  0.47000000000E+01 0.  1.
         11    1    4    4    0    0 -0.41308848620E+02  0.96639760782E+01  0.83955016685E+02  0.94065180777E+02  0.00000000000E+00 0. -1.
        -12    1    4    4    0    0  0.10165213494E+02 -0.46861928815E+02  0.46613514658E+02  0.66874447186E+02  0.00000000000E+00 0.  1.
</event>
<event>
12    1  0.8500177E-002  0.2385684E+03  0.7818608E-02  0.1120803E+00
         21   -1    0    0  501  502  0.00000000000E+00  0.00000000000E+00  0.91353530163E+03  0.91353530163E+03  0.00000000000E+00 0. -1.
         21   -1    0    0  502  503 -0.00000000000E+00 -0.00000000000E+00 -0.20069915750E+03  0.20069915750E+03  0.00000000000E+00 0.  1.
         -6    2    1    2    0  503  0.16528668092E+03 -0.12861994926E+02 -0.10642811579E+03  0.26094152916E+03  0.17110938025E+03 0.  0.
        -24    2    3    3    0    0  0.78936913755E+02 -0.46697069034E+02 -0.21281653983E+01  0.12129317013E+03  0.79346401451E+02 0.  0.
          6    2    1    2  501    0 -0.16528668092E+03  0.12861994926E+02  0.81926425991E+03  0.85329292997E+03  0.17155109723E+03 0.  0.
         24    2    5    5    0    0 -0.10686656385E+02  0.15519090399E+02  0.27424581730E+03  0.28674600293E+03  0.81593229506E+02 0.  0.
          5    1    5    5  501    0 -0.15460002453E+03 -0.26570954722E+01  0.54501844261E+03  0.56654692703E+03  0.47000000000E+01 0. -1.
        -13    1    6    6    0    0  0.19027687687E+02 -0.26048299095E+02  0.11983320252E+03  0.12409900568E+03  0.00000000000E+00 0.  1.
         14    1    6    6    0    0 -0.29714344072E+02  0.41567389494E+02  0.15441261478E+03  0.16264699725E+03  0.00000000000E+00 0. -1.
         -5    1    3    3    0  503  0.86349767163E+02  0.33835074107E+02 -0.10429995039E+03  0.13964835903E+03  0.47000000000E+01 0.  1.
         13    1    4    4    0    0 -0.52227502401E+01  0.15246044479E+02  0.40366114649E+01  0.16613645730E+02  0.00000000000E+00 0. -1.
        -14    1    4    4    0    0  0.84159663995E+02 -0.61943113512E+02 -0.61647768633E+01  0.10467952440E+03  0.00000000000E+00 0.  1.
</event>
<event>
12    1  0.8500177E-002  0.1987149E+03  0.7818608E-02  0.1151105E+00
         21   -1    0    0  503  502  0.00000000000E+00  0.00000000000E+00  0.29936981383E+03  0.29936981383E+03  0.00000000000E+00 0.  1.
         21   -1    0    0  501  503 -0.00000000000E+00 -0.00000000000E+00 -0.68786085543E+03  0.68786085543E+03  0.00000000000E+00 0.  1.
          6    2    1    2  501    0 -0.18713464964E+02  0.95898706024E+02 -0.63823853178E+03  0.66807328205E+03  0.17154221391E+03 0.  0.
         24    2    3    3    0    0  0.19035321296E+02  0.96431118285E+02 -0.60292808071E+03  0.61616786536E+03  0.80493874088E+02 0.  0.
         -6    2    1    2    0  502  0.18713464964E+02 -0.95898706024E+02  0.24974749018E+03  0.31915738720E+03  0.17303431268E+03 0.  0.
        -24    2    5    5    0    0  0.11238486272E+02  0.18891598164E+02  0.91097895742E+02  0.12313577345E+03  0.79877381278E+02 0.  0.
          5    1    3    3  501    0 -0.37748786261E+02 -0.53241226164E+00 -0.35310451079E+02  0.51905416696E+02  0.47000000000E+01 0. -1.
        -11    1    4    4    0    0  0.13665501924E+02  0.34193407647E+02 -0.65662581549E+02  0.75282864485E+02  0.00000000000E+00 0.  1.
         12    1    4    4    0    0  0.53698193720E+01  0.62237710639E+02 -0.53726549916E+03  0.54088500087E+03  0.00000000000E+00 0. -1.
         -5    1    5    5    0  502  0.74749786924E+01 -0.11479030419E+03  0.15864959444E+03  0.19602161375E+03  0.47000000000E+01 0.  1.
         13    1    6    6    0    0 -0.16397650977E+02  0.10382947236E+02  0.92178181512E+02  0.94199287141E+02  0.00000000000E+00 0. -1.
        -14    1    6    6    0    0  0.27636137249E+02  0.85086509276E+01 -0.10802857705E+01  0.28936486310E+02  0.00000000000E+00 0.  1.
</event>
<event>
12    1  0.8500177E-002  0.1916138E+03  0.7818608E-02  0.1157015E+00
         21   -1    0    0  501  502  0.00000000000E+00  0.00000000000E+00  0.14654414920E+04  0.14654414920E+04  0.00000000000E+00 0. -1.
         21   -1    0    0  502  503 -0.00000000000E+00 -0.00000000000E+00 -0.39080247387E+02  0.39080247387E+02  0.00000000000E+00 0. -1.
         -6    2    1    2    0  503 -0.42453352713E+02  0.73898763871E+02  0.26251101416E+03  0.32500442112E+03  0.17161738471E+03 0.  0.
        -24    2    3    3    0    0 -0.19663894646E+02 -0.27564824159E+02  0.13190646645E+03  0.15798987991E+03  0.80093682509E+02 0.  0.
          6    2    1    2  501    0  0.42453352713E+02 -0.73898763871E+02  0.11638502305E+04  0.11795173183E+04  0.17161127791E+03 0.  0.
         24    2    5    5    0    0  0.95620338250E+02 -0.38441498804E+02  0.80700352740E+03  0.81696303891E+03  0.74517889105E+02 0.  0.
          5    1    5    5  501    0 -0.53166985538E+02 -0.35457265067E+02  0.35684670306E+03  0.36255427936E+03  0.47000000000E+01 0. -1.
        -11    1    6    6    0    0  0.87131048845E+02 -0.48551952906E+02  0.50978737855E+03  0.51945383157E+03  0.00000000000E+00 0.  1.
         12    1    6    6    0    0  0.84892894054E+01  0.10110454101E+02  0.29721614885E+03  0.29750920734E+03  0.00000000000E+00 0. -1.
         -5    1    3    3    0  503 -0.22789458067E+02  0.10146358803E+03  0.13060454771E+03  0.16701454122E+03  0.47000000000E+01 0.  1.
         13    1    4    4    0    0 -0.89897329609E+01 -0.24630486880E+02  0.14115207656E+03  0.14356665665E+03  0.00000000000E+00 0. -1.
        -14    1    4    4    0    0 -0.10674161685E+02 -0.29343372791E+01 -0.92456101105E+01  0.14423223262E+02  0.00000000000E+00 0.  1.
</event>
<event>
12    1  0.8500177E-002  0.1944638E+03  0.7818608E-02  0.1154867E+00
         21   -1    0    0  503  502  0.00000000000E+00  0.00000000000E+00  0.28287336742E+03  0.28287336742E+03  0.00000000000E+00 0. -1.
         21   -1    0    0  501  503 -0.00000000000E+00 -0.00000000000E+00 -0.13439229721E+03  0.13439229721E+03  0.00000000000E+00 0. -1.
          6    2    1    2  501    0  0.44140091424E+02 -0.77494339909E+02  0.49984451721E+02  0.20078504341E+03  0.17280760358E+03 0.  0.
         24    2    3    3    0    0  0.53258485014E+02 -0.94915482722E+02 -0.11502015896E+02  0.13606010989E+03  0.80837132853E+02 0.  0.
         -6    2    1    2    0  502 -0.44140091424E+02  0.77494339909E+02  0.98496618482E+02  0.21648062122E+03  0.17090510561E+03 0.  0.
        -24    2    5    5    0    0 -0.71120176871E+02  0.10751964661E+03  0.73916538275E+02  0.16898625949E+03  0.80462086112E+02 0.  0.
          5    1    3    3  501    0 -0.91183935906E+01  0.17421142813E+02  0.61486467617E+02  0.64724933516E+02  0.47000000000E+01 0. -1.
        -13    1    4    4    0    0 -0.58867535443E+01  0.48746952992E+01 -0.18328633637E+02  0.19858381922E+02  0.00000000000E+00 0.  1.
         14    1    4    4    0    0  0.59145238559E+02 -0.99790178021E+02  0.68266177410E+01  0.11620172797E+03  0.00000000000E+00 0. -1.
         -5    1    5    5    0  502  0.26980085447E+02 -0.30025306699E+02  0.24580080208E+02  0.47494361729E+02  0.47000000000E+01 0.  1.
         13    1    6    6    0    0 -0.40397397070E+02  0.32157571658E+02  0.70688875899E+02  0.87538427452E+02  0.00000000000E+00 0. -1.
        -14    1    6    6    0    0 -0.30722779801E+02  0.75362074950E+02  0.32276623758E+01  0.81447832039E+02  0.00000000000E+00 0.  1.
</event>
<event>
12    1  0.8500177E-002  0.1856881E+03  0.7818608E-02  0.1162673E+00
         21   -1    0    0  501  502  0.00000000000E+00  0.00000000000E+00  0.75386191798E+03  0.75386191798E+03  0.00000000000E+00 0. -1.
         21   -1    0    0  502  503 -0.00000000000E+00 -0.00000000000E+00 -0.13519483521E+03  0.13519483521E+03  0.00000000000E+00 0. -1.
         -6    2    1    2    0  503  0.59692742399E+02 -0.26768466034E+02 -0.52508687556E+02  0.19296950396E+03  0.17378231476E+03 0.  0.
        -24    2    3    3    0    0  0.51737396353E+02  0.14475887175E+02 -0.92890064841E+02  0.13451328245E+03  0.81110723820E+02 0.  0.
          6    2    1    2  501    0 -0.59692742399E+02  0.26768466034E+02  0.67117577033E+03  0.69608724922E+03  0.17257105662E+03 0.  0.
         24    2    5    5    0    0 -0.70549891748E+02 -0.42213996475E+02  0.43179636970E+03  0.44668587538E+03  0.79503821658E+02 0.  0.
          5    1    5    5  501    0  0.10857149348E+02  0.68982462509E+02  0.23937940063E+03  0.24940137384E+03  0.47000000000E+01 0. -1.
        -11    1    6    6    0    0 -0.11306745654E+01 -0.44862598722E+02  0.16520559618E+03  0.17119234854E+03  0.00000000000E+00 0.  1.
         12    1    6    6    0    0 -0.69419217182E+02  0.26486022473E+01  0.26659077352E+03  0.27549352684E+03  0.00000000000E+00 0. -1.
         -5    1    3    3    0  503  0.79553460466E+01 -0.41244353209E+02  0.40381377285E+02  0.58456221515E+02  0.47000000000E+01 0.  1.
         13    1    4    4    0    0  0.43631910969E+02 -0.27944120171E+02 -0.36020315733E+02  0.63103729307E+02  0.00000000000E+00 0. -1.
        -14    1    4    4    0    0  0.81054853841E+01  0.42420007346E+02 -0.56869749108E+02  0.71409553144E+02  0.00000000000E+00 0.  1.
</event>
<event>
12    1  0.8500177E-002  0.1845895E+03  0.7818608E-02  0.1163820E+00
         21   -1    0    0  501  502  0.00000000000E+00  0.00000000000E+00  0.47318934070E+03  0.47318934070E+03  0.00000000000E+00 0. -1.
         21   -1    0    0  502  503 -0.00000000000E+00 -0.00000000000E+00 -0.75403573016E+02  0.75403573016E+02  0.00000000000E+00 0. -1.
         -6    2    1    2    0  503 -0.29472209110E+01 -0.68018751206E+02  0.13628014526E+03  0.22944623150E+03  0.17157522702E+03 0.  0.
        -24    2    3    3    0    0 -0.14999111200E+02 -0.67578422377E+01  0.22858158807E+01  0.81545192506E+02  0.79835779561E+02 0.  0.
          6    2    1    2  501    0  0.29472209110E+01  0.68018751206E+02  0.26150562242E+03  0.31914668222E+03  0.16980629431E+03 0.  0.
         24    2    5    5    0    0  0.61356705995E+02  0.40582165300E+02  0.20917954007E+03  0.23593284270E+03  0.80601915414E+02 0.  0.
          5    1    5    5  501    0 -0.58409485084E+02  0.27436585906E+02  0.52326082349E+02  0.83213839521E+02  0.47000000000E+01 0. -1.
        -11    1    6    6    0    0  0.28324554164E+02 -0.15085172049E+02  0.12875956328E+03  0.13269840964E+03  0.00000000000E+00 0.  1.
         12    1    6    6    0    0  0.33032151831E+02  0.55667337350E+02  0.80419976787E+02  0.10323443306E+03  0.00000000000E+00 0. -1.
         -5    1    3    3    0  503  0.12051890289E+02 -0.61260908968E+02  0.13399432938E+03  0.14790103899E+03  0.47000000000E+01 0.  1.
         13    1    4    4    0    0 -0.46049615525E+02 -0.51222292160E+01  0.13868040519E+02  0.48364520777E+02  0.00000000000E+00 0. -1.
        -14    1    4    4    0    0  0.31050504325E+02 -0.16356130218E+01 -0.11582224638E+02  0.33180671729E+02  0.00000000000E+00 0.  1.
</event>
<event>
12    1  0.8500177E-002  0.1896981E+03  0.7818608E-02  0.1158920E+00
         21   -1    0    0  503  502  0.00000000000E+00  0.00000000000E+00  0.23853953887E+03  0.23853953887E+03  0.00000000000E+00 0.  1.
         21   -1    0    0  501  503 -0.00000000000E+00 -0.00000000000E+00 -0.15231913253E+03  0.15231913253E+03  0.00000000000E+00 0. -1.
          6    2    1    2  501    0 -0.13923265322E+02 -0.77345133399E+02  0.66053685939E+02  0.20009161518E+03  0.17174818212E+03 0.  0.
         24    2    3    3    0    0  0.43943966065E+02 -0.69987536510E+02  0.39989640566E+01  0.11479431623E+03  0.79576478334E+02 0.  0.
         -6    2    1    2    0  502  0.13923265322E+02  0.77345133399E+02  0.20166720399E+02  0.19076705622E+03  0.17265354370E+03 0.  0.
        -24    2    5    5    0    0  0.45617312794E+02  0.36887275638E+02 -0.44223302139E+02  0.10824726525E+03  0.79499431769E+02 0.  0.
          5    1    3    3  501    0 -0.57867231387E+02 -0.73575968899E+01  0.62054721883E+02  0.85297298951E+02  0.47000000000E+01 0. -1.
        -13    1    4    4    0    0  0.53885712022E+02 -0.65630871437E+02  0.27209739704E+02  0.89170909945E+02  0.00000000000E+00 0.  1.
         14    1    4    4    0    0 -0.99417459574E+01 -0.43566650725E+01 -0.23210775647E+02  0.25623406280E+02  0.00000000000E+00 0. -1.
         -5    1    5    5    0  502 -0.31694047473E+02  0.40457857761E+02  0.64390022538E+02  0.82519790973E+02  0.47000000000E+01 0.  1.
         13    1    6    6    0    0 -0.24210968623E+01  0.37962877083E+02  0.62605658515E+01  0.38551737072E+02  0.00000000000E+00 0. -1.
        -14    1    6    6    0    0  0.48038409657E+02 -0.10756014455E+01 -0.50483867990E+02  0.69695528178E+02  0.00000000000E+00 0.  1.
</event>
<event>
12    1  0.8500177E-002  0.1971505E+03  0.7818608E-02  0.1152693E+00
         21   -1    0    0  501  502  0.00000000000E+00  0.00000000000E+00  0.75943908108E+03  0.75943908108E+03  0.00000000000E+00 0.  1.
         21   -1    0    0  502  503 -0.00000000000E+00 -0.00000000000E+00 -0.27034988275E+03  0.27034988275E+03  0.00000000000E+00 0. -1.
         -6    2    1    2    0  503 -0.59683733216E+02 -0.76711370769E+02 -0.21943776166E+03  0.29499364280E+03  0.17152706968E+03 0.  0.
        -24    2    3    3    0    0 -0.21209507502E+02 -0.12548900622E+02 -0.20235591406E+03  0.21811082198E+03  0.77569946456E+02 0.  0.
          6    2    1    2  501    0  0.59683733216E+02  0.76711370769E+02  0.70852695999E+03  0.73479532103E+03  0.16872145198E+03 0.  0.
         24    2    5    5    0    0  0.80351975602E+02  0.84139369000E+02  0.38721556572E+03  0.41269991049E+03  0.82761394295E+02 0.  0.
          5    1    5    5  501    0 -0.20668242387E+02 -0.74279982308E+01  0.32131139427E+03  0.32209541053E+03  0.47000000000E+01 0. -1.
        -11    1    6    6    0    0  0.61398352046E+02  0.40646387357E+02  0.33122896395E+03  0.33931476979E+03  0.00000000000E+00 0.  1.
         12    1    6    6    0    0  0.18953623556E+02  0.43492981643E+02  0.55986601775E+02  0.73385140706E+02  0.00000000000E+00 0. -1.
         -5    1    3    3    0  503 -0.38474225714E+02 -0.64162470148E+02 -0.17081847596E+02  0.76882820819E+02  0.47000000000E+01 0.  1.
         13    1    4    4    0    0  0.20922080799E+02 -0.14588128104E+02 -0.14321624047E+03  0.14546971672E+03  0.00000000000E+00 0. -1.
        -14    1    4    4    0    0 -0.42131588301E+02  0.20392274818E+01 -0.59139673589E+02  0.72641105262E+02  0.00000000000E+00 0.  1.
</event>
<event>
12    1  0.8500177E-002  0.2080657E+03  0.7818608E-02  0.1143159E+00
         21   -1    0    0  501  502  0.00000000000E+00  0.00000000000E+00  0.18224090694E+03  0.18224090694E+03  0.00000000000E+00 0.  1.
         21   -1    0    0  502  503 -0.00000000000E+00 -0.00000000000E+00 -0.27841310480E+03  0.27841310480E+03  0.00000000000E+00 0. -1.
         -6    2    1    2    0  503  0.10994383067E+03 -0.40682173807E+02 -0.13667254169E+03  0.24893921507E+03  0.17189724831E+03 0.  0.
        -24    2    3    3    0    0  0.70929949668E+02 -0.66539806063E+02 -0.15398151528E+03  0.19881546198E+03  0.79741315033E+02 0.  0.
          6    2    1    2  501    0 -0.10994383067E+03  0.40682173807E+02  0.40500343839E+02  0.21171479668E+03  0.17158144454E+03 0.  0.
         24    2    5    5    0    0 -0.73789958101E+02  0.54438774389E+02  0.88215708035E+02  0.15010966262E+03  0.79638945211E+02 0.  0.
          5    1    5    5  501    0 -0.36153872572E+02 -0.13756600583E+02 -0.47715364196E+02  0.61605134055E+02  0.47000000000E+01 0. -1.
        -13    1    6    6    0    0 -0.22052432571E+02 -0.11854743890E+02  0.53622459622E+02  0.59179497386E+02  0.00000000000E+00 0.  1.
         14    1    6    6    0    0 -0.51737525530E+02  0.66293518279E+02  0.34593248413E+02  0.90930165235E+02  0.00000000000E+00 0. -1.
         -5    1    3    3    0  503  0.39013881005E+02  0.25857632256E+02  0.17308973587E+02  0.50123753088E+02  0.47000000000E+01 0.  1.
         11    1    4    4    0    0 -0.87390670313E+01 -0.68290973968E+01 -0.62921855822E+02  0.63891844580E+02  0.00000000000E+00 0. -1.
        -12    1    4    4    0    0  0.79669016700E+02 -0.59710708666E+02 -0.91059659458E+02  0.13492361740E+03  0.00000000000E+00 0.  1.
</event>
<event>
12    1  0.8500177E-002  0.2167871E+03  0.7818608E-02  0.1136389E+00
         21   -1    0    0  501  502  0.00000000000E+00  0.00000000000E+00  0.62397273868E+03  0.62397273868E+03  0.00000000000E+00 0.  1.
         21   -1    0    0  502  503 -0.00000000000E+00 -0.00000000000E+00 -0.76279395240E+02  0.76279395240E+02  0.00000000000E+00 0.  1.
         -6    2    1    2    0  503  0.35053887909E+01 -0.13125062439E+03  0.23112817913E+03  0.31657238618E+03  0.17192680520E+03 0.  0.
        -24    2    3    3    0    0 -0.35500467036E+02 -0.14047938595E+03  0.14037590930E+03  0.21725123381E+03  0.80609935123E+02 0.  0.
          6    2    1    2  501    0 -0.35053887909E+01  0.13125062439E+03  0.31656516430E+03  0.38367974774E+03  0.17250400407E+03 0.  0.
         24    2    5    5    0    0 -0.14785894465E+02 -0.35447775136E+01  0.14584342604E+03  0.16581499130E+03  0.77415232978E+02 0.  0.
          5    1    5    5  501    0  0.11280505674E+02  0.13479540191E+03  0.17072173826E+03  0.21786475644E+03  0.47000000000E+01 0. -1.
        -13    1    6    6    0    0  0.16062904834E+02  0.29112130416E+02  0.51168682416E+02  0.61022677008E+02  0.00000000000E+00 0.  1.
         14    1    6    6    0    0 -0.30848799298E+02 -0.32656907930E+02  0.94674743628E+02  0.10479231429E+03  0.00000000000E+00 0. -1.
         -5    1    3    3    0  503  0.39005855827E+02  0.92287615583E+01  0.90752269831E+02  0.99321152370E+02  0.47000000000E+01 0.  1.
         13    1    4    4    0    0  0.37166707766E+01 -0.91992328786E+01  0.54841098685E+02  0.55731370270E+02  0.00000000000E+00 0. -1.
        -14    1    4    4    0    0 -0.39217137813E+02 -0.13128015307E+03  0.85534810616E+02  0.16151986354E+03  0.00000000000E+00 0.  1.
</event>
<event>
12    1  0.8500177E-002  0.1958884E+03  0.7818608E-02  0.1153285E+00
         21   -1    0    0  501  502  0.00000000000E+00  0.00000000000E+00  0.15902811199E+03  0.15902811199E+03  0.00000000000E+00 0. -1.
         21   -1    0    0  502  503 -0.00000000000E+00 -0.00000000000E+00 -0.24116059493E+03  0.24116059493E+03  0.00000000000E+00 0.  1.
         -6    2    1    2    0  503  0.68206418334E+02  0.63519133435E+02 -0.43664738827E+02  0.20069601580E+03  0.17229476350E+03 0.  0.
        -24    2    3    3    0    0  0.53400755526E+02  0.10323659045E+02  0.36480680475E+02  0.10325708938E+03  0.79830870177E+02 0.  0.
          6    2    1    2  501    0 -0.68206418334E+02 -0.63519133435E+02 -0.38467744120E+02  0.19949269111E+03  0.17213590752E+03 0.  0.
         24    2    5    5    0    0 -0.10986715386E+03 -0.67038406067E+02 -0.47576375086E+02  0.15644551557E+03  0.75144850047E+02 0.  0.
          5    1    5    5  501    0  0.41660735529E+02  0.35192726321E+01  0.91086309653E+01  0.43047175549E+02  0.47000000000E+01 0. -1.
        -11    1    6    6    0    0 -0.45309397501E+02 -0.22838509770E+02 -0.58509765098E+02  0.77446314582E+02  0.00000000000E+00 0.  1.
         12    1    6    6    0    0 -0.64557756362E+02 -0.44199896297E+02  0.10933390012E+02  0.78999200985E+02  0.00000000000E+00 0. -1.
         -5    1    3    3    0  503  0.14805662808E+02  0.53195474390E+02 -0.80145419301E+02  0.97438926419E+02  0.47000000000E+01 0.  1.
         11    1    4    4    0    0  0.70618397515E+02  0.27596918642E+01  0.10900550823E+02  0.71508013363E+02  0.00000000000E+00 0. -1.
        -12    1    4    4    0    0 -0.17217641989E+02  0.75639671809E+01  0.25580129651E+02  0.31749076021E+02  0.00000000000E+00 0.  1.
</event>
<event>
12    1  0.8500177E-002  0.2419460E+03  0.7818608E-02  0.1119117E+00
         21   -1    0    0  501  502  0.00000000000E+00  0.00000000000E+00  0.12260934493E+03  0.12260934493E+03  0.00000000000E+00 0.  1.
         21   -1    0    0  502  503 -0.00000000000E+00 -0.00000000000E+00 -0.54561241064E+03  0.54561241064E+03  0.00000000000E+00 0. -1.
         -6    2    1    2    0  503  0.50502390444E+02  0.16075884434E+03 -0.88673671805E+02  0.25768368529E+03  0.17362017198E+03 0.  0.
        -24    2    3    3    0    0 -0.26403413239E+02  0.12949310170E+03 -0.78075178121E+02  0.17385965907E+03  0.81644620119E+02 0.  0.
          6    2    1    2  501    0 -0.50502390444E+02 -0.16075884434E+03 -0.33432939391E+03  0.41053807028E+03  0.16843831525E+03 0.  0.
         24    2    5    5    0    0 -0.81996691559E+01 -0.17597105742E+03 -0.28365902310E+03  0.34263734765E+03  0.76843106386E+02 0.  0.
          5    1    5    5  501    0 -0.42302721288E+02  0.15212213078E+02 -0.50670370813E+02  0.67900722628E+02  0.47000000000E+01 0. -1.
        -13    1    6    6    0    0 -0.32911337870E+02 -0.70762233464E+02 -0.78147100528E+02  0.11044192667E+03  0.00000000000E+00 0.  1.
         14    1    6    6    0    0  0.24711668714E+02 -0.10520882396E+03 -0.20551192257E+03  0.23219542099E+03  0.00000000000E+00 0. -1.
         -5    1    3    3    0  503  0.76905803683E+02  0.31265742641E+02 -0.10598493684E+02  0.83824026218E+02  0.47000000000E+01 0.  1.
         11    1    4    4    0    0 -0.13570288429E+02  0.13545495678E+03 -0.82318747105E+02  0.15908668760E+03  0.00000000000E+00 0. -1.
        -12    1    4    4    0    0 -0.12833124810E+02 -0.59618550833E+01  0.42435689845E+01  0.14772971473E+02  0.00000000000E+00 0.  1.
</event>
<event>
12    1  0.8500177E-002  0.5307081E+03  0.7818608E-02  0.1006075E+00
         21   -1    0    0  501  502  0.00000000000E+00  0.00000000000E+00  0.90884565451E+03  0.90884565451E+03  0.00000000000E+00 0. -1.
         21   -1    0    0  502  503 -0.00000000000E+00 -0.00000000000E+00 -0.35913842566E+03  0.35913842566E+03  0.00000000000E+00 0.  1.
         -6    2    1    2    0  503  0.28022379257E+03 -0.41641793624E+03  0.39725807437E+02  0.53195955322E+03  0.17167863855E+03 0.  0.
        -24    2    3    3    0    0  0.11944701588E+03 -0.22226754372E+03  0.80472182107E+02  0.27656592783E+03  0.79639749803E+02 0.  0.
          6    2    1    2  501    0 -0.28022379257E+03  0.41641793624E+03  0.50998142141E+03  0.73602452696E+03  0.17240006540E+03 0.  0.
         24    2    5    5    0    0 -0.20325457541E+03  0.35412571539E+03  0.34204837999E+03  0.54101637951E+03  0.94784935081E+02 0.  0.
          5    1    5    5  501    0 -0.76969217155E+02  0.62292220850E+02  0.16793304143E+03  0.19500814745E+03  0.47000000000E+01 0. -1.
        -11    1    6    6    0    0  0.46805705767E+01  0.18212644539E+02  0.38349127250E+02  0.42711400385E+02  0.00000000000E+00 0.  1.
         12    1    6    6    0    0 -0.20793514599E+03  0.33591307086E+03  0.30369925274E+03  0.49830497913E+03  0.00000000000E+00 0. -1.
         -5    1    3    3    0  503  0.16077677669E+03 -0.19415039252E+03 -0.40746374670E+02  0.25539362539E+03  0.47000000000E+01 0.  1.
         11    1    4    4    0    0  0.20225608700E+02 -0.72554859354E+02 -0.90882861421E+01  0.75867514841E+02  0.00000000000E+00 0. -1.
        -12    1    4    4    0    0  0.99221407176E+02 -0.14971268437E+03  0.89560468249E+02  0.20069841299E+03  0.00000000000E+00 0.  1.
</event>
<event>
12    1  0.8500177E-002  0.1790726E+03  0.7818608E-02  0.1168796E+00
         21   -1    0    0  501  502  0.00000000000E+00  0.00000000000E+00  0.16235876922E+03  0.16235876922E+03  0.00000000000E+00 0. -1.
         21   -1    0    0  502  503 -0.00000000000E+00 -0.00000000000E+00 -0.34040802379E+03  0.34040802379E+03  0.00000000000E+00 0. -1.
         -6    2    1    2    0  503  0.46560716882E+02 -0.16422900480E+02 -0.25208350695E+03  0.30899359595E+03  0.17173623918E+03 0.  0.
        -24    2    3    3    0    0 -0.25678329451E+02 -0.16746187039E+02 -0.20813831452E+03  0.22430679493E+03  0.77795686895E+02 0.  0.
          6    2    1    2  501    0 -0.46560716882E+02  0.16422900480E+02  0.74034252372E+02  0.19377319706E+03  0.17213183714E+03 0.  0.
         24    2    5    5    0    0 -0.27699796316E+02 -0.35726632909E+02  0.96495300521E+02  0.13375739213E+03  0.80845691980E+02 0.  0.
          5    1    5    5  501    0 -0.18860920566E+02  0.52149533390E+02 -0.22461048150E+02  0.60015804929E+02  0.47000000000E+01 0. -1.
        -13    1    6    6    0    0 -0.30485792277E+02  0.42815710927E+01  0.87359324046E+02  0.92624871819E+02  0.00000000000E+00 0.  1.
         14    1    6    6    0    0  0.27859959614E+01 -0.40008204002E+02  0.91359764755E+01  0.41132520311E+02  0.00000000000E+00 0. -1.
         -5    1    3    3    0  503  0.72239046332E+02  0.32328655873E+00 -0.43945192433E+02  0.84686801021E+02  0.47000000000E+01 0.  1.
         13    1    4    4    0    0 -0.40709716786E+02  0.15765498632E+02 -0.78625110614E+02  0.89931863135E+02  0.00000000000E+00 0. -1.
        -14    1    4    4    0    0  0.15031387336E+02 -0.32511685671E+02 -0.12951320390E+03  0.13437493180E+03  0.00000000000E+00 0.  1.
</event>
<event>
12    1  0.8500177E-002  0.1822549E+03  0.7818608E-02  0.1165796E+00
         21   -1    0    0  503  502  0.00000000000E+00  0.00000000000E+00  0.30956443580E+03  0.30956443580E+03  0.00000000000E+00 0. -1.
         21   -1    0    0  501  503 -0.00000000000E+00 -0.00000000000E+00 -0.23485319579E+03  0.23485319579E+03  0.00000000000E+00 0. -1.
          6    2    1    2  501    0 -0.38711397057E+02  0.32069839392E+02 -0.16358771965E+03  0.24441225603E+03  0.17449745562E+03 0.  0.
         24    2    3    3    0    0  0.15113106007E+01  0.63845491512E+02 -0.41063167833E+02  0.11151412182E+03  0.81674260118E+02 0.  0.
         -6    2    1    2    0  502  0.38711397057E+02 -0.32069839392E+02  0.23829895966E+03  0.30000537555E+03  0.17518500029E+03 0.  0.
        -24    2    5    5    0    0  0.56921991552E+02 -0.62021103757E+02  0.23768910068E+03  0.26463355178E+03  0.80299923485E+02 0.  0.
          5    1    3    3  501    0 -0.40222707658E+02 -0.31775652121E+02 -0.12252455182E+03  0.13289813421E+03  0.47000000000E+01 0. -1.
        -11    1    4    4    0    0 -0.88856396687E+00  0.18303636237E+02  0.25148168059E+02  0.31116603319E+02  0.00000000000E+00 0.  1.
         12    1    4    4    0    0  0.23998745675E+01  0.45541855276E+02 -0.66211335892E+02  0.80397518497E+02  0.00000000000E+00 0. -1.
         -5    1    5    5    0  502 -0.18210594495E+02  0.29951264366E+02  0.60985897585E+00  0.35371823772E+02  0.47000000000E+01 0.  1.
         13    1    6    6    0    0  0.25820213995E+02  0.11152621678E+02  0.11533534390E+03  0.11871523059E+03  0.00000000000E+00 0. -1.
        -14    1    6    6    0    0  0.31101777557E+02 -0.73173725435E+02  0.12235375679E+03  0.14591832120E+03  0.00000000000E+00 0.  1.
</event>
<event>
12    1  0.8500177E-002  0.2894774E+03  0.7818608E-02  0.1090636E+00
         21   -1    0    0  503  502  0.00000000000E+00  0.00000000000E+00  0.12073890313E+04  0.12073890313E+04  0.00000000000E+00 0. -1.
         21   -1    0    0  501  503 -0.00000000000E+00 -0.00000000000E+00 -0.10510784833E+03  0.10510784833E+03  0.00000000000E+00 0. -1.
          6    2    1    2  501    0 -0.15438132294E+03  0.17368543255E+03  0.16845392833E+03  0.33483104433E+03  0.17243804663E+03 0.  0.
         24    2    3    3    0    0 -0.15624412533E+03  0.17449805641E+03  0.98054385998E+02  0.26424552209E+03  0.73138464164E+02 0.  0.
         -6    2    1    2    0  502  0.15438132294E+03 -0.17368543255E+03  0.93382725459E+03  0.97766583525E+03  0.17261784856E+03 0.  0.
        -24    2    5    5    0    0  0.16672715824E+03 -0.16830278504E+03  0.92934394950E+03  0.96271315763E+03  0.83741713900E+02 0.  0.
          5    1    3    3  501    0  0.18628023926E+01 -0.81262385630E+00  0.70399542327E+02  0.70585522242E+02  0.47000000000E+01 0. -1.
        -11    1    4    4    0    0 -0.34605876390E+02  0.39452491158E+02 -0.90953796971E+01  0.53261540262E+02  0.00000000000E+00 0.  1.
         12    1    4    4    0    0 -0.12163824894E+03  0.13504556525E+03  0.10714976570E+03  0.21098398183E+03  0.00000000000E+00 0. -1.
         -5    1    5    5    0  502 -0.12345835302E+02 -0.53826475110E+01  0.44833050905E+01  0.14952677622E+02  0.47000000000E+01 0.  1.
         13    1    6    6    0    0  0.10210447858E+03 -0.11961363477E+03  0.74461212117E+03  0.76103873565E+03  0.00000000000E+00 0. -1.
        -14    1    6    6    0    0  0.64622679662E+02 -0.48689150272E+02  0.18473182834E+03  0.20167442198E+03  0.00000000000E+00 0.  1.
</event>
<event>
12    1  0.8500177E-002  0.1808057E+03  0.7818608E-02  0.1168117E+00
         21   -1    0    0  501  502  0.00000000000E+00  0.00000000000E+00  0.15216595131E+03  0.15216595131E+03  0.00000000000E+00 0. -1.
         21   -1    0    0  502  503 -0.00000000000E+00 -0.00000000000E+00 -0.60846804897E+03  0.60846804897E+03  0.00000000000E+00 0. -1.
         -6    2    1    2    0  503  0.56334692146E+02 -0.22359269249E+02 -0.53510021394E+03  0.56340359091E+03  0.16558331085E+03 0.  0.
        -24    2    3    3    0    0 -0.47032865896E+01 -0.60307541345E+02 -0.24652097088E+03  0.26597162267E+03  0.79430438350E+02 0.  0.
          6    2    1    2  501    0 -0.56334692146E+02  0.22359269249E+02  0.78798116275E+02  0.19723040937E+03  0.17034423028E+03 0.  0.
         24    2    5    5    0    0  0.10988490271E+02  0.61212333264E+02  0.34040613019E+02  0.10741228440E+03  0.80690388796E+02 0.  0.
          5    1    5    5  501    0 -0.67323182417E+02 -0.38853064016E+02  0.44757503256E+02  0.89818124963E+02  0.47000000000E+01 0. -1.
        -11    1    6    6    0    0 -0.80235138527E+01  0.71001583203E+02  0.53835891411E+01  0.71656015965E+02  0.00000000000E+00 0.  1.
         12    1    6    6    0    0  0.19012004123E+02 -0.97892499391E+01  0.28657023878E+02  0.35756268439E+02  0.00000000000E+00 0. -1.
         -5    1    3    3    0  503  0.61037978736E+02  0.37948272097E+02 -0.28857924307E+03  0.29743196824E+03  0.47000000000E+01 0.  1.
         13    1    4    4    0    0 -0.35153228901E+02 -0.59542306637E+02 -0.17934652006E+03  0.19221396942E+03  0.00000000000E+00 0. -1.
        -14    1    4    4    0    0  0.30449942311E+02 -0.76523470866E+00 -0.67174450821E+02  0.73757653257E+02  0.00000000000E+00 0.  1.
</event>
<event>
12    1  0.8500177E-002  0.2190537E+03  0.7818608E-02  0.1134842E+00
         21   -1    0    0  501  502  0.00000000000E+00  0.00000000000E+00  0.68553953784E+03  0.68553953784E+03  0.00000000000E+00 0.  1.
         21   -1    0    0  502  503 -0.00000000000E+00 -0.00000000000E+00 -0.14630982778E+03  0.14630982778E+03  0.00000000000E+00 0. -1.
         -6    2    1    2    0  503  0.10284649014E+02  0.13428638380E+03 -0.31217877183E+02  0.22126695668E+03  0.17275966943E+03 0.  0.
        -24    2    3    3    0    0 -0.48610127491E+01  0.12255539038E+01 -0.33451863378E+02  0.87245853049E+02  0.80421889331E+02 0.  0.
          6    2    1    2  501    0 -0.10284649014E+02 -0.13428638380E+03  0.57044758724E+03  0.61058240894E+03  0.17106087057E+03 0.  0.
         24    2    5    5    0    0  0.50680850916E+02 -0.38510675139E+02  0.29864278299E+03  0.31598145823E+03  0.81272069979E+02 0.  0.
          5    1    5    5  501    0 -0.60965499931E+02 -0.95775708664E+02  0.27180480425E+03  0.29460095072E+03  0.47000000000E+01 0. -1.
        -11    1    6    6    0    0  0.22913878487E+02  0.54704855999E+01  0.15729028443E+02  0.28326213580E+02  0.00000000000E+00 0.  1.
         12    1    6    6    0    0  0.27766972429E+02 -0.43981160739E+02  0.28291375455E+03  0.28765524465E+03  0.00000000000E+00 0. -1.
         -5    1    3    3    0  503  0.15145661763E+02  0.13306082990E+03  0.22339861950E+01  0.13402110363E+03  0.47000000000E+01 0.  1.
         11    1    4    4    0    0 -0.19435092709E+02  0.34805637462E+02 -0.31106362854E+02  0.50564424626E+02  0.00000000000E+00 0. -1.
        -12    1    4    4    0    0  0.14574079960E+02 -0.33580083558E+02 -0.23455005236E+01  0.36681428423E+02  0.00000000000E+00 0.  1.
</event>
<event>
12    1  0.8500177E-002  0.1860034E+03  0.7818608E-02  0.1162192E+00
         21   -1    0    0  503  502  0.00000000000E+00  0.00000000000E+00  0.47308320968E+03  0.47308320968E+03  0.00000000000E+00 0. -1.
         21   -1    0    0  501  503 -0.00000000000E+00 -0.00000000000E+00 -0.13870184650E+03  0.13870184650E+03  0.00000000000E+00 0. -1.
          6    2    1    2  501    0 -0.65891529626E+02 -0.20587535388E+02  0.37763924968E+03  0.42081773518E+03  0.17236769723E+03 0.  0.
         24    2    3    3    0    0 -0.21080483724E+02  0.52229599759E+02  0.17336055768E+03  0.19931775998E+03  0.80631064722E+02 0.  0.
         -6    2    1    2    0  502  0.65891529626E+02  0.20587535388E+02 -0.43257886508E+02  0.19096732100E+03  0.17271865173E+03 0.  0.
        -24    2    5    5    0    0  0.74207805427E+02 -0.14764624293E+02  0.11319351251E+02  0.12524289237E+03  0.99160787911E+02 0.  0.
          5    1    3    3  501    0 -0.44811045902E+02 -0.72817135147E+02  0.20427869201E+03  0.22149997520E+03  0.47000000000E+01 0. -1.
        -11    1    4    4    0    0  0.18715153005E+02  0.53949149539E+02  0.85075603363E+02  0.10246280289E+03  0.00000000000E+00 0.  1.
         12    1    4    4    0    0 -0.39795636729E+02 -0.17195497802E+01  0.88284954315E+02  0.96854957088E+02  0.00000000000E+00 0. -1.
         -5    1    5    5    0  502 -0.83162758013E+01  0.35352159681E+02 -0.54577237759E+02  0.65724428630E+02  0.47000000000E+01 0.  1.
         11    1    6    6    0    0 -0.48755047791E+01  0.29919326887E+02 -0.10036301445E+02  0.31932178362E+02  0.00000000000E+00 0. -1.
        -12    1    6    6    0    0  0.79083310206E+02 -0.44683951180E+02  0.21355652696E+02  0.93310714006E+02  0.00000000000E+00 0.  1.
</event>
<event>
12    1  0.8500177E-002  0.2052020E+03  0.7818608E-02  0.1145652E+00
         21   -1    0    0  501  502  0.00000000000E+00  0.00000000000E+00  0.23737285635E+03  0.23737285635E+03  0.00000000000E+00 0.  1.
         21   -1    0    0  502  503 -0.00000000000E+00 -0.00000000000E+00 -0.17855019164E+03  0.17855019164E+03  0.00000000000E+00 0. -1.
         -6    2    1    2    0  503 -0.10024838345E+03  0.47447542435E+02  0.66460217483E+01  0.20419149396E+03  0.17131546613E+03 0.  0.
        -24    2    3    3    0    0 -0.10452106846E+03 -0.12832988211E+02 -0.24750317782E+02  0.13592863182E+03  0.82308416209E+02 0.  0.
          6    2    1    2  501    0  0.10024838345E+03 -0.47447542435E+02  0.52176642960E+02  0.21173155403E+03  0.17264657898E+03 0.  0.
         24    2    5    5    0    0  0.48957317010E+02  0.41066328690E+02  0.33737855261E+02  0.10767600266E+03  0.79828669232E+02 0.  0.
          5    1    5    5  501    0  0.51291066435E+02 -0.88513871125E+02  0.18438787699E+02  0.10405555136E+03  0.47000000000E+01 0. -1.
        -13    1    6    6    0    0  0.39184435730E+02  0.23021973727E+01  0.50810379701E+02  0.64206033996E+02  0.00000000000E+00 0.  1.
         14    1    6    6    0    0  0.97728812808E+01  0.38764131317E+02 -0.17072524440E+02  0.43469968669E+02  0.00000000000E+00 0. -1.
         -5    1    3    3    0  503  0.42726850153E+01  0.60280530646E+02  0.31396339530E+02  0.68262862145E+02  0.47000000000E+01 0.  1.
         13    1    4    4    0    0 -0.31267863192E+02  0.75037133664E+01 -0.46790526124E+02  0.56774451277E+02  0.00000000000E+00 0. -1.
        -14    1    4    4    0    0 -0.73253205269E+02 -0.20336701577E+02  0.22040208342E+02  0.79154180541E+02  0.00000000000E+00 0.  1.
</event>
<event>
12    1  0.8500177E-002  0.1796133E+03  0.7818608E-02  0.1168929E+00
         21   -1    0    0  501  502  0.00000000000E+00  0.00000000000E+00  0.11283011363E+03  0.11283011363E+03  0.00000000000E+00 0. -1.
         21   -1    0    0  502  503 -0.00000000000E+00 -0.00000000000E+00 -0.33727909949E+03  0.33727909949E+03  0.00000000000E+00 0. -1.
         -6    2    1    2    0  503 -0.38688351021E+02 -0.15668275427E+02 -0.20490617720E+03  0.27248390729E+03  0.17469589266E+03 0.  0.
        -24    2    3    3    0    0 -0.90767682756E+02  0.95431992734E+01 -0.15756505723E+03  0.19757631828E+03  0.76679915227E+02 0.  0.
          6    2    1    2  501    0  0.38688351021E+02  0.15668275427E+02 -0.19542808651E+02  0.17762530583E+03  0.17154166999E+03 0.  0.
         24    2    5    5    0    0  0.80643496189E+02  0.35319379508E+02  0.22508736069E+02  0.11488120244E+03  0.70286666073E+02 0.  0.
          5    1    5    5  501    0 -0.41955145168E+02 -0.19651104081E+02 -0.42051544719E+02  0.62744103396E+02  0.47000000000E+01 0. -1.
        -11    1    6    6    0    0 -0.15265807068E+01 -0.14142741733E+02 -0.50453907158E+01  0.15093162686E+02  0.00000000000E+00 0.  1.
         12    1    6    6    0    0  0.82170076895E+02  0.49462121241E+02  0.27554126784E+02  0.99788039752E+02  0.00000000000E+00 0. -1.
         -5    1    3    3    0  503  0.52079331735E+02 -0.25211474701E+02 -0.47341119976E+02  0.74907589009E+02  0.47000000000E+01 0.  1.
         11    1    4    4    0    0 -0.23510807701E+02 -0.24887487272E+02 -0.89714031050E+02  0.96024749251E+02  0.00000000000E+00 0. -1.
        -12    1    4    4    0    0 -0.67256875055E+02  0.34430686545E+02 -0.67851026178E+02  0.10155156903E+03  0.00000000000E+00 0.  1.
</event>
<event>
12    1  0.8500177E-002  0.2188505E+03  0.7818608E-02  0.1134988E+00
         21   -1    0    0  503  502  0.00000000000E+00  0.00000000000E+00  0.53264365553E+02  0.53264365553E+02  0.00000000000E+00 0. -1.
         21   -1    0    0  501  503 -0.00000000000E+00 -0.00000000000E+00 -0.15893751734E+04  0.15893751734E+04  0.00000000000E+00 0.  1.
          6    2    1    2  501    0  0.13261172720E+03 -0.89968798287E+01 -0.13126561440E+04  0.13307748487E+04  0.17386411791E+03 0.  0.
         24    2    3    3    0    0  0.26238444346E+02  0.46226875514E+02 -0.56630258464E+03  0.57484451855E+03  0.83199898785E+02 0.  0.
         -6    2    1    2    0  502 -0.13261172720E+03  0.89968798287E+01 -0.22345466386E+03  0.31186469027E+03  0.17222306524E+03 0.  0.
        -24    2    5    5    0    0 -0.13651655847E+03 -0.44177530045E+02 -0.15352520765E+03  0.22380230092E+03  0.77000361133E+02 0.  0.
          5    1    3    3  501    0  0.10637328285E+03 -0.55223755343E+02 -0.74635355935E+03  0.75593033013E+03  0.47000000000E+01 0. -1.
        -13    1    4    4    0    0 -0.13086061696E+02  0.33872503281E+02 -0.44982995745E+03  0.45129323296E+03  0.00000000000E+00 0.  1.
         14    1    4    4    0    0  0.39324506042E+02  0.12354372233E+02 -0.11647262719E+03  0.12355128560E+03  0.00000000000E+00 0. -1.
         -5    1    5    5    0  502  0.39048312704E+01  0.53174409874E+02 -0.69929456204E+02  0.88062389348E+02  0.47000000000E+01 0.  1.
         13    1    6    6    0    0 -0.91962397037E+02  0.78513693039E+01 -0.70346229513E+02  0.11604877628E+03  0.00000000000E+00 0. -1.
        -14    1    6    6    0    0 -0.44554161433E+02 -0.52028899349E+02 -0.83178978138E+02  0.10775352464E+03  0.00000000000E+00 0.  1.
</event>
<event>
12    1  0.8500177E-002  0.1912707E+03  0.7818608E-02  0.1157743E+00
         21   -1    0    0  503  502  0.00000000000E+00  0.00000000000E+00  0.16817678872E+03  0.16817678872E+03  0.00000000000E+00 0.  1.
         21   -1    0    0  501  503 -0.00000000000E+00 -0.00000000000E+00 -0.21902402921E+03  0.21902402921E+03  0.00000000000E+00 0.  1.
          6    2    1    2  501    0 -0.84190164876E+02  0.13125109743E+02 -0.50191303766E+02  0.19592902914E+03  0.16914125788E+03 0.  0.
         24    2    3    3    0    0 -0.32074759242E+01 -0.27997456740E+02 -0.59128627628E+02  0.10454398035E+03  0.81480695485E+02 0.  0.
         -6    2    1    2    0  502  0.84190164876E+02 -0.13125109743E+02 -0.65593673033E+00  0.19127178879E+03  0.17124314459E+03 0.  0.
        -24    2    5    5    0    0  0.53704304439E+02 -0.65636788472E+02 -0.22529964993E+02  0.12656145576E+03  0.91202316003E+02 0.  0.
          5    1    3    3  501    0 -0.80982688951E+02  0.41122566483E+02  0.89373238624E+01  0.91385048787E+02  0.47000000000E+01 0. -1.
        -11    1    4    4    0    0  0.45270346158E+01 -0.54676314999E+02 -0.52610160228E+02  0.76011988683E+02  0.00000000000E+00 0.  1.
         12    1    4    4    0    0 -0.77345105400E+01  0.26678858259E+02 -0.65184674003E+01  0.28531991668E+02  0.00000000000E+00 0. -1.
         -5    1    5    5    0  502  0.30485860437E+02  0.52511678728E+02  0.21874028262E+02  0.64710333038E+02  0.47000000000E+01 0.  1.
         13    1    6    6    0    0  0.13241779716E+02 -0.78326815921E+02 -0.27045300867E+02  0.83915928890E+02  0.00000000000E+00 0. -1.
        -14    1    6    6    0    0  0.40462524723E+02  0.12690027450E+02  0.45153358745E+01  0.42645526866E+02  0.00000000000E+00 0.  1.
</event>
<event>
12    1  0.8500177E-002  0.1923892E+03  0.7818608E-02  0.1156988E+00
         21   -1    0    0  501  502  0.00000000000E+00  0.00000000000E+00  0.10125716154E+04  0.10125716154E+04  0.00000000000E+00 0.  1.
         21   -1    0    0  502  503 -0.00000000000E+00 -0.00000000000E+00 -0.42394878005E+02  0.42394878005E+02  0.00000000000E+00 0.  1.
         -6    2    1    2    0  503  0.74618465242E+02  0.24076069899E+02  0.68686710056E+03  0.71250779986E+03  0.17243369315E+03 0.  0.
        -24    2    3    3    0    0 -0.80407462929E+00 -0.40693095914E+02  0.28026630459E+03  0.29390309176E+03  0.78570040510E+02 0.  0.
          6    2    1    2  501    0 -0.74618465242E+02 -0.24076069899E+02  0.28330963685E+03  0.34245869356E+03  0.17568731874E+03 0.  0.
         24    2    5    5    0    0 -0.15047102842E+02  0.43196255215E+02  0.82730500791E+02  0.12262149751E+03  0.78098425863E+02 0.  0.
          5    1    5    5  501    0 -0.59571362401E+02 -0.67272325115E+02  0.20057913606E+03  0.21983719605E+03  0.47000000000E+01 0. -1.
        -11    1    6    6    0    0 -0.24468743558E+02  0.40300855010E+02  0.95491899147E+02  0.10649685971E+03  0.00000000000E+00 0.  1.
         12    1    6    6    0    0  0.94216407168E+01  0.28954002052E+01 -0.12761398356E+02  0.16124637799E+02  0.00000000000E+00 0. -1.
         -5    1    3    3    0  503  0.75422539872E+02  0.64769165813E+02  0.40660079596E+03  0.41860470809E+03  0.47000000000E+01 0.  1.
         11    1    4    4    0    0  0.26243760075E+02 -0.42484702177E+02  0.10178342392E+03  0.11337349888E+03  0.00000000000E+00 0. -1.
        -12    1    4    4    0    0 -0.27047834704E+02  0.17916062631E+01  0.17848288067E+03  0.18052959289E+03  0.00000000000E+00 0.  1.
</event>
<event>
12    1  0.8500177E-002  0.1896204E+03  0.7818608E-02  0.1158811E+00
         21   -1    0    0  501  502  0.00000000000E+00  0.00000000000E+00  0.10159408764E+03  0.10159408764E+03  0.00000000000E+00 0.  1.
         21   -1    0    0  502  503 -0.00000000000E+00 -0.00000000000E+00 -0.40099956381E+03  0.40099956381E+03  0.00000000000E+00 0.  1.
         -6    2    1    2    0  503 -0.38953851960E+02  0.70257513629E+02 -0.23587214093E+03  0.30264096028E+03  0.17176251968E+03 0.  0.
        -24    2    3    3    0    0  0.42731224500E+02  0.51931761405E+02 -0.14044872715E+03  0.17561339316E+03  0.81187151132E+02 0.  0.
          6    2    1    2  501    0  0.38953851960E+02 -0.70257513629E+02 -0.63533335240E+02  0.19995269116E+03  0.17172965153E+03 0.  0.
         24    2    5    5    0    0  0.19053306635E+02 -0.38801159236E+02  0.38700484703E+02  0.91051920386E+02  0.70172403678E+02 0.  0.
          5    1    5    5  501    0  0.19900545325E+02 -0.31456354393E+02 -0.10223381994E+03  0.10890077078E+03  0.47000000000E+01 0. -1.
        -13    1    6    6    0    0  0.41185455026E+02 -0.61797181947E+01  0.28069935060E+02  0.50223021384E+02  0.00000000000E+00 0.  1.
         14    1    6    6    0    0 -0.22132148391E+02 -0.32621441041E+02  0.10630549643E+02  0.40828899002E+02  0.00000000000E+00 0. -1.
         -5    1    3    3    0  503 -0.81685076459E+02  0.18325752224E+02 -0.95423413783E+02  0.12702756712E+03  0.47000000000E+01 0.  1.
         13    1    4    4    0    0  0.54051941665E+02  0.18047622518E+02 -0.41734819746E+02  0.70633733128E+02  0.00000000000E+00 0. -1.
        -14    1    4    4    0    0 -0.11320717166E+02  0.33884138887E+02 -0.98713907404E+02  0.10497966003E+03  0.00000000000E+00 0.  1.
</event>
<event>
12    1  0.8500177E-002  0.1835527E+03  0.7818608E-02  0.1166006E+00
         21   -1    0    0  501  502  0.00000000000E+00  0.00000000000E+00  0.35812433054E+02  0.35812433054E+02  0.00000000000E+00 0.  1.
         21   -1    0    0  502  503 -0.00000000000E+00 -0.00000000000E+00 -0.12760680016E+04  0.12760680016E+04  0.00000000000E+00 0.  1.
         -6    2    1    2    0  503  0.40341076402E+02  0.59335277970E+01 -0.96470278710E+03  0.98078993997E+03  0.17214769739E+03 0.  0.
        -24    2    3    3    0    0 -0.35402842269E+02  0.65368624835E+01 -0.68288283718E+03  0.68893024868E+03  0.83664965314E+02 0.  0.
          6    2    1    2  501    0 -0.40341076402E+02 -0.59335277970E+01 -0.27555278149E+03  0.33109049473E+03  0.17896639660E+03 0.  0.
         24    2    5    5    0    0  0.47944241117E+02 -0.20312815165E+02 -0.16121553023E+03  0.18584532882E+03  0.76398811107E+02 0.  0.
          5    1    5    5  501    0 -0.88285317519E+02  0.14379287368E+02 -0.11433725126E+03  0.14524516591E+03  0.47000000000E+01 0. -1.
        -11    1    6    6    0    0  0.11385202228E+02 -0.38496305106E+02 -0.12492731816E+03  0.13121898932E+03  0.00000000000E+00 0.  1.
         12    1    6    6    0    0  0.36559038889E+02  0.18183489941E+02 -0.36288212074E+02  0.54626339493E+02  0.00000000000E+00 0. -1.
         -5    1    3    3    0  503  0.75743918671E+02 -0.60333468651E+00 -0.28181994992E+03  0.29185969130E+03  0.47000000000E+01 0.  1.
         13    1    4    4    0    0 -0.52238738705E+02  0.17342857903E+02 -0.26949198312E+03  0.27505561167E+03  0.00000000000E+00 0. -1.
        -14    1    4    4    0    0  0.16835896437E+02 -0.10805995419E+02 -0.41339085405E+03  0.41387463701E+03  0.00000000000E+00 0.  1.
</event>
<event>
12    1  0.8500177E-002  0.2054256E+03  0.7818608E-02  0.1145452E+00
         21   -1    0    0  501  502  0.00000000000E+00  0.00000000000E+00  0.30352906896E+03  0.30352906896E+03  0.00000000000E+00 0. -1.
         21   -1    0    0  502  503 -0.00000000000E+00 -0.00000000000E+00 -0.14527775297E+03  0.14527775297E+03  0.00000000000E+00 0. -1.
         -6    2    1    2    0  503  0.33677119035E+02  0.10890000277E+03  0.30247115533E+02  0.20764044191E+03  0.17089852593E+03 0.  0.
        -24    2    3    3    0    0  0.27434661337E+02  0.39741729399E+02 -0.46272762212E+02  0.10420342366E+03  0.79906941381E+02 0.  0.
          6    2    1    2  501    0 -0.33677119035E+02 -0.10890000277E+03  0.12800420046E+03  0.24116638003E+03  0.16965491024E+03 0.  0.
         24    2    5    5    0    0  0.29530846667E+02 -0.37028297675E+02  0.20403305245E+02  0.97080185083E+02  0.82250238524E+02 0.  0.
          5    1    5    5  501    0 -0.63207965702E+02 -0.71871705096E+02  0.10760089522E+03  0.14408619494E+03  0.47000000000E+01 0. -1.
        -13    1    6    6    0    0  0.26653751506E+00  0.25109438717E+02 -0.10230480365E+01  0.25131684827E+02  0.00000000000E+00 0.  1.
         14    1    6    6    0    0  0.29264309152E+02 -0.62137736393E+02  0.21426353281E+02  0.71948500256E+02  0.00000000000E+00 0. -1.
         -5    1    3    3    0  503  0.62424576982E+01  0.69158273373E+02  0.76519877744E+02  0.10343701825E+03  0.47000000000E+01 0.  1.
         13    1    4    4    0    0  0.53218463098E+02  0.24080567010E+02 -0.14082322195E+02  0.60086523617E+02  0.00000000000E+00 0. -1.
        -14    1    4    4    0    0 -0.25783801761E+02  0.15661162388E+02 -0.32190440017E+02  0.44116900040E+02  0.00000000000E+00 0.  1.
</event>
<event>
12    1  0.8500177E-002  0.1982451E+03  0.7818608E-02  0.1151882E+00
         21   -1    0    0  503  502  0.00000000000E+00  0.00000000000E+00  0.18575580524E+03  0.18575580524E+03  0.00000000000E+00 0. -1.
         21   -1    0    0  501  503 -0.00000000000E+00 -0.00000000000E+00 -0.27224911636E+03  0.27224911636E+03  0.00000000000E+00 0. -1.
          6    2    1    2  501    0 -0.43534135990E+02  0.83086754553E+02 -0.15445174842E+03  0.25130950275E+03  0.17464963157E+03 0.  0.
         24    2    3    3    0    0 -0.24462138020E+02  0.78143408617E+01 -0.15156417332E+03  0.17346282357E+03  0.80362879546E+02 0.  0.
         -6    2    1    2    0  502  0.43534135990E+02 -0.83086754553E+02  0.67958437289E+02  0.20669541885E+03  0.17119000320E+03 0.  0.
        -24    2    5    5    0    0  0.21076874148E+02 -0.80959992442E+02  0.10981857656E+03  0.15891244085E+03  0.78703806126E+02 0.  0.
          5    1    3    3  501    0 -0.19071997970E+02  0.75272413691E+02 -0.28875750998E+01  0.77846679181E+02  0.47000000000E+01 0. -1.
        -11    1    4    4    0    0  0.97276676344E+01  0.10803683084E+01  0.64042852586E+01  0.11696562870E+02  0.00000000000E+00 0.  1.
         12    1    4    4    0    0 -0.34189805655E+02  0.67339725532E+01 -0.15796845858E+03  0.16176626070E+03  0.00000000000E+00 0. -1.
         -5    1    5    5    0  502  0.22457261842E+02 -0.21267621110E+01 -0.41860139271E+02  0.47782977998E+02  0.47000000000E+01 0.  1.
         11    1    6    6    0    0  0.20697369489E+02 -0.96574520387E+02  0.89517548627E+02  0.13329820180E+03  0.00000000000E+00 0. -1.
        -12    1    6    6    0    0  0.37950465877E+00  0.15614527945E+02  0.20301027933E+02  0.25614239046E+02  0.00000000000E+00 0.  1.
</event>
<event>
12    1  0.8500177E-002  0.3106153E+03  0.7818608E-02  0.1080230E+00
         21   -1    0    0  503  502  0.00000000000E+00  0.00000000000E+00  0.65272568653E+03  0.65272568653E+03  0.00000000000E+00 0. -1.
         21   -1    0    0  501  503 -0.00000000000E+00 -0.00000000000E+00 -0.14907525347E+03  0.14907525347E+03  0.00000000000E+00 0.  1.
          6    2    1    2  501    0 -0.58490947010E+02 -0.25186415828E+03  0.20631835573E+03  0.37289295944E+03  0.17211958105E+03 0.  0.
         24    2    3    3    0    0 -0.47563281472E+02 -0.26694032038E+03  0.16569848893E+03  0.32796225595E+03  0.81140937295E+02 0.  0.
         -6    2    1    2    0  502  0.58490947010E+02  0.25186415828E+03  0.29733207734E+03  0.42890798057E+03  0.16940763404E+03 0.  0.
        -24    2    5    5    0    0  0.31740200780E+02  0.45030666929E+02  0.60980278836E+02  0.11366211109E+03  0.78519295592E+02 0.  0.
          5    1    3    3  501    0 -0.10927665538E+02  0.15076162099E+02  0.40619866792E+02  0.44930703488E+02  0.47000000000E+01 0. -1.
        -13    1    4    4    0    0 -0.61247824120E+02 -0.14169520462E+03  0.68724273347E+02  0.16897293487E+03  0.00000000000E+00 0.  1.
         14    1    4    4    0    0  0.13684542647E+02 -0.12524511575E+03  0.96974215587E+02  0.15898932108E+03  0.00000000000E+00 0. -1.
         -5    1    5    5    0  502  0.26750746230E+02  0.20683349135E+03  0.23635179850E+03  0.31524586948E+03  0.47000000000E+01 0.  1.
         11    1    6    6    0    0 -0.20091596767E+01  0.16452043539E+02  0.67009713865E+02  0.69029038900E+02  0.00000000000E+00 0. -1.
        -12    1    6    6    0    0  0.33749360457E+02  0.28578623390E+02 -0.60294350288E+01  0.44633072187E+02  0.00000000000E+00 0.  1.
</event>
<event>
12    1  0.8500177E-002  0.2689840E+03  0.7818608E-02  0.1102147E+00
         21   -1    0    0  501  502  0.00000000000E+00  0.00000000000E+00  0.41979549635E+02  0.41979549635E+02  0.00000000000E+00 0.  1.
         21   -1    0    0  502  503 -0.00000000000E+00 -0.00000000000E+00 -0.17209461635E+04  0.17209461635E+04  0.00000000000E+00 0.  1.
         -6    2    1    2    0  503 -0.19375505974E+03  0.63962335641E+02 -0.90371199471E+03  0.94233317854E+03  0.17223311657E+03 0.  0.
        -24    2    3    3    0    0 -0.50292407862E+02  0.11175195502E+02 -0.53263019494E+03  0.54097074038E+03  0.79373837637E+02 0.  0.
          6    2    1    2  501    0  0.19375505974E+03 -0.63962335641E+02 -0.77525461917E+03  0.82059253461E+03  0.17527173119E+03 0.  0.
         24    2    5    5    0    0  0.18958737144E+03 -0.38587484267E+01 -0.57087800292E+03  0.60746885668E+03  0.84607660845E+02 0.  0.
          5    1    5    5  501    0  0.41676882963E+01 -0.60103587214E+02 -0.20437661625E+03  0.21312367792E+03  0.47000000000E+01 0. -1.
        -11    1    6    6    0    0  0.32017114680E+02 -0.33888471437E+02 -0.10989792677E+03  0.11937788085E+03  0.00000000000E+00 0.  1.
         12    1    6    6    0    0  0.15757025676E+03  0.30029723010E+02 -0.46098007615E+03  0.48809097583E+03  0.00000000000E+00 0. -1.
         -5    1    3    3    0  503 -0.14346265188E+03  0.52787140139E+02 -0.37108179977E+03  0.40136243816E+03  0.47000000000E+01 0.  1.
         11    1    4    4    0    0 -0.11084546520E+01 -0.26417901084E+02 -0.83290917988E+02  0.87387134000E+02  0.00000000000E+00 0. -1.
        -12    1    4    4    0    0 -0.49183953210E+02  0.37593096586E+02 -0.44933927695E+03  0.45358360638E+03  0.00000000000E+00 0.  1.
</event>
<event>
12    1  0.8500177E-002  0.1961322E+03  0.7818608E-02  0.1153277E+00
         21   -1    0    0  503  502  0.00000000000E+00  0.00000000000E+00  0.31495178822E+02  0.31495178822E+02  0.00000000000E+00 0.  1.
         21   -1    0    0  501  503 -0.00000000000E+00 -0.00000000000E+00 -0.18498315832E+04  0.18498315832E+04  0.00000000000E+00 0. -1.
          6    2    1    2  501    0 -0.39117572959E+02 -0.87768359251E+02 -0.14619971293E+04  0.14750943808E+04  0.17098057407E+03 0.  0.
         24    2    3    3    0    0 -0.64534831574E+02 -0.11218283804E+03 -0.97052991182E+03  0.98234269923E+03  0.79492989308E+02 0.  0.
         -6    2    1    2    0  502  0.39117572959E+02  0.87768359251E+02 -0.35633927509E+03  0.40623238126E+03  0.16974568982E+03 0.  0.
        -24    2    5    5    0    0 -0.49447714663E+01  0.10662246854E+03 -0.31761819872E+03  0.34443934453E+03  0.79776815795E+02 0.  0.
          5    1    3    3  501    0  0.25417258615E+02  0.24414478789E+02 -0.49146721748E+03  0.49275168155E+03  0.47000000000E+01 0. -1.
        -11    1    4    4    0    0  0.28851990166E+01  0.66262204021E+01 -0.11158891655E+02  0.13294812265E+02  0.00000000000E+00 0.  1.
         12    1    4    4    0    0 -0.67420030591E+02 -0.11880905844E+03 -0.95937102017E+03  0.96904788696E+03  0.00000000000E+00 0. -1.
         -5    1    5    5    0  502  0.44062344426E+02 -0.18854109287E+02 -0.38721076363E+02  0.61793036728E+02  0.47000000000E+01 0.  1.
         13    1    6    6    0    0 -0.11867640124E+02 -0.14440029767E+01 -0.10650152444E+03  0.10717042846E+03  0.00000000000E+00 0. -1.
        -14    1    6    6    0    0  0.69228686580E+01  0.10806647151E+03 -0.21111667428E+03  0.23726891607E+03  0.00000000000E+00 0.  1.
</event>
<event>
12    1  0.8500177E-002  0.1753351E+03  0.7818608E-02  0.1174379E+00
         21   -1    0    0  503  502  0.00000000000E+00  0.00000000000E+00  0.19490202587E+03  0.19490202587E+03  0.00000000000E+00 0.  1.
         21   -1    0    0  501  503 -0.00000000000E+00 -0.00000000000E+00 -0.16394304468E+03  0.16394304468E+03  0.00000000000E+00 0.  1.
          6    2    1    2  501    0 -0.44513920079E+01  0.45472616374E+02 -0.35525664049E+02  0.17132808865E+03  0.16125652676E+03 0.  0.
         24    2    3    3    0    0 -0.58554831741E+02  0.11857180500E+02 -0.43302993604E+02  0.10698714853E+03  0.77471540880E+02 0.  0.
         -6    2    1    2    0  502  0.44513920079E+01 -0.45472616374E+02  0.66484645243E+02  0.18751698190E+03  0.16927739576E+03 0.  0.
        -24    2    5    5    0    0  0.28025733089E+01  0.37933565382E+02  0.54655497304E+02  0.10312901771E+03  0.78749991167E+02 0.  0.
          5    1    3    3  501    0  0.54103439733E+02  0.33615435874E+02  0.77773295548E+01  0.64340940115E+02  0.47000000000E+01 0. -1.
        -11    1    4    4    0    0 -0.62484103130E+01 -0.18242457704E+02 -0.42459119149E+02  0.46632678385E+02  0.00000000000E+00 0.  1.
         12    1    4    4    0    0 -0.52306421428E+02  0.30099638204E+02 -0.84387445565E+00  0.60354470147E+02  0.00000000000E+00 0. -1.
         -5    1    5    5    0  502  0.16488186990E+01 -0.83406181756E+02  0.11829147939E+02  0.84387964185E+02  0.47000000000E+01 0.  1.
         11    1    6    6    0    0 -0.24722837331E+02  0.11396313959E+02 -0.91713687505E+01  0.28726445348E+02  0.00000000000E+00 0. -1.
        -12    1    6    6    0    0  0.27525410640E+02  0.26537251423E+02  0.63826866055E+02  0.74402572364E+02  0.00000000000E+00 0.  1.
</event>
<event>
12    1  0.8500177E-002  0.1985002E+03  0.7818608E-02  0.1152333E+00
         21   -1    0    0  501  502  0.00000000000E+00  0.00000000000E+00  0.82725437779E+02  0.82725437779E+02  0.00000000000E+00 0. -1.
         21   -1    0    0  502  503 -0.00000000000E+00 -0.00000000000E+00 -0.86797207298E+03  0.86797207298E+03  0.00000000000E+00 0. -1.
         -6    2    1    2    0  503  0.80451182523E+02 -0.35638086439E+02 -0.72104927070E+03  0.74787323860E+03  0.17793219009E+03 0.  0.
        -24    2    3    3    0    0  0.62760133832E+02 -0.80343653735E+01 -0.17419977161E+03  0.20002161336E+03  0.75230977390E+02 0.  0.
          6    2    1    2  501    0 -0.80451182523E+02  0.35638086439E+02 -0.64197364508E+02  0.20282427216E+03  0.17109622378E+03 0.  0.
         24    2    5    5    0    0 -0.33735549740E+02 -0.31265269638E+02 -0.10188563882E+02  0.10485769650E+03  0.93678841157E+02 0.  0.
          5    1    5    5  501    0 -0.46715632783E+02  0.66903356077E+02 -0.54008800626E+02  0.97966575656E+02  0.47000000000E+01 0. -1.
        -11    1    6    6    0    0 -0.26574688941E+02  0.24430047568E+02 -0.28285681939E+02  0.45859798508E+02  0.00000000000E+00 0.  1.
         12    1    6    6    0    0 -0.71608607989E+01 -0.55695317206E+02  0.18097118057E+02  0.58997897996E+02  0.00000000000E+00 0. -1.
         -5    1    3    3    0  503  0.17691048691E+02 -0.27603721066E+02 -0.54684949909E+03  0.54785162524E+03  0.47000000000E+01 0.  1.
         13    1    4    4    0    0  0.67407334200E+02 -0.20728926750E+02 -0.17254696967E+03  0.18640250495E+03  0.00000000000E+00 0. -1.
        -14    1    4    4    0    0 -0.46472003677E+01  0.12694561376E+02 -0.16528019354E+01  0.13619108416E+02  0.00000000000E+00 0.  1.
</event>
<event>
12    1  0.8500177E-002  0.1766604E+03  0.7818608E-02  0.1171466E+00
         21   -1    0    0  503  502  0.00000000000E+00  0.00000000000E+00  0.63995232603E+02  0.63995232603E+02  0.00000000000E+00 0.  1.
         21   -1    0    0  501  503 -0.00000000000E+00 -0.00000000000E+00 -0.48645043592E+03  0.48645043592E+03  0.00000000000E+00 0.  1.
          6    2    1    2  501    0 -0.38108378705E+02 -0.57413892192E-02 -0.19018794218E+03  0.25957725316E+03  0.17250115491E+03 0.  0.
         24    2    3    3    0    0  0.15569560072E+02 -0.25021945242E+02 -0.18021888829E+03  0.19933936141E+03  0.79930121766E+02 0.  0.
         -6    2    1    2    0  502  0.38108378705E+02  0.57413892192E-02 -0.23226726114E+03  0.29086841537E+03  0.17089208847E+03 0.  0.
        -24    2    5    5    0    0 -0.42814743995E+02  0.47605218739E+01 -0.94111414058E+02  0.13061771238E+03  0.79675991741E+02 0.  0.
          5    1    3    3  501    0 -0.53677938776E+02  0.25016203853E+02 -0.99690538851E+01  0.60237891745E+02  0.47000000000E+01 0. -1.
        -11    1    4    4    0    0 -0.25690252202E+02 -0.71585480734E+01 -0.21147365175E+02  0.34035935753E+02  0.00000000000E+00 0.  1.
         12    1    4    4    0    0  0.41259812273E+02 -0.17863397169E+02 -0.15907152312E+03  0.16530342566E+03  0.00000000000E+00 0. -1.
         -5    1    5    5    0  502  0.80923122700E+02 -0.47547804847E+01 -0.13815584708E+03  0.16025070299E+03  0.47000000000E+01 0.  1.
         11    1    6    6    0    0 -0.90239429218E+01  0.33129962689E+02 -0.10210066218E+02  0.35822778030E+02  0.00000000000E+00 0. -1.
        -12    1    6    6    0    0 -0.33790801074E+02 -0.28369440815E+02 -0.83901347840E+02  0.94794934351E+02  0.00000000000E+00 0.  1.
</event>
<event>
12    1  0.8500177E-002  0.2230953E+03  0.7818608E-02  0.1131752E+00
         21   -1    0    0  501  502  0.00000000000E+00  0.00000000000E+00  0.18922044379E+03  0.18922044379E+03  0.00000000000E+00 0. -1.
         21   -1    0    0  502  503 -0.00000000000E+00 -0.00000000000E+00 -0.30837696124E+03  0.30837696124E+03  0.00000000000E+00 0.  1.
         -6    2    1    2    0  503  0.14106322597E+03  0.26680478011E+02 -0.15592869954E+03  0.27149184425E+03  0.16965665483E+03 0.  0.
        -24    2    3    3    0    0  0.34447872920E+02 -0.30447783544E+02 -0.35291757726E+02  0.10059470120E+03  0.82219597874E+02 0.  0.
          6    2    1    2  501    0 -0.14106322597E+03 -0.26680478011E+02  0.36772182087E+02  0.22610556078E+03  0.17076548133E+03 0.  0.
         24    2    5    5    0    0 -0.31332739085E+02 -0.18923686657E+02 -0.34390999554E+02  0.95005461679E+02  0.80643973385E+02 0.  0.
          5    1    5    5  501    0 -0.10973048688E+03 -0.77567913537E+01  0.71163181640E+02  0.13110009910E+03  0.47000000000E+01 0. -1.
        -13    1    6    6    0    0  0.12487021769E+01 -0.45365512146E+02 -0.25698454941E+02  0.52153614791E+02  0.00000000000E+00 0.  1.
         14    1    6    6    0    0 -0.32581441262E+02  0.26441825489E+02 -0.86925446123E+01  0.42851846888E+02  0.00000000000E+00 0. -1.
         -5    1    3    3    0  503  0.10661535304E+03  0.57128261555E+02 -0.12063694181E+03  0.17089714305E+03  0.47000000000E+01 0.  1.
         11    1    4    4    0    0  0.54770918061E+02 -0.29735391121E+02 -0.46143135903E+02  0.77545057491E+02  0.00000000000E+00 0. -1.
        -12    1    4    4    0    0 -0.20323045140E+02 -0.71239242322E+00  0.10851378178E+02  0.23049643709E+02  0.00000000000E+00 0.  1.
</event>
<event>
12    1  0.8500177E-002  0.1884538E+03  0.7818608E-02  0.1160107E+00
         21   -1    0    0  503  502  0.00000000000E+00  0.00000000000E+00  0.23528846363E+03  0.23528846363E+03  0.00000000000E+00 0.  1.
         21   -1    0    0  501  503 -0.00000000000E+00 -0.00000000000E+00 -0.56743706879E+03  0.56743706879E+03  0.00000000000E+00 0.  1.
          6    2    1    2  501    0  0.37522189038E+02  0.65677000701E+02 -0.51041242712E+03  0.54409160618E+03  0.17260778391E+03 0.  0.
         24    2    3    3    0    0  0.89326624245E+01 -0.17088471672E+02 -0.13911291531E+03  0.16257764586E+03  0.81897981694E+02 0.  0.
         -6    2    1    2    0  502 -0.37522189038E+02 -0.65677000701E+02  0.17826382195E+03  0.25863392624E+03  0.17144134417E+03 0.  0.
        -24    2    5    5    0    0 -0.16681990054E+02 -0.43441577131E+02  0.17285623777E+02  0.94729081150E+02  0.80680521877E+02 0.  0.
          5    1    3    3  501    0  0.28589526613E+02  0.82765472374E+02 -0.37129951181E+03  0.38151396032E+03  0.47000000000E+01 0. -1.
        -11    1    4    4    0    0  0.65199669169E+01  0.31690345524E+02 -0.77310461875E+02  0.83807490616E+02  0.00000000000E+00 0.  1.
         12    1    4    4    0    0  0.24126955076E+01 -0.48778817196E+02 -0.61802453436E+02  0.78770155246E+02  0.00000000000E+00 0. -1.
         -5    1    5    5    0  502 -0.20840198984E+02 -0.22235423570E+02  0.16097819818E+03  0.16390484509E+03  0.47000000000E+01 0.  1.
         13    1    6    6    0    0 -0.17460654314E+02 -0.49333240214E+02  0.43375352916E+02  0.67971054719E+02  0.00000000000E+00 0. -1.
        -14    1    6    6    0    0  0.77866425995E+00  0.58916630830E+01 -0.26089729139E+02  0.26758026431E+02  0.00000000000E+00 0.  1.
</event>
<event>
12    1  0.8500177E-002  0.1739623E+03  0.7818608E-02  0.1173899E+00
         21   -1    0    0  501  502  0.00000000000E+00  0.00000000000E+00  0.46610293029E+03  0.46610293029E+03  0.00000000000E+00 0. -1.
         21   -1    0    0  502  503 -0.00000000000E+00 -0.00000000000E+00 -0.11091584090E+03  0.11091584090E+03  0.00000000000E+00 0. -1.
         -6    2    1    2    0  503 -0.67907515122E+01  0.11331545869E+02 -0.83996193759E+01  0.17416495709E+03  0.17345996782E+03 0.  0.
        -24    2    3    3    0    0 -0.34245980083E+02 -0.51897951793E+02  0.62395924278E+01  0.10353808209E+03  0.82553118516E+02 0.  0.
          6    2    1    2  501    0  0.67907515122E+01 -0.11331545869E+02  0.36358670877E+03  0.40285381410E+03  0.17297798272E+03 0.  0.
         24    2    5    5    0    0  0.25364290104E+01  0.19615664038E+02  0.48114443124E+02  0.85803866220E+02  0.68235592423E+02 0.  0.
          5    1    5    5  501    0  0.42543225017E+01 -0.30947209907E+02  0.31547226564E+03  0.31704994788E+03  0.47000000000E+01 0. -1.
        -11    1    6    6    0    0  0.29795894200E+01 -0.23306884475E+02  0.32635848160E+01  0.23722137402E+02  0.00000000000E+00 0.  1.
         12    1    6    6    0    0 -0.44316040960E+00  0.42922548514E+02  0.44850858308E+02  0.62081728818E+02  0.00000000000E+00 0. -1.
         -5    1    3    3    0  503  0.27455228571E+02  0.63229497662E+02 -0.14639211804E+02  0.70626875003E+02  0.47000000000E+01 0.  1.
         13    1    4    4    0    0  0.20459057123E+02 -0.42544207018E+02 -0.28765071461E+01  0.47295421158E+02  0.00000000000E+00 0. -1.
        -14    1    4    4    0    0 -0.54705037206E+02 -0.93537447750E+01  0.91160995739E+01  0.56242660930E+02  0.00000000000E+00 0.  1.
</event>
<event>
12    1  0.8500177E-002  0.1951545E+03  0.7818608E-02  0.1154147E+00
         21   -1    0    0  501  502  0.00000000000E+00  0.00000000000E+00  0.15500776489E+04  0.15500776489E+04  0.00000000000E+00 0.  1.
         21   -1    0    0  502  503 -0.00000000000E+00 -0.00000000000E+00 -0.24843541008E+02  0.24843541008E+02  0.00000000000E+00 0.  1.
         -6    2    1    2    0  503  0.70811614907E+02 -0.55013054448E+02  0.65802939343E+03  0.68602901470E+03  0.17202443266E+03 0.  0.
        -24    2    3    3    0    0 -0.26382514479E+02 -0.26835409304E+02  0.22630835625E+03  0.24258136005E+03  0.78829359210E+02 0.  0.
          6    2    1    2  501    0 -0.70811614907E+02  0.55013054448E+02  0.86720471447E+03  0.88889217521E+03  0.17333367067E+03 0.  0.
         24    2    5    5    0    0 -0.70081768065E+02  0.10101982612E+03  0.58170868336E+03  0.59967386754E+03  0.78149188257E+02 0.  0.
          5    1    5    5  501    0 -0.72984684179E+00 -0.46006771667E+02  0.28549603111E+03  0.28921830768E+03  0.47000000000E+01 0. -1.
        -11    1    6    6    0    0 -0.52469090604E+02  0.13220889911E+02  0.17274498728E+03  0.18102107068E+03  0.00000000000E+00 0.  1.
         12    1    6    6    0    0 -0.17612677462E+02  0.87798936204E+02  0.40896369608E+03  0.41865279686E+03  0.00000000000E+00 0. -1.
         -5    1    3    3    0  503  0.97194129386E+02 -0.28177645144E+02  0.43172103718E+03  0.44344765466E+03  0.47000000000E+01 0.  1.
         13    1    4    4    0    0 -0.43976824935E+00  0.16296546760E+02  0.15175453409E+03  0.15262768245E+03  0.00000000000E+00 0. -1.
        -14    1    4    4    0    0 -0.25942746229E+02 -0.43131956064E+02  0.74553822155E+02  0.89953677599E+02  0.00000000000E+00 0.  1.
</event>
<event>
12    1  0.8500177E-002  0.2225888E+03  0.7818608E-02  0.1132565E+00
         21   -1    0    0  503  502  0.00000000000E+00  0.00000000000E+00  0.35705362459E+03  0.35705362459E+03  0.00000000000E+00 0.  1.
         21   -1    0    0  501  503 -0.00000000000E+00 -0.00000000000E+00 -0.15578858655E+03  0.15578858655E+03  0.00000000000E+00 0.  1.
          6    2    1    2  501    0  0.13594735689E+03  0.35066136351E+02  0.18960610478E+03  0.28994831248E+03  0.16854741521E+03 0.  0.
         24    2    3    3    0    0  0.42888506417E+02 -0.36759755833E+02  0.61807110916E+02  0.11624286849E+03  0.80632387306E+02 0.  0.
         -6    2    1    2    0  502 -0.13594735689E+03 -0.35066136351E+02  0.11658933261E+02  0.22289389866E+03  0.17272649353E+03 0.  0.
        -24    2    5    5    0    0 -0.72092458170E+02  0.35976410556E+02  0.44275505376E+02  0.12184726418E+03  0.79967560741E+02 0.  0.
          5    1    3    3  501    0  0.93058850475E+02  0.71825892185E+02  0.12779899387E+03  0.17370544400E+03  0.47000000000E+01 0. -1.
        -13    1    4    4    0    0  0.50838852235E+02 -0.31427376374E+02  0.77494322889E+02  0.97865412493E+02  0.00000000000E+00 0.  1.
         14    1    4    4    0    0 -0.79503458181E+01 -0.53323794591E+01 -0.15687211973E+02  0.18377455994E+02  0.00000000000E+00 0. -1.
         -5    1    5    5    0  502 -0.63854898723E+02 -0.71042546908E+02 -0.32616572115E+02  0.10104663447E+03  0.47000000000E+01 0.  1.
         11    1    6    6    0    0 -0.78779141310E+02  0.48831791230E+02  0.51090249642E+02  0.10583435429E+03  0.00000000000E+00 0. -1.
        -12    1    6    6    0    0  0.66866831395E+01 -0.12855380674E+02 -0.68147442663E+01  0.16012909888E+02  0.00000000000E+00 0.  1.
</event>
<event>
12    1  0.8500177E-002  0.1921686E+03  0.7818608E-02  0.1157683E+00
         21   -1    0    0  503  502  0.00000000000E+00  0.00000000000E+00  0.36964593148E+03  0.36964593148E+03  0.00000000000E+00 0. -1.
         21   -1    0    0  501  503 -0.00000000000E+00 -0.00000000000E+00 -0.18724523206E+03  0.18724523206E+03  0.00000000000E+00 0. -1.
          6    2    1    2  501    0 -0.13764101563E+02  0.71617753121E+02 -0.10119716355E+03  0.21718574518E+03  0.17779265718E+03 0.  0.
         24    2    3    3    0    0 -0.17025054664E+02  0.28388600624E+02 -0.13588383078E+03  0.16146637401E+03  0.80692064889E+02 0.  0.
         -6    2    1    2    0  502  0.13764101563E+02 -0.71617753121E+02  0.28359786297E+03  0.33970541835E+03  0.17220183020E+03 0.  0.
        -24    2    5    5    0    0 -0.41933345561E+02 -0.92548035509E+02  0.18503306895E+03  0.22447785673E+03  0.76351340604E+02 0.  0.
          5    1    3    3  501    0  0.32609531007E+01  0.43229152496E+02  0.34686667230E+02  0.55719371176E+02  0.47000000000E+01 0. -1.
        -13    1    4    4    0    0 -0.44208404232E+02 -0.40239953359E+01 -0.78394628375E+02  0.90090472866E+02  0.00000000000E+00 0.  1.
         14    1    4    4    0    0  0.27183349568E+02  0.32412595960E+02 -0.57489202403E+02  0.71375901140E+02  0.00000000000E+00 0. -1.
         -5    1    5    5    0  502  0.55697447124E+02  0.20930282388E+02  0.98564794022E+02  0.11522756162E+03  0.47000000000E+01 0.  1.
         11    1    6    6    0    0  0.13828174368E+02 -0.57694193701E+02  0.68061140635E+02  0.90289297581E+02  0.00000000000E+00 0. -1.
        -12    1    6    6    0    0 -0.55761519929E+02 -0.34853841808E+02  0.11697192831E+03  0.13418855915E+03  0.00000000000E+00 0.  1.
</event>
<event>
12    1  0.8500177E-002  0.3121575E+03  0.7818608E-02  0.1079800E+00
         21   -1    0    0  501  502  0.00000000000E+00  0.00000000000E+00  0.57794733094E+03  0.57794733094E+03  0.00000000000E+00 0. -1.
         21   -1    0    0  502  503 -0.00000000000E+00 -0.00000000000E+00 -0.19308089057E+03  0.19308089057E+03  0.00000000000E+00 0.  1.
         -6    2    1    2    0  503  0.55854841911E+02 -0.24938439333E+03  0.50274721448E+02  0.31618009388E+03  0.17924833375E+03 0.  0.
        -24    2    3    3    0    0 -0.31178152025E+02 -0.13811212449E+03  0.62770636289E+02  0.17428401313E+03  0.79923265431E+02 0.  0.
          6    2    1    2  501    0 -0.55854841911E+02  0.24938439333E+03  0.33459171892E+03  0.45484812763E+03  0.17211293339E+03 0.  0.
         24    2    5    5    0    0 -0.95853561403E+02  0.20470647788E+03  0.30845612713E+03  0.38926480012E+03  0.72727263972E+02 0.  0.
          5    1    5    5  501    0  0.39998719492E+02  0.44677915447E+02  0.26135591790E+02  0.65583327515E+02  0.47000000000E+01 0. -1.
        -11    1    6    6    0    0 -0.50506359917E+02  0.16178107769E+03  0.18487340901E+03  0.25080308381E+03  0.00000000000E+00 0.  1.
         12    1    6    6    0    0 -0.45347201486E+02  0.42925400194E+02  0.12358271812E+03  0.13846171631E+03  0.00000000000E+00 0. -1.
         -5    1    3    3    0  503  0.87032993936E+02 -0.11127226884E+03 -0.12495914840E+02  0.14189608075E+03  0.47000000000E+01 0.  1.
         13    1    4    4    0    0 -0.19086134276E+02 -0.88017767526E+01 -0.12221941800E+02  0.24313116973E+02  0.00000000000E+00 0. -1.
        -14    1    4    4    0    0 -0.12092017749E+02 -0.12931034774E+03  0.74992578088E+02  0.14997089616E+03  0.00000000000E+00 0.  1.
</event>
<event>
12    1  0.8500177E-002  0.2164867E+03  0.7818608E-02  0.1136626E+00
         21   -1    0    0  503  502  0.00000000000E+00  0.00000000000E+00  0.13812604379E+03  0.13812604379E+03  0.00000000000E+00 0.  1.
         21   -1    0    0  501  503 -0.00000000000E+00 -0.00000000000E+00 -0.61646928523E+03  0.61646928523E+03  0.00000000000E+00 0. -1.
          6    2    1    2  501    0  0.89372391682E+02  0.96276865875E+02 -0.49267227387E+03  0.53813796428E+03  0.17207509949E+03 0.  0.
         24    2    3    3    0    0  0.12538085676E+03  0.55847627404E+02 -0.32711331220E+03  0.36388816466E+03  0.81068863489E+02 0.  0.
         -6    2    1    2    0  502 -0.89372391682E+02 -0.96276865875E+02  0.14329032434E+02  0.21645736474E+03  0.17144039863E+03 0.  0.
        -24    2    5    5    0    0 -0.14281140561E+01  0.13069416899E+01  0.22567098917E+02  0.84750298853E+02  0.81667567588E+02 0.  0.
          5    1    3    3  501    0 -0.36008465082E+02  0.40429238471E+02 -0.16555896167E+03  0.17424979963E+03  0.47000000000E+01 0. -1.
        -11    1    4    4    0    0  0.61317333952E+02  0.56798797700E+02 -0.11403551658E+03  0.14138605980E+03  0.00000000000E+00 0.  1.
         12    1    4    4    0    0  0.64063522812E+02 -0.95117029603E+00 -0.21307779562E+03  0.22250210486E+03  0.00000000000E+00 0. -1.
         -5    1    5    5    0  502 -0.87944277625E+02 -0.97583807565E+02 -0.82380664833E+01  0.13170706589E+03  0.47000000000E+01 0.  1.
         13    1    6    6    0    0 -0.20210137073E+02 -0.33993366754E+02  0.15510045892E+01  0.39577825092E+02  0.00000000000E+00 0. -1.
        -14    1    6    6    0    0  0.18782023017E+02  0.35300308444E+02  0.21016094328E+02  0.45172473761E+02  0.00000000000E+00 0.  1.
</event>
<event>
12    1  0.8500177E-002  0.2272034E+03  0.7818608E-02  0.1128974E+00
         21   -1    0    0  503  502  0.00000000000E+00  0.00000000000E+00  0.10866846159E+03  0.10866846159E+03  0.00000000000E+00 0.  1.
         21   -1    0    0  501  503 -0.00000000000E+00 -0.00000000000E+00 -0.63581218358E+03  0.63581218358E+03  0.00000000000E+00 0.  1.
          6    2    1    2  501    0  0.10629398833E+03 -0.10259654903E+03 -0.45394906213E+03  0.50763286974E+03  0.17261783110E+03 0.  0.
         24    2    3    3    0    0  0.13578496670E+03 -0.36283698105E+02 -0.31696553740E+03  0.35254035526E+03  0.63745480301E+02 0.  0.
         -6    2    1    2    0  502 -0.10629398833E+03  0.10259654903E+03 -0.73194659863E+02  0.23684777543E+03  0.17004395510E+03 0.  0.
        -24    2    5    5    0    0 -0.55365855545E+01  0.16632360071E+02  0.72166424140E+01  0.81831764864E+02  0.79605707282E+02 0.  0.
          5    1    3    3  501    0 -0.29490978368E+02 -0.66312850920E+02 -0.13698352472E+03  0.15509251448E+03  0.47000000000E+01 0. -1.
        -13    1    4    4    0    0  0.67182150689E+01 -0.15562427608E+02 -0.81302596655E+02  0.83050802462E+02  0.00000000000E+00 0.  1.
         14    1    4    4    0    0  0.12906675163E+03 -0.20721270497E+02 -0.23566294075E+03  0.26948955280E+03  0.00000000000E+00 0. -1.
         -5    1    5    5    0  502 -0.10075740277E+03  0.85964188954E+02 -0.80411302277E+02  0.15501601056E+03  0.47000000000E+01 0.  1.
         11    1    6    6    0    0  0.29112697677E+02  0.29136542618E+02 -0.80313074312E+01  0.41964141607E+02  0.00000000000E+00 0. -1.
        -12    1    6    6    0    0 -0.34649283232E+02 -0.12504182548E+02  0.15247949845E+02  0.39867623257E+02  0.00000000000E+00 0.  1.
</event>
<event>
12    1  0.8500177E-002  0.3272274E+03  0.7818608E-02  0.1073809E+00
         21   -1    0    0  501  502  0.00000000000E+00  0.00000000000E+00  0.70997090539E+03  0.70997090539E+03  0.00000000000E+00 0. -1.
         21   -1    0    0  502  503 -0.00000000000E+00 -0.00000000000E+00 -0.14521893485E+03  0.14521893485E+03  0.00000000000E+00 0.  1.
         -6    2    1    2    0  503  0.53085215770E+02  0.25977648867E+03  0.27411370791E+03  0.42686775130E+03  0.19177040449E+03 0.  0.
        -24    2    3    3    0    0 -0.49904589905E+02  0.14209874238E+03  0.13208314697E+03  0.21556294235E+03  0.79617232572E+02 0.  0.
          6    2    1    2  501    0 -0.53085215770E+02 -0.25977648867E+03  0.29063826262E+03  0.42832208894E+03  0.16937339807E+03 0.  0.
         24    2    5    5    0    0 -0.34760409598E+02 -0.13721240534E+03  0.74591156283E+02  0.17921127986E+03  0.80729870418E+02 0.  0.
          5    1    5    5  501    0 -0.18324806173E+02 -0.12256408332E+03  0.21604710634E+03  0.24911080908E+03  0.47000000000E+01 0. -1.
        -13    1    6    6    0    0 -0.21072420209E+02 -0.77376104794E+02  0.85104613652E+02  0.11693546832E+03  0.00000000000E+00 0.  1.
         14    1    6    6    0    0 -0.13687989388E+02 -0.59836300549E+02 -0.10513457369E+02  0.62275811538E+02  0.00000000000E+00 0. -1.
         -5    1    3    3    0  503  0.10298980567E+03  0.11767774628E+03  0.14203056094E+03  0.21130480895E+03  0.47000000000E+01 0.  1.
         11    1    4    4    0    0 -0.46173662119E+02  0.12438892800E+03  0.68236457354E+02  0.14920062532E+03  0.00000000000E+00 0. -1.
        -12    1    4    4    0    0 -0.37309277855E+01  0.17709814381E+02  0.63846689614E+02  0.66362317035E+02  0.00000000000E+00 0.  1.
</event>
<event>
12    1  0.8500177E-002  0.2018356E+03  0.7818608E-02  0.1148355E+00
         21   -1    0    0  503  502  0.00000000000E+00  0.00000000000E+00  0.36688395820E+02  0.36688395820E+02  0.00000000000E+00 0.  1.
         21   -1    0    0  501  503 -0.00000000000E+00 -0.00000000000E+00 -0.11124808751E+04  0.11124808751E+04  0.00000000000E+00 0.  1.
          6    2    1    2  501    0 -0.91659821719E+02 -0.49204972754E+02 -0.49402268143E+03  0.53338219190E+03  0.17209154716E+03 0.  0.
         24    2    3    3    0    0 -0.49181836698E+02 -0.10744875947E+02 -0.45268995516E+03  0.46257228779E+03  0.80688416225E+02 0.  0.
         -6    2    1    2    0  502  0.91659821719E+02  0.49204972754E+02 -0.58176979787E+03  0.61578707904E+03  0.17295946561E+03 0.  0.
        -24    2    5    5    0    0  0.94413158337E+02 -0.21671116917E+02 -0.45340312008E+03  0.46905230158E+03  0.71078762986E+02 0.  0.
          5    1    3    3  501    0 -0.42477985021E+02 -0.38460096807E+02 -0.41332726272E+02  0.70809904102E+02  0.47000000000E+01 0. -1.
        -11    1    4    4    0    0 -0.23006834209E+02 -0.80391930899E+01 -0.28217643979E+02  0.37285097259E+02  0.00000000000E+00 0.  1.
         12    1    4    4    0    0 -0.26175002489E+02 -0.27056828576E+01 -0.42447231118E+03  0.42528719054E+03  0.00000000000E+00 0. -1.
         -5    1    5    5    0  502 -0.27533366183E+01  0.70876089672E+02 -0.12836667779E+03  0.14673477746E+03  0.47000000000E+01 0.  1.
         11    1    6    6    0    0  0.12067724049E+02 -0.34619425306E+02 -0.12868477753E+03  0.13380548023E+03  0.00000000000E+00 0. -1.
        -12    1    6    6    0    0  0.82345434289E+02  0.12948308388E+02 -0.32471834255E+03  0.33524682135E+03  0.00000000000E+00 0.  1.
</event>
<event>
12    1  0.8500177E-002  0.2147462E+03  0.7818608E-02  0.1138369E+00
         21   -1    0    0  503  502  0.00000000000E+00  0.00000000000E+00  0.44120877103E+02  0.44120877103E+02  0.00000000000E+00 0.  1.
         21   -1    0    0  501  503 -0.00000000000E+00 -0.00000000000E+00 -0.10571305118E+04  0.10571305118E+04  0.00000000000E+00 0.  1.
          6    2    1    2  501    0 -0.89365025356E+02 -0.86605822712E+02 -0.41940811057E+03  0.46999970800E+03  0.17178441731E+03 0.  0.
         24    2    3    3    0    0 -0.10348556873E+03 -0.11394252865E+03 -0.39862043137E+03  0.43257107133E+03  0.67285367462E+02 0.  0.
         -6    2    1    2    0  502  0.89365025356E+02  0.86605822712E+02 -0.59360152413E+03  0.63125168090E+03  0.17501211073E+03 0.  0.
        -24    2    5    5    0    0  0.35078095310E+02  0.49510660683E+02 -0.14787248430E+03  0.18067472990E+03  0.84233651948E+02 0.  0.
          5    1    3    3  501    0  0.14120543374E+02  0.27336705941E+02 -0.20787679194E+02  0.37428636672E+02  0.47000000000E+01 0. -1.
        -13    1    4    4    0    0 -0.88282049239E+02 -0.57796030853E+02 -0.30070153180E+03  0.31867775672E+03  0.00000000000E+00 0.  1.
         14    1    4    4    0    0 -0.15203519490E+02 -0.56146497800E+02 -0.97918899570E+02  0.11389331461E+03  0.00000000000E+00 0. -1.
         -5    1    5    5    0  502  0.54286930045E+02  0.37095162029E+02 -0.44572903984E+03  0.45057695100E+03  0.47000000000E+01 0.  1.
         11    1    6    6    0    0 -0.23804879638E+02  0.29712208385E+02 -0.80403674336E+02  0.88962005758E+02  0.00000000000E+00 0. -1.
        -12    1    6    6    0    0  0.58882974948E+02  0.19798452297E+02 -0.67468809961E+02  0.91712724143E+02  0.00000000000E+00 0.  1.
</event>
<event>
12    1  0.8500177E-002  0.1834849E+03  0.7818608E-02  0.1164993E+00
         21   -1    0    0  503  502  0.00000000000E+00  0.00000000000E+00  0.14835459902E+03  0.14835459902E+03  0.00000000000E+00 0. -1.
         21   -1    0    0  501  503 -0.00000000000E+00 -0.00000000000E+00 -0.43574092228E+03  0.43574092228E+03  0.00000000000E+00 0.  1.
          6    2    1    2  501    0  0.15781557863E+02 -0.61228602262E+02 -0.34760855663E+03  0.39306287424E+03  0.17224608897E+03 0.  0.
         24    2    3    3    0    0 -0.78719661400E+01 -0.15007651164E+02 -0.59176523324E+02  0.99957102630E+02  0.78755088782E+02 0.  0.
         -6    2    1    2    0  502 -0.15781557863E+02  0.61228602262E+02  0.60222233374E+02  0.19103264706E+03  0.16990807969E+03 0.  0.
        -24    2    5    5    0    0  0.32697178685E+02 -0.12749421922E+02  0.62904304988E+01  0.87332766049E+02  0.79723204004E+02 0.  0.
          5    1    3    3  501    0  0.23653524003E+02 -0.46220951098E+02 -0.28843203330E+03  0.29310577161E+03  0.47000000000E+01 0. -1.
        -13    1    4    4    0    0 -0.26085004051E+02 -0.40657425602E+02 -0.28871748411E+02  0.56276385361E+02  0.00000000000E+00 0.  1.
         14    1    4    4    0    0  0.18213037911E+02  0.25649774438E+02 -0.30304774912E+02  0.43680717269E+02  0.00000000000E+00 0. -1.
         -5    1    5    5    0  502 -0.48478736548E+02  0.73978024184E+02  0.53931802875E+02  0.10369988101E+03  0.47000000000E+01 0.  1.
         11    1    6    6    0    0  0.37539477595E+01 -0.28420755322E+02  0.33882950237E+02  0.44383395246E+02  0.00000000000E+00 0. -1.
        -12    1    6    6    0    0  0.28943230925E+02  0.15671333399E+02 -0.27592519738E+02  0.42949370803E+02  0.00000000000E+00 0.  1.
</event>
<event>
12    1  0.8500177E-002  0.2167858E+03  0.7818608E-02  0.1136512E+00
         21   -1    0    0  501  502  0.00000000000E+00  0.00000000000E+00  0.10206940229E+04  0.10206940229E+04  0.00000000000E+00 0. -1.
         21   -1    0    0  502  503 -0.00000000000E+00 -0.00000000000E+00 -0.48476568002E+02  0.48476568002E+02  0.00000000000E+00 0.  1.
         -6    2    1    2    0  503 -0.13242441022E+03  0.13162700416E+02  0.35954370582E+03  0.41927429322E+03  0.16973442626E+03 0.  0.
        -24    2    3    3    0    0 -0.13681134652E+03  0.53983405918E+02  0.23884497351E+03  0.29169745681E+03  0.80055807325E+02 0.  0.
          6    2    1    2  501    0  0.13242441022E+03 -0.13162700416E+02  0.61267374903E+03  0.64989629763E+03  0.17113326334E+03 0.  0.
         24    2    5    5    0    0  0.95824292435E+02 -0.33212302167E+02  0.58667834606E+03  0.60050595315E+03  0.78297931001E+02 0.  0.
          5    1    5    5  501    0  0.36600117789E+02  0.20049601751E+02  0.25995402974E+02  0.49390344485E+02  0.47000000000E+01 0. -1.
        -11    1    6    6    0    0  0.58335671953E+02 -0.43513340360E+02  0.21895465347E+03  0.23073274949E+03  0.00000000000E+00 0.  1.
         12    1    6    6    0    0  0.37488620482E+02  0.10301038192E+02  0.36772369259E+03  0.36977320366E+03  0.00000000000E+00 0. -1.
         -5    1    3    3    0  503  0.43869362980E+01 -0.40820705502E+02  0.12069873232E+03  0.12757683642E+03  0.47000000000E+01 0.  1.
         13    1    4    4    0    0 -0.53949121234E+02 -0.59628757159E+01  0.13701709149E+03  0.14737620883E+03  0.00000000000E+00 0. -1.
        -14    1    4    4    0    0 -0.82862225287E+02  0.59946281634E+02  0.10182788201E+03  0.14432124797E+03  0.00000000000E+00 0.  1.
</event>
<event>
12    1  0.8500177E-002  0.2079882E+03  0.7818608E-02  0.1143347E+00
         21   -1    0    0  503  502  0.00000000000E+00  0.00000000000E+00  0.22233010238E+03  0.22233010238E+03  0.00000000000E+00 0.  1.
         21   -1    0    0  501  503 -0.00000000000E+00 -0.00000000000E+00 -0.22904460305E+03  0.22904460305E+03  0.00000000000E+00 0.  1.
          6    2    1    2  501    0  0.38156680072E+01  0.11699898531E+03 -0.91963272609E+02  0.22741228240E+03  0.17191794784E+03 0.  0.
         24    2    3    3    0    0  0.39982898633E+02  0.29373307975E+02 -0.47310273454E+01  0.98501916200E+02  0.84963647938E+02 0.  0.
         -6    2    1    2    0  502 -0.38156680072E+01 -0.11699898531E+03  0.85248771934E+02  0.22396242303E+03  0.17084639864E+03 0.  0.
        -24    2    5    5    0    0  0.54728826658E+02 -0.30814466411E+02  0.12785973268E+02  0.96965665818E+02  0.72760452359E+02 0.  0.
          5    1    3    3  501    0 -0.36167230626E+02  0.87625677333E+02 -0.87232245263E+02  0.12891036620E+03  0.47000000000E+01 0. -1.
        -11    1    4    4    0    0  0.68909361786E+01  0.14822879301E+02 -0.42913619095E+02  0.45921470534E+02  0.00000000000E+00 0.  1.
         12    1    4    4    0    0  0.33091962454E+02  0.14550428674E+02  0.38182591750E+02  0.52580445666E+02  0.00000000000E+00 0. -1.
         -5    1    5    5    0  502 -0.58544494665E+02 -0.86184518896E+02  0.72462798666E+02  0.12699675722E+03  0.47000000000E+01 0.  1.
         13    1    6    6    0    0  0.27164902803E+02 -0.53501706024E+02  0.36425983553E+01  0.60113501100E+02  0.00000000000E+00 0. -1.
        -14    1    6    6    0    0  0.27563923855E+02  0.22687239613E+02  0.91433749130E+01  0.36852164718E+02  0.00000000000E+00 0.  1.
</event>
<event>
12    1  0.8500177E-002  0.2354587E+03  0.7818608E-02  0.1123044E+00
         21   -1    0    0  501  502  0.00000000000E+00  0.00000000000E+00  0.35638223786E+03  0.35638223786E+03  0.00000000000E+00 0. -1.
         21   -1    0    0  502  503 -0.00000000000E+00 -0.00000000000E+00 -0.15673436740E+03  0.15673436740E+03  0.00000000000E+00 0.  1.
         -6    2    1    2    0  503 -0.12820319933E+03 -0.93692497778E+02  0.71843994084E+02  0.24617546374E+03  0.17385757102E+03 0.  0.
        -24    2    3    3    0    0 -0.40305448849E+02 -0.10147164771E+03  0.54467492444E+01  0.13564395766E+03  0.80303123712E+02 0.  0.
          6    2    1    2  501    0  0.12820319933E+03  0.93692497778E+02  0.12780387637E+03  0.26694114152E+03  0.17236414292E+03 0.  0.
         24    2    5    5    0    0  0.56303971464E+02  0.19714356340E+02 -0.31427184253E+01  0.10017374343E+03  0.80412120637E+02 0.  0.
          5    1    5    5  501    0  0.71899227862E+02  0.73978141438E+02  0.13094659480E+03  0.16676739809E+03  0.47000000000E+01 0. -1.
        -11    1    6    6    0    0  0.19932507758E+02  0.47432475331E+02  0.10379578031E+02  0.52486952871E+02  0.00000000000E+00 0.  1.
         12    1    6    6    0    0  0.36371463706E+02 -0.27718118991E+02 -0.13522296456E+02  0.47686790560E+02  0.00000000000E+00 0. -1.
         -5    1    3    3    0  503 -0.87897750478E+02  0.77791499286E+01  0.66397244840E+02  0.11053150607E+03  0.47000000000E+01 0.  1.
         13    1    4    4    0    0 -0.53004211976E+02 -0.56439215903E+02  0.29719203806E+02  0.82934086200E+02  0.00000000000E+00 0. -1.
        -14    1    4    4    0    0  0.12698763128E+02 -0.45032431804E+02 -0.24272454562E+02  0.52709871463E+02  0.00000000000E+00 0.  1.
</event>
<event>
12    1  0.8500177E-002  0.1994076E+03  0.7818608E-02  0.1150357E+00
         21   -1    0    0  503  502  0.00000000000E+00  0.00000000000E+00  0.14764090859E+03  0.14764090859E+03  0.00000000000E+00 0. -1.
         21   -1    0    0  501  503 -0.00000000000E+00 -0.00000000000E+00 -0.49499974255E+03  0.49499974255E+03  0.00000000000E+00 0.  1.
          6    2    1    2  501    0  0.76707110886E+02  0.66541622713E+02 -0.39112566183E+03  0.43902466659E+03  0.17161470253E+03 0.  0.
         24    2    3    3    0    0  0.34223689276E+02 -0.22722559802E+02 -0.11350610497E+03  0.14429149279E+03  0.79049499647E+02 0.  0.
         -6    2    1    2    0  502 -0.76707110886E+02 -0.66541622713E+02  0.43766827862E+02  0.20361598455E+03  0.17097416626E+03 0.  0.
        -24    2    5    5    0    0 -0.97789669912E+02 -0.98736300025E+02  0.49610736019E+02  0.16440867905E+03  0.72507324686E+02 0.  0.
          5    1    3    3  501    0  0.42483421609E+02  0.89264182515E+02 -0.27761955685E+03  0.29473317380E+03  0.47000000000E+01 0. -1.
        -13    1    4    4    0    0 -0.25159137649E+02 -0.14624586274E+01 -0.24054620814E+02  0.34838854387E+02  0.00000000000E+00 0.  1.
         14    1    4    4    0    0  0.59382826926E+02 -0.21260101175E+02 -0.89451484159E+02  0.10945263841E+03  0.00000000000E+00 0. -1.
         -5    1    5    5    0  502  0.21082559026E+02  0.32194677312E+02 -0.58439081566E+01  0.39207305504E+02  0.47000000000E+01 0.  1.
         13    1    6    6    0    0 -0.54509402882E+02 -0.12237145455E+02  0.35674291773E+00  0.55867253350E+02  0.00000000000E+00 0. -1.
        -14    1    6    6    0    0 -0.43280267030E+02 -0.86499154570E+02  0.49253993101E+02  0.10854142570E+03  0.00000000000E+00 0.  1.
</event>
<event>
12    1  0.8500177E-002  0.1907719E+03  0.7818608E-02  0.1157960E+00
         21   -1    0    0  503  502  0.00000000000E+00  0.00000000000E+00  0.13605963083E+03  0.13605963083E+03  0.00000000000E+00 0.  1.
         21   -1    0    0  501  503 -0.00000000000E+00 -0.00000000000E+00 -0.29991076474E+03  0.29991076474E+03  0.00000000000E+00 0.  1.
          6    2    1    2  501    0  0.71996838633E+02 -0.38927861684E+02 -0.87718610052E+01  0.19011777127E+03  0.17137356336E+03 0.  0.
         24    2    3    3    0    0  0.10010908061E+03  0.41294924311E+01 -0.32710490861E+02  0.13320220318E+03  0.81449186550E+02 0.  0.
         -6    2    1    2    0  502 -0.71996838633E+02  0.38927861684E+02 -0.15507927290E+03  0.24585262430E+03  0.17232239786E+03 0.  0.
        -24    2    5    5    0    0 -0.93451319182E+01 -0.33151497375E+02 -0.33521789692E+02  0.91194995713E+02  0.77501377989E+02 0.  0.
          5    1    3    3  501    0 -0.28112241979E+02 -0.43057354115E+02  0.23938629856E+02  0.56915568098E+02  0.47000000000E+01 0. -1.
        -11    1    4    4    0    0 -0.44919671030E+01 -0.15810706484E+02 -0.20113239191E+02  0.25974960996E+02  0.00000000000E+00 0.  1.
         12    1    4    4    0    0  0.10460104772E+03  0.19940198915E+02 -0.12597251670E+02  0.10722724218E+03  0.00000000000E+00 0. -1.
         -5    1    5    5    0  502 -0.62651706715E+02  0.72079359060E+02 -0.12155748321E+03  0.15465762859E+03  0.47000000000E+01 0.  1.
         13    1    6    6    0    0  0.16307335613E+02  0.39929198327E+01 -0.42029536524E+02  0.45258751021E+02  0.00000000000E+00 0. -1.
        -14    1    6    6    0    0 -0.25652467532E+02 -0.37144417208E+02  0.85077468319E+01  0.45936244691E+02  0.00000000000E+00 0.  1.
</event>
<event>
12    1  0.8500177E-002  0.3098795E+03  0.7818608E-02  0.1080840E+00
         21   -1    0    0  501  502  0.00000000000E+00  0.00000000000E+00  0.94341680441E+03  0.94341680441E+03  0.00000000000E+00 0.  1.
         21   -1    0    0  502  503 -0.00000000000E+00 -0.00000000000E+00 -0.12257059571E+03  0.12257059571E+03  0.00000000000E+00 0. -1.
         -6    2    1    2    0  503 -0.17721650434E+03 -0.18108969091E+03  0.18674902905E+03  0.36180171641E+03  0.17839875724E+03 0.  0.
        -24    2    3    3    0    0 -0.79350102062E+02 -0.17016649259E+03  0.90830240598E+02  0.22425298710E+03  0.82378369253E+02 0.  0.
          6    2    1    2  501    0  0.17721650434E+03  0.18108969091E+03  0.63409717965E+03  0.70418568371E+03  0.17204382677E+03 0.  0.
         24    2    5    5    0    0  0.67847259467E+02  0.12426616837E+03  0.22784967870E+03  0.27962748220E+03  0.78934919381E+02 0.  0.
          5    1    5    5  501    0  0.10936924487E+03  0.56823522531E+02  0.40624750095E+03  0.42455820151E+03  0.47000000000E+01 0. -1.
        -11    1    6    6    0    0 -0.79346872585E+01 -0.34183501694E+01  0.36054198806E+02  0.37074919168E+02  0.00000000000E+00 0.  1.
         12    1    6    6    0    0  0.75781946725E+02  0.12768451854E+03  0.19179547990E+03  0.24255256303E+03  0.00000000000E+00 0. -1.
         -5    1    3    3    0  503 -0.97866402276E+02 -0.10923198318E+02  0.95918788453E+02  0.13754872931E+03  0.47000000000E+01 0.  1.
         13    1    4    4    0    0 -0.81423206625E+01 -0.73794936685E+02  0.58419697404E+00  0.74245076283E+02  0.00000000000E+00 0. -1.
        -14    1    4    4    0    0 -0.71207781399E+02 -0.96371555902E+02  0.90246043624E+02  0.15000791082E+03  0.00000000000E+00 0.  1.
</event>
<event>
12    1  0.8500177E-002  0.1828673E+03  0.7818608E-02  0.1165081E+00
         21   -1    0    0  501  502  0.00000000000E+00  0.00000000000E+00  0.67406383225E+02  0.67406383225E+02  0.00000000000E+00 0.  1.
         21   -1    0    0  502  503 -0.00000000000E+00 -0.00000000000E+00 -0.51365881620E+03  0.51365881620E+03  0.00000000000E+00 0.  1.
         -6    2    1    2    0  503  0.55859826040E+01 -0.63480727766E+02 -0.16904766941E+03  0.24903324391E+03  0.17140430578E+03 0.  0.
        -24    2    3    3    0    0  0.38696553743E+02 -0.56578136541E+02 -0.18367107759E+03  0.21188637656E+03  0.80388202007E+02 0.  0.
          6    2    1    2  501    0 -0.55859826040E+01  0.63480727766E+02 -0.27720476357E+03  0.33203195552E+03  0.17129428637E+03 0.  0.
         24    2    5    5    0    0  0.24371129844E+02  0.88055938676E+02 -0.26406194915E+03  0.29084708999E+03  0.80718749147E+02 0.  0.
          5    1    5    5  501    0 -0.29957112448E+02 -0.24575210911E+02 -0.13142814421E+02  0.41184865527E+02  0.47000000000E+01 0. -1.
        -13    1    6    6    0    0 -0.10836854471E+02  0.32619285786E+02 -0.18453800167E+03  0.18771182509E+03  0.00000000000E+00 0.  1.
         14    1    6    6    0    0  0.35207984315E+02  0.55436652890E+02 -0.79523947476E+02  0.10313526490E+03  0.00000000000E+00 0. -1.
         -5    1    3    3    0  503 -0.33110571139E+02 -0.69025912246E+01  0.14623408185E+02  0.37146867347E+02  0.47000000000E+01 0.  1.
         13    1    4    4    0    0 -0.23905589715E+02 -0.20628596969E+02 -0.75521400385E+02  0.81856570589E+02  0.00000000000E+00 0. -1.
        -14    1    4    4    0    0  0.62602143457E+02 -0.35949539572E+02 -0.10814967721E+03  0.13002980597E+03  0.00000000000E+00 0.  1.
</event>
<event>
12    1  0.8500177E-002  0.1765650E+03  0.7818608E-02  0.1171743E+00
         21   -1    0    0  503  502  0.00000000000E+00  0.00000000000E+00  0.44529293541E+03  0.44529293541E+03  0.00000000000E+00 0. -1.
         21   -1    0    0  501  503 -0.00000000000E+00 -0.00000000000E+00 -0.30486619402E+03  0.30486619402E+03  0.00000000000E+00 0. -1.
          6    2    1    2  501    0  0.33839752665E+02  0.14479916033E+02 -0.25973158380E+03  0.31277842384E+03  0.17033804615E+03 0.  0.
         24    2    3    3    0    0 -0.64487320417E+01 -0.22753990376E+02 -0.57904195053E+02  0.10357538697E+03  0.82556857728E+02 0.  0.
         -6    2    1    2    0  502 -0.33839752665E+02 -0.14479916033E+02  0.40015832519E+03  0.43738070558E+03  0.17268584066E+03 0.  0.
        -24    2    5    5    0    0 -0.88244949292E+01 -0.99042301244E+01  0.40179084324E+03  0.41146825421E+03  0.87717028139E+02 0.  0.
          5    1    3    3  501    0  0.40288484707E+02  0.37233906409E+02 -0.20182738875E+03  0.20920303687E+03  0.47000000000E+01 0. -1.
        -13    1    4    4    0    0 -0.14918888785E+02  0.28302934522E+00  0.18244106784E+02  0.23569064058E+02  0.00000000000E+00 0.  1.
         14    1    4    4    0    0  0.84701567437E+01 -0.23037019721E+02 -0.76148301838E+02  0.80006322910E+02  0.00000000000E+00 0. -1.
         -5    1    5    5    0  502 -0.25015257736E+02 -0.45756859089E+01 -0.16325180440E+01  0.25912451375E+02  0.47000000000E+01 0.  1.
         11    1    6    6    0    0  0.19717337043E+02  0.31040902923E+02  0.12855614339E+03  0.13371235185E+03  0.00000000000E+00 0. -1.
        -12    1    6    6    0    0 -0.28541831972E+02 -0.40945133048E+02  0.27323469985E+03  0.27775590236E+03  0.00000000000E+00 0.  1.
</event>
<event>
12    1  0.8500177E-002  0.1957579E+03  0.7818608E-02  0.1153910E+00
         21   -1    0    0  503  502  0.00000000000E+00  0.00000000000E+00  0.13039249019E+03  0.13039249019E+03  0.00000000000E+00 0. -1.
         21   -1    0    0  501  503 -0.00000000000E+00 -0.00000000000E+00 -0.13514759070E+04  0.13514759070E+04  0.00000000000E+00 0. -1.
          6    2    1    2  501    0 -0.79238428992E+02 -0.30532668941E+02 -0.12679655530E+04  0.12829878364E+04  0.17638075891E+03 0.  0.
         24    2    3    3    0    0 -0.10642083686E+03 -0.65382668902E+02 -0.86142440532E+03  0.87402426761E+03  0.79158867995E+02 0.  0.
         -6    2    1    2    0  502  0.79238428992E+02  0.30532668941E+02  0.46882136227E+02  0.19888056081E+03  0.17362191759E+03 0.  0.
        -24    2    5    5    0    0  0.19132858165E+02 -0.27225671025E+02  0.71633202541E+02  0.11179777971E+03  0.79120948033E+02 0.  0.
          5    1    3    3  501    0  0.27182407866E+02  0.34849999960E+02 -0.40654114773E+03  0.40896356878E+03  0.47000000000E+01 0. -1.
        -11    1    4    4    0    0  0.13042162023E+01 -0.25995459624E+02 -0.77520079785E+02  0.81773025325E+02  0.00000000000E+00 0.  1.
         12    1    4    4    0    0 -0.10772505306E+03 -0.39387209278E+02 -0.78390432554E+03  0.79225124229E+03  0.00000000000E+00 0. -1.
         -5    1    5    5    0  502  0.60105570827E+02  0.57758339967E+02 -0.24751066314E+02  0.87082781098E+02  0.47000000000E+01 0.  1.
         11    1    6    6    0    0 -0.23404821848E+02 -0.35318502627E+02  0.38876771191E+02  0.57502918637E+02  0.00000000000E+00 0. -1.
        -12    1    6    6    0    0  0.42537680013E+02  0.80928316022E+01  0.32756431350E+02  0.54294861074E+02  0.00000000000E+00 0.  1.
</event>
<event>
12    1  0.8500177E-002  0.2804347E+03  0.7818608E-02  0.1095503E+00
         21   -1    0    0  503  502  0.00000000000E+00  0.00000000000E+00  0.35457062713E+03  0.35457062713E+03  0.00000000000E+00 0. -1.
         21   -1    0    0  501  503 -0.00000000000E+00 -0.00000000000E+00 -0.34669556676E+03  0.34669556676E+03  0.00000000000E+00 0.  1.
          6    2    1    2  501    0  0.13237198118E+03 -0.17744664329E+03 -0.20676239963E+03  0.34841688829E+03  0.17214524544E+03 0.  0.
         24    2    3    3    0    0  0.48979270384E+01 -0.40049802486E+02 -0.96920516674E+02  0.13112709195E+03  0.78566858933E+02 0.  0.
         -6    2    1    2    0  502 -0.13237198118E+03  0.17744664329E+03  0.21463746000E+03  0.35284930560E+03  0.17153349704E+03 0.  0.
        -24    2    5    5    0    0 -0.60712823321E+02  0.15700224666E+02  0.86509312700E+02  0.13436394917E+03  0.81469415623E+02 0.  0.
          5    1    3    3  501    0  0.12747405414E+03 -0.13739684080E+03 -0.10984188296E+03  0.21728979634E+03  0.47000000000E+01 0. -1.
        -13    1    4    4    0    0 -0.27365496294E+02  0.95739846754E+01 -0.28451433242E+02  0.40620384335E+02  0.00000000000E+00 0.  1.
         14    1    4    4    0    0  0.32263423333E+02 -0.49623787161E+02 -0.68469083432E+02  0.90506707616E+02  0.00000000000E+00 0. -1.
         -5    1    5    5    0  502 -0.71659157860E+02  0.16174641862E+03  0.12812814730E+03  0.21848535643E+03  0.47000000000E+01 0.  1.
         13    1    6    6    0    0 -0.53925138568E+02  0.44675692916E+02  0.44820334116E+02  0.83142651253E+02  0.00000000000E+00 0. -1.
        -14    1    6    6    0    0 -0.67876847524E+01 -0.28975468250E+02  0.41688978584E+02  0.51221297914E+02  0.00000000000E+00 0.  1.
</event>
<event>
12    1  0.8500177E-002  0.3376283E+03  0.7818608E-02  0.1067847E+00
         21   -1    0    0  503  502  0.00000000000E+00  0.00000000000E+00  0.29962212237E+03  0.29962212237E+03  0.00000000000E+00 0. -1.
         21   -1    0    0  501  503 -0.00000000000E+00 -0.00000000000E+00 -0.46443944005E+03  0.46443944005E+03  0.00000000000E+00 0.  1.
          6    2    1    2  501    0  0.19103137668E+03  0.21890501651E+03 -0.24526730776E+03  0.41731156740E+03  0.17198982208E+03 0.  0.
         24    2    3    3    0    0  0.17646214663E+03  0.19610945225E+03 -0.26566390637E+03  0.38310613729E+03  0.81210804871E+02 0.  0.
         -6    2    1    2    0  502 -0.19103137668E+03 -0.21890501651E+03  0.80449990084E+02  0.34674999503E+03  0.17132123342E+03 0.  0.
        -24    2    5    5    0    0 -0.43698380559E+02 -0.25932520928E+02  0.28185507303E+02  0.98357036279E+02  0.79357669185E+02 0.  0.
          5    1    3    3  501    0  0.14569230044E+02  0.22795564258E+02  0.20396598606E+02  0.34205430104E+02  0.47000000000E+01 0. -1.
        -13    1    4    4    0    0  0.15496915670E+03  0.16515634820E+03 -0.17923868259E+03  0.28882272109E+03  0.00000000000E+00 0.  1.
         14    1    4    4    0    0  0.21492989936E+02  0.30953104047E+02 -0.86425223775E+02  0.94283416204E+02  0.00000000000E+00 0. -1.
         -5    1    5    5    0  502 -0.14733299612E+03 -0.19297249558E+03  0.52264482781E+02  0.24839295875E+03  0.47000000000E+01 0.  1.
         13    1    6    6    0    0 -0.28078954061E+02 -0.54705358189E+02  0.18725749011E+02  0.64278748835E+02  0.00000000000E+00 0. -1.
        -14    1    6    6    0    0 -0.15619426498E+02  0.28772837261E+02  0.94597582916E+01  0.34078287444E+02  0.00000000000E+00 0.  1.
</event>
<event>
12    1  0.8500177E-002  0.1774059E+03  0.7818608E-02  0.1170543E+00
         21   -1    0    0  501  502  0.00000000000E+00  0.00000000000E+00  0.13239455202E+03  0.13239455202E+03  0.00000000000E+00 0. -1.
         21   -1    0    0  502  503 -0.00000000000E+00 -0.00000000000E+00 -0.30857495772E+03  0.30857495772E+03  0.00000000000E+00 0. -1.
         -6    2    1    2    0  503  0.40983731017E+02 -0.99320250391E+01 -0.19440961102E+03  0.26262949826E+03  0.17146674656E+03 0.  0.
        -24    2    3    3    0    0 -0.40289488863E+02 -0.29120315023E+02 -0.83187295773E+02  0.12346764951E+03  0.76504239337E+02 0.  0.
          6    2    1    2  501    0 -0.40983731017E+02  0.99320250391E+01  0.18229205316E+02  0.17834001148E+03  0.17232105048E+03 0.  0.
         24    2    5    5    0    0 -0.55330627624E+02  0.53942602045E+02 -0.26140998405E+02  0.11404717122E+03  0.79700205747E+02 0.  0.
          5    1    5    5  501    0  0.14346896607E+02 -0.44010577006E+02  0.44370203721E+02  0.64292840262E+02  0.47000000000E+01 0. -1.
        -11    1    6    6    0    0  0.38453232895E+01  0.30851798362E+02  0.18711102357E+02  0.36286710030E+02  0.00000000000E+00 0.  1.
         12    1    6    6    0    0 -0.59175950913E+02  0.23090803683E+02 -0.44852100762E+02  0.77760461187E+02  0.00000000000E+00 0. -1.
         -5    1    3    3    0  503  0.81273219880E+02  0.19188289984E+02 -0.11122231524E+03  0.13916184876E+03  0.47000000000E+01 0.  1.
         11    1    4    4    0    0  0.31371836120E+00 -0.28105554102E+02 -0.77519976470E+02  0.82458276374E+02  0.00000000000E+00 0. -1.
        -12    1    4    4    0    0 -0.40603207224E+02 -0.10147609216E+01 -0.56673193031E+01  0.41009373132E+02  0.00000000000E+00 0.  1.
</event>
<event>
12    1  0.8500177E-002  0.3289368E+03  0.7818608E-02  0.1071705E+00
         21   -1    0    0  501  502  0.00000000000E+00  0.00000000000E+00  0.68258952557E+03  0.68258952557E+03  0.00000000000E+00 0. -1.
         21   -1    0    0  502  503 -0.00000000000E+00 -0.00000000000E+00 -0.31749007558E+03  0.31749007558E+03  0.00000000000E+00 0.  1.
         -6    2    1    2    0  503  0.22829551598E+03  0.16139710170E+03 -0.17187768257E+03  0.37036231454E+03  0.17163460961E+03 0.  0.
        -24    2    3    3    0    0  0.14963868695E+03  0.17909283401E+03 -0.13067171111E+03  0.27969778025E+03  0.81791028627E+02 0.  0.
          6    2    1    2  501    0 -0.22829551598E+03 -0.16139710170E+03  0.53697713256E+03  0.62971728661E+03  0.17329614278E+03 0.  0.
         24    2    5    5    0    0 -0.12359713350E+03 -0.33621431428E+02  0.16581163308E+03  0.22342393050E+03  0.77576433255E+02 0.  0.
          5    1    5    5  501    0 -0.10469838248E+03 -0.12777567027E+03  0.37116549948E+03  0.40629335610E+03  0.47000000000E+01 0. -1.
        -13    1    6    6    0    0 -0.91583485065E+02 -0.58597247888E+02  0.11306852279E+03  0.15686192350E+03  0.00000000000E+00 0.  1.
         14    1    6    6    0    0 -0.32013648435E+02  0.24975816461E+02  0.52743110289E+02  0.66562007008E+02  0.00000000000E+00 0. -1.
         -5    1    3    3    0  503  0.78656829032E+02 -0.17695732317E+02 -0.41205971459E+02  0.90664534297E+02  0.47000000000E+01 0.  1.
         11    1    4    4    0    0  0.10165763478E+03  0.81913615750E+02 -0.35075977337E+02  0.13518298465E+03  0.00000000000E+00 0. -1.
        -12    1    4    4    0    0  0.47981052171E+02  0.97179218265E+02 -0.95595733772E+02  0.14451479559E+03  0.00000000000E+00 0.  1.
</event>
<event>
12    1  0.8500177E-002  0.1871080E+03  0.7818608E-02  0.1161367E+00
         21   -1    0    0  503  502  0.00000000000E+00  0.00000000000E+00  0.25376806612E+02  0.25376806612E+02  0.00000000000E+00 0. -1.
         21   -1    0    0  501  503 -0.00000000000E+00 -0.00000000000E+00 -0.14759822876E+04  0.14759822876E+04  0.00000000000E+00 0. -1.
          6    2    1    2  501    0 -0.65384813381E+02 -0.27964558573E+02 -0.52716635965E+03  0.55938695238E+03  0.17306704305E+03 0.  0.
         24    2    3    3    0    0 -0.31598137892E+02  0.47707208698E+02 -0.35386852402E+03  0.36723600745E+03  0.79780528936E+02 0.  0.
         -6    2    1    2    0  502  0.65384813381E+02  0.27964558573E+02 -0.92343912133E+03  0.94197214183E+03  0.17179788943E+03 0.  0.
        -24    2    5    5    0    0  0.10317595640E+03  0.42455070896E+02 -0.58246863087E+03  0.59857570795E+03  0.81089217343E+02 0.  0.
          5    1    3    3  501    0 -0.33786675490E+02 -0.75671767271E+02 -0.17329783563E+03  0.19215094492E+03  0.47000000000E+01 0. -1.
        -13    1    4    4    0    0  0.13364538384E+02  0.16648309724E+02 -0.23984932752E+03  0.24079758515E+03  0.00000000000E+00 0.  1.
         14    1    4    4    0    0 -0.44962676276E+02  0.31058898974E+02 -0.11401919650E+03  0.12643842230E+03  0.00000000000E+00 0. -1.
         -5    1    5    5    0  502 -0.37791143017E+02 -0.14490512323E+02 -0.34097049046E+03  0.34339643388E+03  0.47000000000E+01 0.  1.
         11    1    6    6    0    0  0.40105612515E+02 -0.16283850688E+02 -0.30424230939E+03  0.30730604741E+03  0.00000000000E+00 0. -1.
        -12    1    6    6    0    0  0.63070343882E+02  0.58738921583E+02 -0.27822632148E+03  0.29126966054E+03  0.00000000000E+00 0.  1.
</event>
<event>
12    1  0.8500177E-002  0.2019935E+03  0.7818608E-02  0.1148896E+00
         21   -1    0    0  503  502  0.00000000000E+00  0.00000000000E+00  0.20175439558E+03  0.20175439558E+03  0.00000000000E+00 0.  1.
         21   -1    0    0  501  503 -0.00000000000E+00 -0.00000000000E+00 -0.23825344467E+03  0.23825344467E+03  0.00000000000E+00 0.  1.
          6    2    1    2  501    0  0.22389178384E+02  0.10362026905E+03 -0.10817739308E+03  0.22567362456E+03  0.16729554980E+03 0.  0.
         24    2    3    3    0    0  0.66165188011E+02  0.68315699269E+02 -0.26549503910E+02  0.12643676671E+03  0.78971595827E+02 0.  0.
         -6    2    1    2    0  502 -0.22389178384E+02 -0.10362026905E+03  0.71678343978E+02  0.21433421569E+03  0.17193875524E+03 0.  0.
        -24    2    5    5    0    0 -0.13133411924E+01  0.14553371132E+02  0.20033910273E+02  0.83573221199E+02  0.79809775494E+02 0.  0.
          5    1    3    3  501    0 -0.43776009627E+02  0.35304569780E+02 -0.81627889167E+02  0.99236857850E+02  0.47000000000E+01 0. -1.
        -13    1    4    4    0    0  0.58894435166E+02  0.42147029058E+01 -0.10707407326E+02  0.60008056007E+02  0.00000000000E+00 0.  1.
         14    1    4    4    0    0  0.72707528449E+01  0.64100996363E+02 -0.15842096584E+02  0.66428710705E+02  0.00000000000E+00 0. -1.
         -5    1    5    5    0  502 -0.21075837191E+02 -0.11817364018E+03  0.51644433706E+02  0.13076099449E+03  0.47000000000E+01 0.  1.
         11    1    6    6    0    0  0.37897710156E+02  0.12417433790E+02  0.89947787939E+00  0.39890326615E+02  0.00000000000E+00 0. -1.
        -12    1    6    6    0    0 -0.39211051349E+02  0.21359373423E+01  0.19134432393E+02  0.43682894584E+02  0.00000000000E+00 0.  1.
</event>
<event>
12    1  0.8500177E-002  0.1909843E+03  0.7818608E-02  0.1157646E+00
         21   -1    0    0  501  502  0.00000000000E+00  0.00000000000E+00  0.87496987558E+03  0.87496987558E+03  0.00000000000E+00 0.  1.
         21   -1    0    0  502  503 -0.00000000000E+00 -0.00000000000E+00 -0.47418514084E+02  0.47418514084E+02  0.00000000000E+00 0.  1.
         -6    2    1    2    0  503  0.70125929205E+02  0.43372744637E+02  0.25279336392E+03  0.31682724014E+03  0.17226774024E+03 0.  0.
        -24    2    3    3    0    0 -0.22113331664E+02  0.21328904096E+01  0.74997223794E+02  0.11227317818E+03  0.80542748291E+02 0.  0.
          6    2    1    2  501    0 -0.70125929205E+02 -0.43372744637E+02  0.57475799757E+03  0.60556114952E+03  0.17192646425E+03 0.  0.
         24    2    5    5    0    0  0.13567295467E+02 -0.15216647978E+02  0.14468129889E+03  0.16648783174E+03  0.79811665735E+02 0.  0.
          5    1    5    5  501    0 -0.83693224671E+02 -0.28156096659E+02  0.43007669869E+03  0.43907331778E+03  0.47000000000E+01 0. -1.
        -13    1    6    6    0    0  0.36853310512E+00  0.32628356764E+02  0.53190431263E+02  0.62401662315E+02  0.00000000000E+00 0.  1.
         14    1    6    6    0    0  0.13198762361E+02 -0.47845004742E+02  0.91490867623E+02  0.10408616942E+03  0.00000000000E+00 0. -1.
         -5    1    3    3    0  503  0.92239260869E+02  0.41239854228E+02  0.17779614012E+03  0.20455406196E+03  0.47000000000E+01 0.  1.
         11    1    4    4    0    0  0.28773894178E+02  0.12899444518E+02  0.28819713326E+02  0.42718948152E+02  0.00000000000E+00 0. -1.
        -12    1    4    4    0    0 -0.50887225842E+02 -0.10766554108E+02  0.46177510469E+02  0.69554230025E+02  0.00000000000E+00 0.  1.
</event>
<event>
12    1  0.8500177E-002  0.2961047E+03  0.7818608E-02  0.1087251E+00
         21   -1    0    0  501  502  0.00000000000E+00  0.00000000000E+00  0.35215300749E+03  0.35215300749E+03  0.00000000000E+00 0.  1.
         21   -1    0    0  502  503 -0.00000000000E+00 -0.00000000000E+00 -0.56486507882E+03  0.56486507882E+03  0.00000000000E+00 0.  1.
         -6    2    1    2    0  503 -0.21590119330E+03 -0.10756826026E+03 -0.44937383802E+03  0.53795766373E+03  0.17110624124E+03 0.  0.
        -24    2    3    3    0    0 -0.15031642578E+03 -0.14200036020E+03 -0.30405567388E+03  0.37478171555E+03  0.72473107659E+02 0.  0.
          6    2    1    2  501    0  0.21590119330E+03  0.10756826026E+03  0.23666176669E+03  0.37906042259E+03  0.17173746322E+03 0.  0.
         24    2    5    5    0    0  0.32614078989E+02  0.72887988592E+02  0.89196493135E+02  0.14122647963E+03  0.74917068366E+02 0.  0.
          5    1    5    5  501    0  0.18328711432E+03  0.34680271665E+02  0.14746527355E+03  0.23783394295E+03  0.47000000000E+01 0. -1.
        -13    1    6    6    0    0  0.37327729761E+02  0.50986765770E+02  0.98452631103E+02  0.11698688073E+03  0.00000000000E+00 0.  1.
         14    1    6    6    0    0 -0.47136507721E+01  0.21901222822E+02 -0.92561379675E+01  0.24239598898E+02  0.00000000000E+00 0. -1.
         -5    1    3    3    0  503 -0.65584767528E+02  0.34432099946E+02 -0.14531816413E+03  0.16317594818E+03  0.47000000000E+01 0.  1.
         13    1    4    4    0    0 -0.11520263874E+03 -0.61101321536E+02 -0.19391964412E+03  0.23368750040E+03  0.00000000000E+00 0. -1.
        -14    1    4    4    0    0 -0.35113787033E+02 -0.80899038667E+02 -0.11013602976E+03  0.14109421515E+03  0.00000000000E+00 0.  1.
</event>
<event>
12    1  0.8500177E-002  0.1824364E+03  0.7818608E-02  0.1165874E+00
         21   -1    0    0  501  502  0.00000000000E+00  0.00000000000E+00  0.67138374849E+02  0.67138374849E+02  0.00000000000E+00 0.  1.
         21   -1    0    0  502  503 -0.00000000000E+00 -0.00000000000E+00 -0.52312138150E+03  0.52312138150E+03  0.00000000000E+00 0.  1.
         -6    2    1    2    0  503 -0.56052805517E+02 -0.27742637338E+02 -0.29999214517E+03  0.35022605621E+03  0.16956247330E+03 0.  0.
        -24    2    3    3    0    0 -0.18241840712E+02 -0.16119178216E+02 -0.29879007287E+03  0.31037246365E+03  0.80392573611E+02 0.  0.
          6    2    1    2  501    0  0.56052805517E+02  0.27742637338E+02 -0.15599086148E+03  0.24003370014E+03  0.17138102989E+03 0.  0.
         24    2    5    5    0    0  0.93275102072E+02  0.29276991803E+02 -0.66136685123E+02  0.14264932453E+03  0.80108562300E+02 0.  0.
          5    1    5    5  501    0 -0.37222296555E+02 -0.15343544647E+01 -0.89854176357E+02  0.97384375612E+02  0.47000000000E+01 0. -1.
        -13    1    6    6    0    0  0.31186726366E+02  0.37639765322E+02 -0.63245703901E+02  0.79933615562E+02  0.00000000000E+00 0.  1.
         14    1    6    6    0    0  0.62088375706E+02 -0.83627735186E+01 -0.28909812219E+01  0.62715708966E+02  0.00000000000E+00 0. -1.
         -5    1    3    3    0  503 -0.37810964806E+02 -0.11623459122E+02 -0.12020723003E+01  0.39853592552E+02  0.47000000000E+01 0.  1.
         11    1    4    4    0    0  0.25371611249E+02  0.84603540094E+01 -0.51122939523E+02  0.57696197386E+02  0.00000000000E+00 0. -1.
        -12    1    4    4    0    0 -0.43613451961E+02 -0.24579532225E+02 -0.24766713334E+03  0.25267626627E+03  0.00000000000E+00 0.  1.
</event>
<event>
12    1  0.8500177E-002  0.1809242E+03  0.7818608E-02  0.1167073E+00
         21   -1    0    0  503  502  0.00000000000E+00  0.00000000000E+00  0.65147702792E+02  0.65147702792E+02  0.00000000000E+00 0.  1.
         21   -1    0    0  501  503 -0.00000000000E+00 -0.00000000000E+00 -0.53758715168E+03  0.53758715168E+03  0.00000000000E+00 0.  1.
          6    2    1    2  501    0  0.63998521127E+01 -0.54535679468E+02 -0.31568101425E+03  0.36385169694E+03  0.17239041784E+03 0.  0.
         24    2    3    3    0    0 -0.23554854137E+02 -0.73804922500E+02 -0.30749543002E+03  0.32700496109E+03  0.79854914420E+02 0.  0.
         -6    2    1    2    0  502 -0.63998521127E+01  0.54535679468E+02 -0.15675843463E+03  0.23888315753E+03  0.17168825726E+03 0.  0.
        -24    2    5    5    0    0 -0.38767202749E+02  0.35472848317E+02 -0.17273535376E+03  0.19779314824E+03  0.80767617740E+02 0.  0.
          5    1    3    3  501    0  0.29954706250E+02  0.19269243032E+02 -0.81855842388E+01  0.36846735851E+02  0.47000000000E+01 0. -1.
        -13    1    4    4    0    0 -0.47023004647E+01 -0.50173124007E+02 -0.63129164732E+02  0.80775896417E+02  0.00000000000E+00 0.  1.
         14    1    4    4    0    0 -0.18852553672E+02 -0.23631798493E+02 -0.24436626528E+03  0.24622906467E+03  0.00000000000E+00 0. -1.
         -5    1    5    5    0  502  0.32367350636E+02  0.19062831151E+02  0.15976919129E+02  0.41090009291E+02  0.47000000000E+01 0.  1.
         13    1    6    6    0    0 -0.40680538257E+02 -0.15003439701E+02 -0.57866893963E+02  0.72308967719E+02  0.00000000000E+00 0. -1.
        -14    1    6    6    0    0  0.19133355077E+01  0.50476288018E+02 -0.11486845980E+03  0.12548418052E+03  0.00000000000E+00 0.  1.
</event>
<event>
12    1  0.8500177E-002  0.1951087E+03  0.7818608E-02  0.1154361E+00
         21   -1    0    0  501  502  0.00000000000E+00  0.00000000000E+00  0.61608234782E+03  0.61608234782E+03  0.00000000000E+00 0.  1.
         21   -1    0    0  502  503 -0.00000000000E+00 -0.00000000000E+00 -0.78997056036E+02  0.78997056036E+02  0.00000000000E+00 0.  1.
         -6    2    1    2    0  503  0.94413514370E+01 -0.86275136188E+02  0.10450368858E+03  0.22133331835E+03  0.17474232070E+03 0.  0.
        -24    2    3    3    0    0 -0.20735050550E+02  0.85139065788E+01  0.87835611220E+02  0.12036058605E+03  0.79177946107E+02 0.  0.
          6    2    1    2  501    0 -0.94413514370E+01  0.86275136188E+02  0.43258160320E+03  0.47374608550E+03  0.17255715534E+03 0.  0.
         24    2    5    5    0    0  0.13267096691E+02 -0.82232186942E+01  0.99748470654E+02  0.12698161672E+03  0.77012573037E+02 0.  0.
          5    1    5    5  501    0 -0.22708448128E+02  0.94498354882E+02  0.33283313255E+03  0.34676446879E+03  0.47000000000E+01 0. -1.
        -11    1    6    6    0    0 -0.15276098131E+02 -0.11599078878E+02  0.96115664318E+02  0.98010809262E+02  0.00000000000E+00 0.  1.
         12    1    6    6    0    0  0.28543194823E+02  0.33758601840E+01  0.36328063361E+01  0.28970807454E+02  0.00000000000E+00 0. -1.
         -5    1    3    3    0  503  0.30176401988E+02 -0.94789042767E+02  0.16668077364E+02  0.10097273230E+03  0.47000000000E+01 0.  1.
         13    1    4    4    0    0  0.18717324678E+01  0.21600298318E+02 -0.63723686386E+01  0.22598304182E+02  0.00000000000E+00 0. -1.
        -14    1    4    4    0    0 -0.22606783018E+02 -0.13086391739E+02  0.94207979858E+02  0.97762281869E+02  0.00000000000E+00 0.  1.
</event>
<event>
12    1  0.8500177E-002  0.2282734E+03  0.7818608E-02  0.1127919E+00
         21   -1    0    0  501  502  0.00000000000E+00  0.00000000000E+00  0.27090190524E+03  0.27090190524E+03  0.00000000000E+00 0. -1.
         21   -1    0    0  502  503 -0.00000000000E+00 -0.00000000000E+00 -0.20163178689E+03  0.20163178689E+03  0.00000000000E+00 0.  1.
         -6    2    1    2    0  503  0.24165835830E+02 -0.14786142151E+03  0.86043330238E+02  0.24364486358E+03  0.17179166824E+03 0.  0.
        -24    2    3    3    0    0  0.33952996684E+02 -0.17258248032E+03  0.57439730830E+02  0.20431071601E+03  0.86637333184E+02 0.  0.
          6    2    1    2  501    0 -0.24165835830E+02  0.14786142151E+03 -0.16773211881E+02  0.22888882855E+03  0.17222592025E+03 0.  0.
         24    2    5    5    0    0 -0.80159056406E+02  0.83591299378E+02 -0.81691016332E+00  0.14204078359E+03  0.82230999054E+02 0.  0.
          5    1    5    5  501    0  0.55993220576E+02  0.64270122130E+02 -0.15956301718E+02  0.86848044961E+02  0.47000000000E+01 0. -1.
        -11    1    6    6    0    0 -0.52127892643E+02  0.11384276566E+02  0.26925494304E+02  0.59765384529E+02  0.00000000000E+00 0.  1.
         12    1    6    6    0    0 -0.28031163763E+02  0.72207022812E+02 -0.27742404467E+02  0.82275399063E+02  0.00000000000E+00 0. -1.
         -5    1    3    3    0  503 -0.97871608542E+01  0.24721058807E+02  0.28603599407E+02  0.39334147572E+02  0.47000000000E+01 0.  1.
         11    1    4    4    0    0  0.29170121112E+01 -0.57225083400E+01  0.32065680848E+02  0.32702659672E+02  0.00000000000E+00 0. -1.
        -12    1    4    4    0    0  0.31035984573E+02 -0.16685997198E+03  0.25374049982E+02  0.17160805633E+03  0.00000000000E+00 0.  1.
</event>
<event>
12    1  0.8500177E-002  0.1984371E+03  0.7818608E-02  0.1151194E+00
         21   -1    0    0  503  502  0.00000000000E+00  0.00000000000E+00  0.30155978652E+02  0.30155978652E+02  0.00000000000E+00 0. -1.
         21   -1    0    0  501  503 -0.00000000000E+00 -0.00000000000E+00 -0.18968919272E+04  0.18968919272E+04  0.00000000000E+00 0. -1.
          6    2    1    2  501    0 -0.36530282768E+02 -0.95900087864E+02 -0.14740239107E+04  0.14873210029E+04  0.16984106701E+03 0.  0.
         24    2    3    3    0    0 -0.88605577338E+02 -0.77904387191E+02 -0.10824852673E+04  0.10918968246E+04  0.80896722679E+02 0.  0.
         -6    2    1    2    0  502  0.36530282768E+02  0.95900087864E+02 -0.39271203783E+03  0.43972690289E+03  0.16913224431E+03 0.  0.
        -24    2    5    5    0    0  0.64218717834E+02  0.59434521998E+01 -0.22651197906E+03  0.24866828553E+03  0.79805208007E+02 0.  0.
          5    1    3    3  501    0  0.52075294570E+02 -0.17995700673E+02 -0.39153864336E+03  0.39542417831E+03  0.47000000000E+01 0. -1.
        -11    1    4    4    0    0 -0.40271209549E+02 -0.16428296380E+02 -0.15112189746E+03  0.15725611954E+03  0.00000000000E+00 0.  1.
         12    1    4    4    0    0 -0.48334367789E+02 -0.61476090812E+02 -0.93136336986E+03  0.93464070507E+03  0.00000000000E+00 0. -1.
         -5    1    5    5    0  502 -0.27688435066E+02  0.89956635665E+02 -0.16620005876E+03  0.19105861737E+03  0.47000000000E+01 0.  1.
         13    1    6    6    0    0  0.69223224630E+02  0.12338236170E+02 -0.22948913758E+03  0.24001948081E+03  0.00000000000E+00 0. -1.
        -14    1    6    6    0    0 -0.50045067961E+01 -0.63947839702E+01  0.29771585167E+01  0.86488047227E+01  0.00000000000E+00 0.  1.
</event>
<event>
12    1  0.8500177E-002  0.3253070E+03  0.7818608E-02  0.1073346E+00
         21   -1    0    0  501  502  0.00000000000E+00  0.00000000000E+00  0.43742885388E+03  0.43742885388E+03  0.00000000000E+00 0. -1.
         21   -1    0    0  502  503 -0.00000000000E+00 -0.00000000000E+00 -0.35388291501E+03  0.35388291501E+03  0.00000000000E+00 0. -1.
         -6    2    1    2    0  503  0.30618854611E+02 -0.27464428156E+03 -0.18146604320E+03  0.37249777381E+03  0.17163237167E+03 0.  0.
        -24    2    3    3    0    0  0.41233549030E+02 -0.61580503584E+02 -0.68923814160E+02  0.13125787549E+03  0.83580941199E+02 0.  0.
          6    2    1    2  501    0 -0.30618854611E+02  0.27464428156E+03  0.26501198207E+03  0.41881399509E+03  0.16972570867E+03 0.  0.
         24    2    5    5    0    0  0.43757825873E+02  0.17292940956E+03  0.18670521511E+03  0.27038271288E+03  0.80178837958E+02 0.  0.
          5    1    5    5  501    0 -0.74376680484E+02  0.10171487200E+03  0.78306766962E+02  0.14843128221E+03  0.47000000000E+01 0. -1.
        -11    1    6    6    0    0 -0.18945384304E+01 -0.78995167831E+01  0.14058788822E+02  0.16237031269E+02  0.00000000000E+00 0.  1.
         12    1    6    6    0    0  0.45652364304E+02  0.18082892635E+03  0.17264642629E+03  0.25414568161E+03  0.00000000000E+00 0. -1.
         -5    1    3    3    0  503 -0.10614694419E+02 -0.21306377798E+03 -0.11254222904E+03  0.24123989832E+03  0.47000000000E+01 0.  1.
         13    1    4    4    0    0 -0.10695447044E+02 -0.56170130435E+02 -0.49245210068E+02  0.75462353894E+02  0.00000000000E+00 0. -1.
        -14    1    4    4    0    0  0.51928996074E+02 -0.54103731498E+01 -0.19678604092E+02  0.55795521594E+02  0.00000000000E+00 0.  1.
</event>
<event>
12    1  0.8500177E-002  0.1800729E+03  0.7818608E-02  0.1168598E+00
         21   -1    0    0  501  502  0.00000000000E+00  0.00000000000E+00  0.24937190680E+03  0.24937190680E+03  0.00000000000E+00 0.  1.
         21   -1    0    0  502  503 -0.00000000000E+00 -0.00000000000E+00 -0.25515696059E+03  0.25515696059E+03  0.00000000000E+00 0.  1.
         -6    2    1    2    0  503 -0.55247722583E-01  0.50714362016E+02 -0.18134491466E+03  0.25556255812E+03  0.17278395028E+03 0.  0.
        -24    2    3    3    0    0  0.57979946974E+02 -0.43408957815E+01 -0.86915568817E+02  0.13171524652E+03  0.80087904436E+02 0.  0.
          6    2    1    2  501    0  0.55247722583E-01 -0.50714362016E+02  0.17555986086E+03  0.24896630927E+03  0.16908876023E+03 0.  0.
         24    2    5    5    0    0  0.22750087322E+02 -0.89173607127E+02  0.16140867103E+03  0.20188642553E+03  0.78967531611E+02 0.  0.
          5    1    5    5  501    0 -0.22694839600E+02  0.38459245111E+02  0.14151189831E+02  0.47079883736E+02  0.47000000000E+01 0. -1.
        -13    1    6    6    0    0  0.22238514952E+02 -0.32283783300E+02  0.13228849385E+03  0.13797477964E+03  0.00000000000E+00 0.  1.
         14    1    6    6    0    0  0.51157237039E+00 -0.56889823827E+02  0.29120177176E+02  0.63911645888E+02  0.00000000000E+00 0. -1.
         -5    1    3    3    0  503 -0.58035194697E+02  0.55055257798E+02 -0.94429345839E+02  0.12384731160E+03  0.47000000000E+01 0.  1.
         13    1    4    4    0    0  0.76111972539E+02  0.70468274683E+01 -0.75554332183E+02  0.10747626367E+03  0.00000000000E+00 0. -1.
        -14    1    4    4    0    0 -0.18132025565E+02 -0.11387723250E+02 -0.11361236634E+02  0.24238982853E+02  0.00000000000E+00 0.  1.
</event>
<event>
12    1  0.8500177E-002  0.2879437E+03  0.7818608E-02  0.1091605E+00
         21   -1    0    0  503  502  0.00000000000E+00  0.00000000000E+00  0.57971745640E+02  0.57971745640E+02  0.00000000000E+00 0.  1.
         21   -1    0    0  501  503 -0.00000000000E+00 -0.00000000000E+00 -0.14363256678E+04  0.14363256678E+04  0.00000000000E+00 0. -1.
          6    2    1    2  501    0  0.10197641855E+03  0.20549769615E+03 -0.62024986305E+03  0.68382853071E+03  0.17402032562E+03 0.  0.
         24    2    3    3    0    0 -0.13554369248E+02  0.67800580325E+02 -0.20454803811E+03  0.23090695263E+03  0.81838140596E+02 0.  0.
         -6    2    1    2    0  502 -0.10197641855E+03 -0.20549769615E+03 -0.75810405907E+03  0.81046888269E+03  0.17178344617E+03 0.  0.
        -24    2    5    5    0    0 -0.32691874639E+02 -0.21113046117E+02 -0.27241263164E+03  0.28633502587E+03  0.79149136312E+02 0.  0.
          5    1    3    3  501    0  0.11553078780E+03  0.13769711582E+03 -0.41570182494E+03  0.45292157808E+03  0.47000000000E+01 0. -1.
        -11    1    4    4    0    0  0.10313546253E+02  0.13646629357E+02  0.87621565278E+00  0.17127973697E+02  0.00000000000E+00 0.  1.
         12    1    4    4    0    0 -0.23867915500E+02  0.54153950969E+02 -0.20542425377E+03  0.21377897893E+03  0.00000000000E+00 0. -1.
         -5    1    5    5    0  502 -0.69284543910E+02 -0.18438465003E+03 -0.48569142743E+03  0.52413385683E+03  0.47000000000E+01 0.  1.
         11    1    6    6    0    0 -0.27941140499E+02 -0.18259560140E+02 -0.33268029560E+02  0.47126220511E+02  0.00000000000E+00 0. -1.
        -12    1    6    6    0    0 -0.47507341400E+01 -0.28534859775E+01 -0.23914460208E+03  0.23920880536E+03  0.00000000000E+00 0.  1.
</event>
<event>
12    1  0.8500177E-002  0.2049572E+03  0.7818608E-02  0.1145673E+00
         21   -1    0    0  503  502  0.00000000000E+00  0.00000000000E+00  0.93742674508E+03  0.93742674508E+03  0.00000000000E+00 0.  1.
         21   -1    0    0  501  503 -0.00000000000E+00 -0.00000000000E+00 -0.97791626618E+02  0.97791626618E+02  0.00000000000E+00 0.  1.
          6    2    1    2  501    0 -0.10733329102E+03  0.27780089649E+02  0.38755001079E+02  0.20858911724E+03  0.17238126633E+03 0.  0.
         24    2    3    3    0    0 -0.61411268980E+01  0.56979338824E+02  0.29871725535E+02  0.10279000186E+03  0.79931883518E+02 0.  0.
         -6    2    1    2    0  502  0.10733329102E+03 -0.27780089649E+02  0.80088011738E+03  0.82662925446E+03  0.17208949175E+03 0.  0.
        -24    2    5    5    0    0  0.29663789775E+02  0.30185816116E+02  0.43285581679E+03  0.44602897400E+03  0.98927062054E+02 0.  0.
          5    1    3    3  501    0 -0.10119216412E+03 -0.29199249175E+02  0.88832755435E+01  0.10579911538E+03  0.47000000000E+01 0. -1.
        -13    1    4    4    0    0  0.16003332420E+02  0.53511161712E+02 -0.10293737036E+02  0.56793592055E+02  0.00000000000E+00 0.  1.
         14    1    4    4    0    0 -0.22144459318E+02  0.34681771111E+01  0.40165462572E+02  0.45996409801E+02  0.00000000000E+00 0. -1.
         -5    1    5    5    0  502  0.77669501241E+02 -0.57965905765E+02  0.36802430060E+03  0.38060028046E+03  0.47000000000E+01 0.  1.
         13    1    6    6    0    0 -0.31485779669E+01 -0.17447200342E+02  0.12452316041E+02  0.21665145228E+02  0.00000000000E+00 0. -1.
        -14    1    6    6    0    0  0.32812367742E+02  0.47633016458E+02  0.42040350075E+03  0.42436382878E+03  0.00000000000E+00 0.  1.
</event>
<event>
12    1  0.8500177E-002  0.2216872E+03  0.7818608E-02  0.1132804E+00
         21   -1    0    0  503  502  0.00000000000E+00  0.00000000000E+00  0.83614500590E+02  0.83614500590E+02  0.00000000000E+00 0.  1.
         21   -1    0    0  501  503 -0.00000000000E+00 -0.00000000000E+00 -0.80567275946E+03  0.80567275946E+03  0.00000000000E+00 0.  1.
          6    2    1    2  501    0 -0.10063924727E+03 -0.96849149911E+02 -0.59303047080E+03  0.63278506386E+03  0.17094964702E+03 0.  0.
         24    2    3    3    0    0 -0.11227012457E+03 -0.91875814970E+02 -0.59628276274E+03  0.61890418599E+03  0.80271489648E+02 0.  0.
         -6    2    1    2    0  502  0.10063924727E+03  0.96849149911E+02 -0.12902778808E+03  0.25650219620E+03  0.17215455448E+03 0.  0.
        -24    2    5    5    0    0  0.34269271017E+02  0.99786337445E+02 -0.13645939727E+03  0.18948787210E+03  0.78439725232E+02 0.  0.
          5    1    3    3  501    0  0.11630877306E+02 -0.49733349416E+01  0.32522919442E+01  0.13880877863E+02  0.47000000000E+01 0. -1.
        -11    1    4    4    0    0 -0.44497798268E+02 -0.71070299686E+02 -0.43064635669E+03  0.43873377586E+03  0.00000000000E+00 0.  1.
         12    1    4    4    0    0 -0.67772326305E+02 -0.20805515284E+02 -0.16563640605E+03  0.18017041014E+03  0.00000000000E+00 0. -1.
         -5    1    5    5    0  502  0.66369976250E+02 -0.29371875331E+01  0.74316091963E+01  0.67014324091E+02  0.47000000000E+01 0.  1.
         13    1    6    6    0    0 -0.21128024275E+02  0.19139298819E+02 -0.55899383947E+02  0.62749082023E+02  0.00000000000E+00 0. -1.
        -14    1    6    6    0    0  0.55397295291E+02  0.80647038625E+02 -0.80560013324E+02  0.12673879008E+03  0.00000000000E+00 0.  1.
</event>
<event>
12    1  0.8500177E-002  0.3071406E+03  0.7818608E-02  0.1081926E+00
         21   -1    0    0  501  502  0.00000000000E+00  0.00000000000E+00  0.12850125603E+03  0.12850125603E+03  0.00000000000E+00 0.  1.
         21   -1    0    0  502  503 -0.00000000000E+00 -0.00000000000E+00 -0.11470707490E+04  0.11470707490E+04  0.00000000000E+00 0.  1.
         -6    2    1    2    0  503 -0.23440449560E+03  0.98241037749E+02 -0.89466085163E+03  0.94591404335E+03  0.17244874285E+03 0.  0.
        -24    2    3    3    0    0 -0.24621594653E+03  0.92192039242E+02 -0.71841903182E+03  0.76911084823E+03  0.79271225245E+02 0.  0.
          6    2    1    2  501    0  0.23440449560E+03 -0.98241037749E+02 -0.12390864135E+03  0.32965796169E+03  0.16948230365E+03 0.  0.
         24    2    5    5    0    0  0.25119019017E+03 -0.10599964449E+03 -0.10611726225E+03  0.30357005853E+03  0.81002906257E+02 0.  0.
          5    1    5    5  501    0 -0.16785694570E+02  0.77586067375E+01 -0.17791379104E+02  0.26087903157E+02  0.47000000000E+01 0. -1.
        -13    1    6    6    0    0  0.59857236118E+02 -0.55130715801E+02 -0.56915663022E+01  0.81576212632E+02  0.00000000000E+00 0.  1.
         14    1    6    6    0    0  0.19133295405E+03 -0.50868928685E+02 -0.10042569595E+03  0.22199384590E+03  0.00000000000E+00 0. -1.
         -5    1    3    3    0  503  0.11811450931E+02  0.60489985076E+01 -0.17624181981E+03  0.17680319513E+03  0.47000000000E+01 0.  1.
         11    1    4    4    0    0 -0.14839155752E+03  0.76520228740E+02 -0.35288001816E+03  0.39038405060E+03  0.00000000000E+00 0. -1.
        -12    1    4    4    0    0 -0.97824389017E+02  0.15671810502E+02 -0.36553901366E+03  0.37872679762E+03  0.00000000000E+00 0.  1.
</event>
<event>
12    1  0.8500177E-002  0.2054956E+03  0.7818608E-02  0.1145805E+00
         21   -1    0    0  503  502  0.00000000000E+00  0.00000000000E+00  0.10082255740E+04  0.10082255740E+04  0.00000000000E+00 0. -1.
         21   -1    0    0  501  503 -0.00000000000E+00 -0.00000000000E+00 -0.42435654444E+02  0.42435654444E+02  0.00000000000E+00 0. -1.
          6    2    1    2  501    0  0.10585044205E+03  0.22405145351E+02  0.57346191321E+03  0.60916912340E+03  0.17470589110E+03 0.  0.
         24    2    3    3    0    0  0.14375208767E+03  0.21655976422E+02  0.46730634292E+03  0.49634983827E+03  0.82790698688E+02 0.  0.
         -6    2    1    2    0  502 -0.10585044205E+03 -0.22405145351E+02  0.39232800635E+03  0.44149210504E+03  0.17113651753E+03 0.  0.
        -24    2    5    5    0    0  0.32377178996E+00 -0.48761186462E+02  0.20564080674E+03  0.22506242805E+03  0.77376979709E+02 0.  0.
          5    1    3    3  501    0 -0.37901645624E+02  0.74916892929E+00  0.10615557029E+03  0.11281928513E+03  0.47000000000E+01 0. -1.
        -13    1    4    4    0    0  0.49850069737E+01 -0.19347425168E+02  0.91341979702E+02  0.93501499512E+02  0.00000000000E+00 0.  1.
         14    1    4    4    0    0  0.13876708070E+03  0.41003401589E+02  0.37596436322E+03  0.40284833876E+03  0.00000000000E+00 0. -1.
         -5    1    5    5    0  502 -0.10617421384E+03  0.26356041110E+02  0.18668719961E+03  0.21642967700E+03  0.47000000000E+01 0.  1.
         11    1    6    6    0    0 -0.12735914412E+02 -0.34175893937E+02  0.20185322287E+03  0.20512171710E+03  0.00000000000E+00 0. -1.
        -12    1    6    6    0    0  0.13059686202E+02 -0.14585292525E+02  0.37875838741E+01  0.19940710954E+02  0.00000000000E+00 0.  1.
</event>
<event>
12    1  0.8500177E-002  0.1837761E+03  0.7818608E-02  0.1164255E+00
         21   -1    0    0  501  502  0.00000000000E+00  0.00000000000E+00  0.24173025261E+02  0.24173025261E+02  0.00000000000E+00 0. -1.
         21   -1    0    0  502  503 -0.00000000000E+00 -0.00000000000E+00 -0.14474087306E+04  0.14474087306E+04  0.00000000000E+00 0. -1.
         -6    2    1    2    0  503 -0.64651807401E+02 -0.52756314166E+01 -0.85163494723E+03  0.87123805949E+03  0.17194762127E+03 0.  0.
        -24    2    3    3    0    0 -0.16596102917E+02 -0.81506905245E+01 -0.78272534911E+03  0.78704637693E+03  0.80256855841E+02 0.  0.
          6    2    1    2  501    0  0.64651807401E+02  0.52756314166E+01 -0.57160075812E+03  0.60034369639E+03  0.17168994911E+03 0.  0.
         24    2    5    5    0    0  0.11504536968E+02  0.59296226376E+02 -0.40522269216E+03  0.41745955857E+03  0.80116514933E+02 0.  0.
          5    1    5    5  501    0  0.53147270433E+02 -0.54020594959E+02 -0.16637806596E+03  0.18288413782E+03  0.47000000000E+01 0. -1.
        -11    1    6    6    0    0  0.22360057272E+02  0.54911268971E+02 -0.40045185306E+03  0.40481712691E+03  0.00000000000E+00 0.  1.
         12    1    6    6    0    0 -0.10855520304E+02  0.43849574052E+01 -0.47708391025E+01  0.12642431659E+02  0.00000000000E+00 0. -1.
         -5    1    3    3    0  503 -0.48055704483E+02  0.28750591079E+01 -0.68909598127E+02  0.84191682560E+02  0.47000000000E+01 0.  1.
         13    1    4    4    0    0 -0.45005156759E+02 -0.20990041681E+02 -0.55100454902E+03  0.55323779610E+03  0.00000000000E+00 0. -1.
        -14    1    4    4    0    0  0.28409053842E+02  0.12839351157E+02 -0.23172080008E+03  0.23380858083E+03  0.00000000000E+00 0.  1.
</event>
<event>
12    1  0.8500177E-002  0.2032515E+03  0.7818608E-02  0.1147513E+00
         21   -1    0    0  503  502  0.00000000000E+00  0.00000000000E+00  0.40361193182E+03  0.40361193182E+03  0.00000000000E+00 0.  1.
         21   -1    0    0  501  503 -0.00000000000E+00 -0.00000000000E+00 -0.22290828243E+03  0.22290828243E+03  0.00000000000E+00 0. -1.
          6    2    1    2  501    0 -0.21411673002E+01  0.10107111454E+03 -0.14090662166E+03  0.24731732226E+03  0.17632704578E+03 0.  0.
         24    2    3    3    0    0 -0.32442949055E+02  0.92785178075E+02 -0.27771074904E+02  0.12980733690E+03  0.80106665751E+02 0.  0.
         -6    2    1    2    0  502  0.21411673002E+01 -0.10107111454E+03  0.32161027105E+03  0.37920289198E+03  0.17361368625E+03 0.  0.
        -24    2    5    5    0    0 -0.14538101512E+02 -0.19051992295E+02  0.54130085510E+02  0.98894001512E+02  0.79218827130E+02 0.  0.
          5    1    3    3  501    0  0.30301781755E+02  0.82859364607E+01 -0.11313554675E+03  0.11750998536E+03  0.47000000000E+01 0. -1.
        -13    1    4    4    0    0  0.26779925267E+02  0.34430547775E+02 -0.11119999061E+02  0.45014235487E+02  0.00000000000E+00 0.  1.
         14    1    4    4    0    0 -0.59222874321E+02  0.58354630300E+02 -0.16651075844E+02  0.84793101412E+02  0.00000000000E+00 0. -1.
         -5    1    5    5    0  502  0.16679268812E+02 -0.82019122241E+02  0.26748018554E+03  0.28030889047E+03  0.47000000000E+01 0.  1.
         13    1    6    6    0    0 -0.21091966938E+02  0.27325771457E+02  0.32081911169E+02  0.47125554419E+02  0.00000000000E+00 0. -1.
        -14    1    6    6    0    0  0.65538654264E+01 -0.46377763752E+02  0.22048174340E+02  0.51768447093E+02  0.00000000000E+00 0.  1.
</event>
<event>
12    1  0.8500177E-002  0.2029370E+03  0.7818608E-02  0.1147852E+00
         21   -1    0    0  501  502  0.00000000000E+00  0.00000000000E+00  0.97204247157E+02  0.97204247157E+02  0.00000000000E+00 0. -1.
         21   -1    0    0  502  503 -0.00000000000E+00 -0.00000000000E+00 -0.55444570473E+03  0.55444570473E+03  0.00000000000E+00 0. -1.
         -6    2    1    2    0  503 -0.73458840653E+02  0.78447052402E+02 -0.39140552783E+03  0.44088740543E+03  0.17214318387E+03 0.  0.
        -24    2    3    3    0    0 -0.21054204300E+02 -0.17957536855E+02 -0.11144016492E+03  0.14015033560E+03  0.80358282478E+02 0.  0.
          6    2    1    2  501    0  0.73458840653E+02 -0.78447052402E+02 -0.65835929738E+02  0.21076254645E+03  0.16892702579E+03 0.  0.
         24    2    5    5    0    0 -0.19679213776E+02 -0.33831067287E+02  0.16889114652E+00  0.88108522095E+02  0.78938397329E+02 0.  0.
          5    1    5    5  501    0  0.93138054429E+02 -0.44615985115E+02 -0.66004820885E+02  0.12265402436E+03  0.47000000000E+01 0. -1.
        -13    1    6    6    0    0 -0.17518401321E+02 -0.51133021293E+02 -0.23310337519E+02  0.58862994204E+02  0.00000000000E+00 0.  1.
         14    1    6    6    0    0 -0.21608124559E+01  0.17301954006E+02  0.23479228665E+02  0.29245527891E+02  0.00000000000E+00 0. -1.
         -5    1    3    3    0  503 -0.52404636353E+02  0.96404589257E+02 -0.27996536292E+03  0.30073706984E+03  0.47000000000E+01 0.  1.
         13    1    4    4    0    0 -0.23509580389E+02  0.25952230195E+02 -0.24554301230E+02  0.42768356655E+02  0.00000000000E+00 0. -1.
        -14    1    4    4    0    0  0.24553760886E+01 -0.43909767049E+02 -0.86885863687E+02  0.97381978942E+02  0.00000000000E+00 0.  1.
</event>
<event>
12    1  0.8500177E-002  0.2037332E+03  0.7818608E-02  0.1146642E+00
         21   -1    0    0  503  502  0.00000000000E+00  0.00000000000E+00  0.15973056819E+03  0.15973056819E+03  0.00000000000E+00 0.  1.
         21   -1    0    0  501  503 -0.00000000000E+00 -0.00000000000E+00 -0.70261537317E+03  0.70261537317E+03  0.00000000000E+00 0.  1.
          6    2    1    2  501    0  0.42851052770E+02  0.10042741124E+03 -0.61373613736E+03  0.64664450938E+03  0.17191625159E+03 0.  0.
         24    2    3    3    0    0 -0.33337078572E+02  0.87095937621E+01 -0.27886836009E+03  0.29115146071E+03  0.76252167077E+02 0.  0.
         -6    2    1    2    0  502 -0.42851052770E+02 -0.10042741124E+03  0.70851332378E+02  0.21570143198E+03  0.17200383369E+03 0.  0.
        -24    2    5    5    0    0 -0.43555327816E+02 -0.99546919666E+02 -0.91402917831E+01  0.13556391764E+03  0.80544242715E+02 0.  0.
          5    1    3    3  501    0  0.76188131342E+02  0.91717817476E+02 -0.33486777727E+03  0.35549304867E+03  0.47000000000E+01 0. -1.
        -13    1    4    4    0    0 -0.35234913635E+02  0.27930128235E+02 -0.26098441957E+03  0.26482911181E+03  0.00000000000E+00 0.  1.
         14    1    4    4    0    0  0.18978350627E+01 -0.19220534473E+02 -0.17883940520E+02  0.26322348904E+02  0.00000000000E+00 0. -1.
         -5    1    5    5    0  502  0.70427504566E+00 -0.88049157178E+00  0.79991624161E+02  0.80137514340E+02  0.47000000000E+01 0.  1.
         11    1    6    6    0    0  0.13800536004E+01 -0.63971226312E+02  0.25177910970E+02  0.68761541174E+02  0.00000000000E+00 0. -1.
        -12    1    6    6    0    0 -0.44935381416E+02 -0.35575693354E+02 -0.34318202753E+02  0.66802376461E+02  0.00000000000E+00 0.  1.
</event>
<event>
12    1  0.8500177E-002  0.2812279E+03  0.7818608E-02  0.1095071E+00
         21   -1    0    0  501  502  0.00000000000E+00  0.00000000000E+00  0.17671147219E+03  0.17671147219E+03  0.00000000000E+00 0.  1.
         21   -1    0    0  502  503 -0.00000000000E+00 -0.00000000000E+00 -0.45291275302E+03  0.45291275302E+03  0.00000000000E+00 0.  1.
         -6    2    1    2    0  503 -0.17136938613E+03 -0.14168731423E+03 -0.17407216604E+03  0.33042612977E+03  0.17157373555E+03 0.  0.
        -24    2    3    3    0    0 -0.14970610865E+02 -0.52923584087E+02 -0.37371239990E+02  0.10448629292E+03  0.80596221299E+02 0.  0.
          6    2    1    2  501    0  0.17136938613E+03  0.14168731423E+03 -0.10212911480E+03  0.29919809544E+03  0.17218124959E+03 0.  0.
         24    2    5    5    0    0  0.13121893818E+03  0.17221613637E+03 -0.80822373294E+02  0.24424234337E+03  0.79026950513E+02 0.  0.
          5    1    5    5  501    0  0.40150447945E+02 -0.30528822144E+02 -0.21306741506E+02  0.54955752067E+02  0.47000000000E+01 0. -1.
        -11    1    6    6    0    0  0.10436397354E+03  0.94952867005E+02 -0.20431190712E+02  0.14256689475E+03  0.00000000000E+00 0.  1.
         12    1    6    6    0    0  0.26854964648E+02  0.77263269367E+02 -0.60391182582E+02  0.10167544863E+03  0.00000000000E+00 0. -1.
         -5    1    3    3    0  503 -0.15639877526E+03 -0.88763730142E+02 -0.13670092605E+03  0.22593983685E+03  0.47000000000E+01 0.  1.
         11    1    4    4    0    0 -0.26624246985E+01 -0.24840709040E+02  0.24776993020E+02  0.35185916415E+02  0.00000000000E+00 0. -1.
        -12    1    4    4    0    0 -0.12308186166E+02 -0.28082875046E+02 -0.62148233010E+02  0.69300376505E+02  0.00000000000E+00 0.  1.
</event>
<event>
12    1  0.8500177E-002  0.2338350E+03  0.7818608E-02  0.1124248E+00
         21   -1    0    0  503  502  0.00000000000E+00  0.00000000000E+00  0.76658840457E+03  0.76658840457E+03  0.00000000000E+00 0. -1.
         21   -1    0    0  501  503 -0.00000000000E+00 -0.00000000000E+00 -0.77768356468E+02  0.77768356468E+02  0.00000000000E+00 0.  1.
          6    2    1    2  501    0  0.10728553324E+03  0.11418788221E+03  0.21727999080E+03  0.31802149251E+03  0.17140016690E+03 0.  0.
         24    2    3    3    0    0  0.37495400201E+02  0.13321776061E+03  0.13491954021E+03  0.20830306761E+03  0.77678883031E+02 0.  0.
         -6    2    1    2    0  502 -0.10728553324E+03 -0.11418788221E+03  0.47154005730E+03  0.52633526852E+03  0.17357917837E+03 0.  0.
        -24    2    5    5    0    0 -0.41793136882E+02  0.12904671029E+02  0.18661056572E+03  0.20751137318E+03  0.79525278592E+02 0.  0.
          5    1    3    3  501    0  0.69790133036E+02 -0.19029878401E+02  0.82360450590E+02  0.10971842490E+03  0.47000000000E+01 0. -1.
        -11    1    4    4    0    0 -0.23122237150E+02  0.22685328318E+02  0.23004397438E+02  0.39729891432E+02  0.00000000000E+00 0.  1.
         12    1    4    4    0    0  0.60617637351E+02  0.11053243229E+03  0.11191514277E+03  0.16857317618E+03  0.00000000000E+00 0. -1.
         -5    1    5    5    0  502 -0.65492396355E+02 -0.12709255324E+03  0.28492949158E+03  0.31882389534E+03  0.47000000000E+01 0.  1.
         11    1    6    6    0    0  0.22022742227E+02 -0.96545351838E+00  0.75271414140E+02  0.78432895282E+02  0.00000000000E+00 0. -1.
        -12    1    6    6    0    0 -0.63815879109E+02  0.13870124547E+02  0.11133915158E+03  0.12907847790E+03  0.00000000000E+00 0.  1.
</event>
<event>
12    1  0.8500177E-002  0.2407922E+03  0.7818608E-02  0.1119271E+00
         21   -1    0    0  501  502  0.00000000000E+00  0.00000000000E+00  0.47234430279E+03  0.47234430279E+03  0.00000000000E+00 0.  1.
         21   -1    0    0  502  503 -0.00000000000E+00 -0.00000000000E+00 -0.30683377482E+03  0.30683377482E+03  0.00000000000E+00 0.  1.
         -6    2    1    2    0  503  0.11377701105E+02  0.16762231609E+03 -0.21901872676E+03  0.32547816112E+03  0.17245329153E+03 0.  0.
        -24    2    3    3    0    0 -0.60539202331E+01  0.10862869390E+03 -0.54253715040E+02  0.14954150215E+03  0.87076702863E+02 0.  0.
          6    2    1    2  501    0 -0.11377701105E+02 -0.16762231609E+03  0.38452925472E+03  0.45369991649E+03  0.17249398119E+03 0.  0.
         24    2    5    5    0    0  0.42481665890E+02 -0.60772657636E+02  0.25526004669E+03  0.27748896600E+03  0.79651911233E+02 0.  0.
          5    1    5    5  501    0 -0.53859366995E+02 -0.10684965846E+03  0.12926920804E+03  0.17621095049E+03  0.47000000000E+01 0. -1.
        -11    1    6    6    0    0  0.10385680502E+02 -0.29517162334E+02  0.21497372674E+03  0.21723910426E+03  0.00000000000E+00 0.  1.
         12    1    6    6    0    0  0.32095985388E+02 -0.31255495303E+02  0.40286319951E+02  0.60249861741E+02  0.00000000000E+00 0. -1.
         -5    1    3    3    0  503  0.17431621338E+02  0.58993622192E+02 -0.16476501172E+03  0.17593665897E+03  0.47000000000E+01 0.  1.
         11    1    4    4    0    0  0.36185243530E+02  0.23213492858E+02 -0.25609260553E+02  0.50040706690E+02  0.00000000000E+00 0. -1.
        -12    1    4    4    0    0 -0.42239163763E+02  0.85415201043E+02 -0.28644454487E+02  0.99500795462E+02  0.00000000000E+00 0.  1.
</event>
<event>
12    1  0.8500177E-002  0.2157143E+03  0.7818608E-02  0.1137259E+00
         21   -1    0    0  503  502  0.00000000000E+00  0.00000000000E+00  0.15915142505E+03  0.15915142505E+03  0.00000000000E+00 0. -1.
         21   -1    0    0  501  503 -0.00000000000E+00 -0.00000000000E+00 -0.76207890866E+03  0.76207890866E+03  0.00000000000E+00 0. -1.
          6    2    1    2  501    0 -0.52866948753E+02 -0.11601057765E+03 -0.66365488054E+03  0.69783268026E+03  0.17400942730E+03 0.  0.
         24    2    3    3    0    0 -0.50867508793E+02 -0.98231975017E+02 -0.29772130825E+03  0.33143188086E+03  0.94721116458E+02 0.  0.
         -6    2    1    2    0  502  0.52866948753E+02  0.11601057765E+03  0.60727396924E+02  0.22339765345E+03  0.17310495785E+03 0.  0.
        -24    2    5    5    0    0  0.56359055791E+02  0.10132598473E+03  0.10573016515E+03  0.17569889845E+03  0.79043891232E+02 0.  0.
          5    1    3    3  501    0 -0.19994399598E+01 -0.17778602635E+02 -0.36593357229E+03  0.36640079940E+03  0.47000000000E+01 0. -1.
        -13    1    4    4    0    0 -0.52639743561E+02 -0.11469093159E+03 -0.28031396105E+03  0.30740993665E+03  0.00000000000E+00 0.  1.
         14    1    4    4    0    0  0.17722347682E+01  0.16458956571E+02 -0.17407347193E+02  0.24021944213E+02  0.00000000000E+00 0. -1.
         -5    1    5    5    0  502 -0.34921070382E+01  0.14684592921E+02 -0.45002768226E+02  0.47698755003E+02  0.47000000000E+01 0.  1.
         11    1    6    6    0    0  0.69817807534E+02  0.98922472845E+02  0.75945172148E+02  0.14292603351E+03  0.00000000000E+00 0. -1.
        -12    1    6    6    0    0 -0.13458751743E+02  0.24035118855E+01  0.29784993003E+02  0.32772864935E+02  0.00000000000E+00 0.  1.
</event>
<event>
12    1  0.8500177E-002  0.1937098E+03  0.7818608E-02  0.1155161E+00
         21   -1    0    0  501  502  0.00000000000E+00  0.00000000000E+00  0.56322142479E+03  0.56322142479E+03  0.00000000000E+00 0. -1.
         21   -1    0    0  502  503 -0.00000000000E+00 -0.00000000000E+00 -0.82220723920E+02  0.82220723920E+02  0.00000000000E+00 0. -1.
         -6    2    1    2    0  503  0.88620024195E+02  0.29904437561E+02  0.99904210278E+02  0.21794006864E+03  0.16961497049E+03 0.  0.
        -24    2    3    3    0    0  0.40306733831E+02  0.67591341833E+02  0.23448693673E+02  0.11984820966E+03  0.87295646170E+02 0.  0.
          6    2    1    2  501    0 -0.88620024195E+02 -0.29904437561E+02  0.38109649059E+03  0.42750208007E+03  0.16963404507E+03 0.  0.
         24    2    5    5    0    0 -0.57830275016E+02  0.24305917424E+02  0.33431237712E+03  0.34941485630E+03  0.79942841960E+02 0.  0.
          5    1    5    5  501    0 -0.30789749179E+02 -0.54210354985E+02  0.46784113476E+02  0.78087223768E+02  0.47000000000E+01 0. -1.
        -11    1    6    6    0    0 -0.11326143114E+01 -0.99396586290E+00 -0.46113702926E+01  0.48513420092E+01  0.00000000000E+00 0.  1.
         12    1    6    6    0    0 -0.56697660704E+02  0.25299883287E+02  0.33892374741E+03  0.34456351429E+03  0.00000000000E+00 0. -1.
         -5    1    3    3    0  503  0.48313290364E+02 -0.37686904272E+02  0.76455516605E+02  0.98091858983E+02  0.47000000000E+01 0.  1.
         13    1    4    4    0    0  0.18415672460E+02  0.58343251392E+02 -0.24838136748E+02  0.66030334031E+02  0.00000000000E+00 0. -1.
        -14    1    4    4    0    0  0.21891061371E+02  0.92480904406E+01  0.48286830422E+02  0.53817875626E+02  0.00000000000E+00 0.  1.
</event>
<event>
12    1  0.8500177E-002  0.2434877E+03  0.7818608E-02  0.1118288E+00
         21   -1    0    0  501  502  0.00000000000E+00  0.00000000000E+00  0.62150173012E+03  0.62150173012E+03  0.00000000000E+00 0.  1.
         21   -1    0    0  502  503 -0.00000000000E+00 -0.00000000000E+00 -0.32725567397E+03  0.32725567397E+03  0.00000000000E+00 0. -1.
         -6    2    1    2    0  503 -0.90100764796E+01  0.16625615434E+03 -0.25336510889E+03  0.35139738313E+03  0.17766246686E+03 0.  0.
        -24    2    3    3    0    0  0.82669109841E+01  0.17679902915E+03 -0.14830114787E+03  0.24429849233E+03  0.79763929016E+02 0.  0.
          6    2    1    2  501    0  0.90100764796E+01 -0.16625615434E+03  0.54761116504E+03  0.59736002097E+03  0.17099332221E+03 0.  0.
         24    2    5    5    0    0 -0.50001532495E+02 -0.13843354626E+03  0.44872630360E+03  0.47879875691E+03  0.78923723237E+02 0.  0.
          5    1    5    5  501    0  0.59011608974E+02 -0.27822608083E+02  0.98884861435E+02  0.11856126406E+03  0.47000000000E+01 0. -1.
        -11    1    6    6    0    0 -0.64598358456E+02 -0.63574090364E+02  0.25222663169E+03  0.26801657899E+03  0.00000000000E+00 0.  1.
         12    1    6    6    0    0  0.14596825961E+02 -0.74859455897E+02  0.19649967191E+03  0.21078217791E+03  0.00000000000E+00 0. -1.
         -5    1    3    3    0  503 -0.17276987464E+02 -0.10542874800E+02 -0.10506396102E+03  0.10709889080E+03  0.47000000000E+01 0.  1.
         13    1    4    4    0    0 -0.19987327897E+02  0.13211216975E+03 -0.72900719906E+02  0.15220917724E+03  0.00000000000E+00 0. -1.
        -14    1    4    4    0    0  0.28254238881E+02  0.44686859394E+02 -0.75400427963E+02  0.92089315092E+02  0.00000000000E+00 0.  1.
</event>
<event>
12    1  0.8500177E-002  0.2135495E+03  0.7818608E-02  0.1139005E+00
         21   -1    0    0  503  502  0.00000000000E+00  0.00000000000E+00  0.39988162914E+02  0.39988162914E+02  0.00000000000E+00 0.  1.
         21   -1    0    0  501  503 -0.00000000000E+00 -0.00000000000E+00 -0.16637526387E+04  0.16637526387E+04  0.00000000000E+00 0. -1.
          6    2    1    2  501    0 -0.23087302500E+02  0.12288608222E+03 -0.12909238904E+04  0.13082838048E+04  0.17172073381E+03 0.  0.
         24    2    3    3    0    0 -0.50138259832E+02  0.11100184482E+03 -0.62448420176E+03  0.64117291600E+03  0.79290196840E+02 0.  0.
         -6    2    1    2    0  502  0.23087302500E+02 -0.12288608222E+03 -0.33284058537E+03  0.39545699677E+03  0.17311663203E+03 0.  0.
        -24    2    5    5    0    0  0.42485085747E+02 -0.13197222266E+03 -0.33696672279E+03  0.37314227175E+03  0.80417240894E+02 0.  0.
          5    1    3    3  501    0  0.27050957332E+02  0.11884237406E+02 -0.66643968864E+03  0.66711088883E+03  0.47000000000E+01 0. -1.
        -11    1    4    4    0    0  0.30114816368E+01  0.21054482145E+02 -0.25779426701E+02  0.33420638550E+02  0.00000000000E+00 0.  1.
         12    1    4    4    0    0 -0.53149741468E+02  0.89947362673E+02 -0.59870477506E+03  0.60775227745E+03  0.00000000000E+00 0. -1.
         -5    1    5    5    0  502 -0.19397783247E+02  0.90861404307E+01  0.41261374241E+01  0.22314725023E+02  0.47000000000E+01 0.  1.
         11    1    6    6    0    0  0.51219212659E+02 -0.36704130732E+02 -0.16021316557E+03  0.17215940108E+03  0.00000000000E+00 0. -1.
        -12    1    6    6    0    0 -0.87341269127E+01 -0.95268091923E+02 -0.17675355722E+03  0.20098287067E+03  0.00000000000E+00 0.  1.
</event>
<event>
12    1  0.8500177E-002  0.2082402E+03  0.7818608E-02  0.1143198E+00
         21   -1    0    0  503  502  0.00000000000E+00  0.00000000000E+00  0.27280781906E+03  0.27280781906E+03  0.00000000000E+00 0.  1.
         21   -1    0    0  501  503 -0.00000000000E+00 -0.00000000000E+00 -0.20046872127E+03  0.20046872127E+03  0.00000000000E+00 0.  1.
          6    2    1    2  501    0 -0.11421715628E+02  0.11627776461E+03 -0.72566363519E+02  0.22052180233E+03  0.17237463287E+03 0.  0.
         24    2    3    3    0    0  0.10221096718E+02  0.70595106491E+02 -0.11350990788E+03  0.15530079035E+03  0.78394492276E+02 0.  0.
         -6    2    1    2    0  502  0.11421715628E+02 -0.11627776461E+03  0.14490546131E+03  0.25275473800E+03  0.17098652208E+03 0.  0.
        -24    2    5    5    0    0 -0.44366877628E+02 -0.12016788716E+03  0.98074038561E+02  0.17966046772E+03  0.79060898604E+02 0.  0.
          5    1    3    3  501    0 -0.21642812345E+02  0.45682658122E+02  0.40943544357E+02  0.65221011981E+02  0.47000000000E+01 0. -1.
        -11    1    4    4    0    0 -0.30909062218E+02  0.30042983540E+02 -0.25659145830E+02  0.50163161303E+02  0.00000000000E+00 0.  1.
         12    1    4    4    0    0  0.41130158936E+02  0.40552122951E+02 -0.87850762047E+02  0.10513762905E+03  0.00000000000E+00 0. -1.
         -5    1    5    5    0  502  0.55788593256E+02  0.38901225458E+01  0.46831422745E+02  0.73094270276E+02  0.47000000000E+01 0.  1.
         11    1    6    6    0    0 -0.51547945310E+02 -0.35089873083E+02  0.58694612087E+02  0.85636133418E+02  0.00000000000E+00 0. -1.
        -12    1    6    6    0    0  0.71810676822E+01 -0.85078014075E+02  0.39379426475E+02  0.94024334305E+02  0.00000000000E+00 0.  1.
</event>
<event>
12    1  0.8500177E-002  0.2552497E+03  0.7818608E-02  0.1110333E+00
         21   -1    0    0  503  502  0.00000000000E+00  0.00000000000E+00  0.23358731904E+03  0.23358731904E+03  0.00000000000E+00 0. -1.
         21   -1    0    0  501  503 -0.00000000000E+00 -0.00000000000E+00 -0.48716559568E+03  0.48716559568E+03  0.00000000000E+00 0. -1.
          6    2    1    2  501    0  0.24330137711E+02 -0.18662272829E+03 -0.36388199757E+03  0.44448002431E+03  0.17243081376E+03 0.  0.
         24    2    3    3    0    0  0.70225361521E+02 -0.69493317963E+02 -0.15502010879E+03  0.20061315711E+03  0.80333567281E+02 0.  0.
         -6    2    1    2    0  502 -0.24330137711E+02  0.18662272829E+03  0.11030372094E+03  0.27627289041E+03  0.16952817113E+03 0.  0.
        -24    2    5    5    0    0  0.22235512139E+02  0.16903046215E+03  0.12189134059E+03  0.22494832998E+03  0.81722317133E+02 0.  0.
          5    1    3    3  501    0 -0.45895223810E+02 -0.11712941033E+03 -0.20886188878E+03  0.24386686720E+03  0.47000000000E+01 0. -1.
        -13    1    4    4    0    0 -0.13447557761E+02  0.55611157264E+01 -0.23089262768E+02  0.27292432523E+02  0.00000000000E+00 0.  1.
         14    1    4    4    0    0  0.83672919282E+02 -0.75054433689E+02 -0.13193084602E+03  0.17332072458E+03  0.00000000000E+00 0. -1.
         -5    1    5    5    0  502 -0.46565649850E+02  0.17592266141E+02 -0.11587619648E+02  0.51324560427E+02  0.47000000000E+01 0.  1.
         11    1    6    6    0    0  0.38759059546E+02  0.35518528230E+02  0.49351787842E+02  0.72107069748E+02  0.00000000000E+00 0. -1.
        -12    1    6    6    0    0 -0.16523547406E+02  0.13351193392E+03  0.72539552746E+02  0.15284126024E+03  0.00000000000E+00 0.  1.
</event>
<event>
12    1  0.8500177E-002  0.2879678E+03  0.7818608E-02  0.1091600E+00
         21   -1    0    0  501  502  0.00000000000E+00  0.00000000000E+00  0.69122680111E+03  0.69122680111E+03  0.00000000000E+00 0.  1.
         21   -1    0    0  502  503 -0.00000000000E+00 -0.00000000000E+00 -0.18702143486E+03  0.18702143486E+03  0.00000000000E+00 0. -1.
         -6    2    1    2    0  503 -0.50371948107E+02 -0.22419148579E+03  0.51578479792E+03  0.59004775779E+03  0.17124030849E+03 0.  0.
        -24    2    3    3    0    0  0.30343495521E+02 -0.64871184830E+02  0.20619397692E+03  0.23260334591E+03  0.80370156577E+02 0.  0.
          6    2    1    2  501    0  0.50371948107E+02  0.22419148579E+03 -0.11579431670E+02  0.28820047817E+03  0.17356922804E+03 0.  0.
         24    2    5    5    0    0  0.88241714840E+02  0.10847378541E+03  0.20193935752E+02  0.16227850911E+03  0.79833308339E+02 0.  0.
          5    1    5    5  501    0 -0.37869766733E+02  0.11571770038E+03 -0.31773367423E+02  0.12592196906E+03  0.47000000000E+01 0. -1.
        -11    1    6    6    0    0  0.19837312514E+02  0.41440707602E+02  0.43973867062E+02  0.63596793934E+02  0.00000000000E+00 0.  1.
         12    1    6    6    0    0  0.68404402327E+02  0.67033077807E+02 -0.23779931309E+02  0.98681715180E+02  0.00000000000E+00 0. -1.
         -5    1    3    3    0  503 -0.80715443628E+02 -0.15932030096E+03  0.30959082100E+03  0.35744441188E+03  0.47000000000E+01 0.  1.
         13    1    4    4    0    0  0.32613312903E+02 -0.76198472952E+02  0.12121765821E+03  0.14684534763E+03  0.00000000000E+00 0. -1.
        -14    1    4    4    0    0 -0.22698173826E+01  0.11327288121E+02  0.84976318717E+02  0.85757998284E+02  0.00000000000E+00 0.  1.
</event>
<event>
12    1  0.8500177E-002  0.3222545E+03  0.7818608E-02  0.1074707E+00
         21   -1    0    0  503  502  0.00000000000E+00  0.00000000000E+00  0.16551223302E+03  0.16551223302E+03  0.00000000000E+00 0. -1.
         21   -1    0    0  501  503 -0.00000000000E+00 -0.00000000000E+00 -0.90853406741E+03  0.90853406741E+03  0.00000000000E+00 0.  1.
          6    2    1    2  501    0  0.27261577633E+03  0.67372993172E+01 -0.67072831692E+03  0.74378229576E+03  0.17020833015E+03 0.  0.
         24    2    3    3    0    0  0.72334253742E+02  0.23834262470E+02 -0.32755286815E+03  0.34604309342E+03  0.81575883289E+02 0.  0.
         -6    2    1    2    0  502 -0.27261577633E+03 -0.67372993172E+01 -0.72293517472E+02  0.33026400468E+03  0.17170674829E+03 0.  0.
        -24    2    5    5    0    0 -0.16854125005E+03 -0.20553789190E+02  0.22395999778E+02  0.18880518703E+03  0.79480856966E+02 0.  0.
          5    1    3    3  501    0  0.20028152259E+03 -0.17096963153E+02 -0.34317544877E+03  0.39773920234E+03  0.47000000000E+01 0. -1.
        -13    1    4    4    0    0  0.77228479416E+02  0.18971606367E+02 -0.32943029194E+03  0.33889301724E+03  0.00000000000E+00 0.  1.
         14    1    4    4    0    0 -0.48942256746E+01  0.48626561034E+01  0.18774237889E+01  0.71500761826E+01  0.00000000000E+00 0. -1.
         -5    1    5    5    0  502 -0.10407452629E+03  0.13816489873E+02 -0.94689517249E+02  0.14145881765E+03  0.47000000000E+01 0.  1.
         13    1    6    6    0    0 -0.73628469220E+02 -0.45201309243E+02  0.27342418025E+02  0.90619631761E+02  0.00000000000E+00 0. -1.
        -14    1    6    6    0    0 -0.94912780828E+02  0.24647520053E+02 -0.49464182476E+01  0.98185555265E+02  0.00000000000E+00 0.  1.
</event>
<event>
12    1  0.8500177E-002  0.1770251E+03  0.7818608E-02  0.1170878E+00
         21   -1    0    0  503  502  0.00000000000E+00  0.00000000000E+00  0.55888681249E+03  0.55888681249E+03  0.00000000000E+00 0.  1.
         21   -1    0    0  501  503 -0.00000000000E+00 -0.00000000000E+00 -0.61562689065E+02  0.61562689065E+02  0.00000000000E+00 0.  1.
          6    2    1    2  501    0 -0.40350909789E+02  0.31413565430E+01  0.15383591682E+03  0.23402738671E+03  0.17165449131E+03 0.  0.
         24    2    3    3    0    0 -0.15763321752E+02 -0.45226843714E+02  0.15425053188E+03  0.17956369066E+03  0.78459815921E+02 0.  0.
         -6    2    1    2    0  502  0.40350909789E+02 -0.31413565430E+01  0.34348820661E+03  0.38642211485E+03  0.17233641148E+03 0.  0.
        -24    2    5    5    0    0  0.66654617587E+02 -0.35876281977E+02  0.31944189393E+03  0.33780344003E+03  0.79612152638E+02 0.  0.
          5    1    3    3  501    0 -0.24587588037E+02  0.48368200257E+02 -0.41461506032E+00  0.54463696048E+02  0.47000000000E+01 0. -1.
        -11    1    4    4    0    0 -0.12804052419E+02 -0.41207094539E+02  0.24309781414E+02  0.49527102389E+02  0.00000000000E+00 0.  1.
         12    1    4    4    0    0 -0.29592693333E+01 -0.40197491754E+01  0.12994075046E+03  0.13003658827E+03  0.00000000000E+00 0. -1.
         -5    1    5    5    0  502 -0.26303707799E+02  0.32734925434E+02  0.24046312682E+02  0.48618674814E+02  0.47000000000E+01 0.  1.
         13    1    6    6    0    0  0.45516716265E+02 -0.42048878668E+02  0.10270540305E+03  0.11995115453E+03  0.00000000000E+00 0. -1.
        -14    1    6    6    0    0  0.21137901323E+02  0.61725966914E+01  0.21673649087E+03  0.21785228550E+03  0.00000000000E+00 0.  1.
</event>
<event>
12    1  0.8500177E-002  0.1853556E+03  0.7818608E-02  0.1162761E+00
         21   -1    0    0  501  502  0.00000000000E+00  0.00000000000E+00  0.13738738596E+04  0.13738738596E+04  0.00000000000E+00 0. -1.
         21   -1    0    0  502  503 -0.00000000000E+00 -0.00000000000E+00 -0.36405063187E+02  0.36405063187E+02  0.00000000000E+00 0. -1.
         -6    2    1    2    0  503 -0.13703400476E+01  0.69117921505E+02  0.27353299319E+03  0.33031777684E+03  0.17178582719E+03 0.  0.
        -24    2    3    3    0    0 -0.54474609099E+02  0.28548368851E+01  0.18047182915E+03  0.20424902564E+03  0.78561760601E+02 0.  0.
          6    2    1    2  501    0  0.13703400476E+01 -0.69117921505E+02  0.10639358032E+04  0.10799611460E+04  0.17198115736E+03 0.  0.
         24    2    5    5    0    0 -0.38875852431E+02 -0.33070920453E+02  0.31348799570E+03  0.32755623894E+03  0.80083384883E+02 0.  0.
          5    1    5    5  501    0  0.40246192479E+02 -0.36047001052E+02  0.75044780752E+03  0.75240490702E+03  0.47000000000E+01 0. -1.
        -11    1    6    6    0    0  0.10533811527E+01 -0.51129581480E+02  0.16977127179E+03  0.17730659446E+03  0.00000000000E+00 0.  1.
         12    1    6    6    0    0 -0.39929233584E+02  0.18058661026E+02  0.14371672392E+03  0.15024964448E+03  0.00000000000E+00 0. -1.
         -5    1    3    3    0  503  0.53104269051E+02  0.66263084620E+02  0.93061164046E+02  0.12606875120E+03  0.47000000000E+01 0.  1.
         13    1    4    4    0    0 -0.40463175713E+02  0.14720288275E+02  0.29568123268E+02  0.52232455325E+02  0.00000000000E+00 0. -1.
        -14    1    4    4    0    0 -0.14011433386E+02 -0.11865451390E+02  0.15090370588E+03  0.15201657031E+03  0.00000000000E+00 0.  1.
</event>
<event>
12    1  0.8500177E-002  0.1920475E+03  0.7818608E-02  0.1157049E+00
         21   -1    0    0  503  502  0.00000000000E+00  0.00000000000E+00  0.57824877767E+02  0.57824877767E+02  0.00000000000E+00 0.  1.
         21   -1    0    0  501  503 -0.00000000000E+00 -0.00000000000E+00 -0.11192684696E+04  0.11192684696E+04  0.00000000000E+00 0.  1.
          6    2    1    2  501    0 -0.78051757418E+02  0.35037461525E+02 -0.92069429024E+03  0.94051060904E+03  0.17193757324E+03 0.  0.
         24    2    3    3    0    0 -0.28208104698E+02  0.75294414241E+02 -0.39075449098E+03  0.40669107700E+03  0.79016541921E+02 0.  0.
         -6    2    1    2    0  502  0.78051757418E+02 -0.35037461525E+02 -0.14074930163E+03  0.23658273836E+03  0.16982734066E+03 0.  0.
        -24    2    5    5    0    0  0.47369037304E+02 -0.40427994465E+01 -0.16271721422E+03  0.18752381894E+03  0.80175563260E+02 0.  0.
          5    1    3    3  501    0 -0.49843652720E+02 -0.40256952716E+02 -0.52993979925E+03  0.53381953204E+03  0.47000000000E+01 0. -1.
        -13    1    4    4    0    0 -0.38048262399E+02  0.25829398049E+01 -0.16333174397E+03  0.16772477586E+03  0.00000000000E+00 0.  1.
         14    1    4    4    0    0  0.98401577001E+01  0.72711474436E+02 -0.22742274702E+03  0.23896630114E+03  0.00000000000E+00 0. -1.
         -5    1    5    5    0  502  0.30682720115E+02 -0.30994662079E+02  0.21967912592E+02  0.49058919420E+02  0.47000000000E+01 0.  1.
         11    1    6    6    0    0  0.18578692821E+02  0.36232173270E+02 -0.97370184058E+02  0.10554094443E+03  0.00000000000E+00 0. -1.
        -12    1    6    6    0    0  0.28790344483E+02 -0.40274972716E+02 -0.65347030163E+02  0.81982874516E+02  0.00000000000E+00 0.  1.
</event>
<event>
12    1  0.8500177E-002  0.2325480E+03  0.7818608E-02  0.1125617E+00
         21   -1    0    0  503  502  0.00000000000E+00  0.00000000000E+00  0.58138193512E+02  0.58138193512E+02  0.00000000000E+00 0. -1.
         21   -1    0    0  501  503 -0.00000000000E+00 -0.00000000000E+00 -0.98610557542E+03  0.98610557542E+03  0.00000000000E+00 0. -1.
          6    2    1    2  501    0 -0.32246572881E+02  0.14756644436E+03 -0.32581394325E+03  0.40029150583E+03  0.17681308508E+03 0.  0.
         24    2    3    3    0    0  0.47693319929E+02  0.10560639133E+03 -0.21002994990E+03  0.25339339274E+03  0.81659469582E+02 0.  0.
         -6    2    1    2    0  502  0.32246572881E+02 -0.14756644436E+03 -0.60215343866E+03  0.64395226311E+03  0.17108493946E+03 0.  0.
        -24    2    5    5    0    0  0.84243616599E+02 -0.94560231742E+02 -0.34318238565E+03  0.37450570546E+03  0.80260508586E+02 0.  0.
          5    1    3    3  501    0 -0.79939892810E+02  0.41960053024E+02 -0.11578399336E+03  0.14689811309E+03  0.47000000000E+01 0. -1.
        -13    1    4    4    0    0  0.63711154988E+01  0.96713598329E+02 -0.12262142181E+03  0.15630138931E+03  0.00000000000E+00 0.  1.
         14    1    4    4    0    0  0.41322204430E+02  0.88927930035E+01 -0.87408528088E+02  0.97092003424E+02  0.00000000000E+00 0. -1.
         -5    1    5    5    0  502 -0.51997043718E+02 -0.53006212614E+02 -0.25897105300E+03  0.26944655764E+03  0.47000000000E+01 0.  1.
         11    1    6    6    0    0  0.29217986624E+02 -0.90096423810E+02 -0.21913714669E+03  0.23873027748E+03  0.00000000000E+00 0. -1.
        -12    1    6    6    0    0  0.55025629975E+02 -0.44638079323E+01 -0.12404523896E+03  0.13577542798E+03  0.00000000000E+00 0.  1.
</event>
<event>
12    1  0.8500177E-002  0.2494026E+03  0.7818608E-02  0.1113797E+00
         21   -1    0    0  501  502  0.00000000000E+00  0.00000000000E+00  0.33105720367E+02  0.33105720367E+02  0.00000000000E+00 0. -1.
         21   -1    0    0  502  503 -0.00000000000E+00 -0.00000000000E+00 -0.19133587423E+04  0.19133587423E+04  0.00000000000E+00 0.  1.
         -6    2    1    2    0  503 -0.75937330137E+01 -0.17977309537E+03 -0.10819771507E+04  0.11103495796E+04  0.17270090826E+03 0.  0.
        -24    2    3    3    0    0 -0.45251575340E+02 -0.17645178350E+03 -0.73517556103E+03  0.76146195186E+03  0.78474592223E+02 0.  0.
          6    2    1    2  501    0  0.75937330137E+01  0.17977309537E+03 -0.79827587121E+03  0.83611488303E+03  0.17166158705E+03 0.  0.
         24    2    5    5    0    0  0.72061346422E+02  0.87828256283E+02 -0.44991777452E+03  0.47007474842E+03  0.75084119672E+02 0.  0.
          5    1    5    5  501    0 -0.64467613408E+02  0.91944839085E+02 -0.34835809669E+03  0.36604013460E+03  0.47000000000E+01 0. -1.
        -11    1    6    6    0    0  0.11472850136E+02  0.29973849667E+02 -0.26656543947E+03  0.26849057986E+03  0.00000000000E+00 0.  1.
         12    1    6    6    0    0  0.60588496286E+02  0.57854406616E+02 -0.18335233505E+03  0.20158416857E+03  0.00000000000E+00 0. -1.
         -5    1    3    3    0  503  0.37657842326E+02 -0.33213118644E+01 -0.34680158969E+03  0.34888762777E+03  0.47000000000E+01 0.  1.
         11    1    4    4    0    0 -0.57940230128E+02 -0.13539926560E+03 -0.46138936762E+03  0.48432445731E+03  0.00000000000E+00 0. -1.
        -12    1    4    4    0    0  0.12688654789E+02 -0.41052517905E+02 -0.27378619340E+03  0.27713749455E+03  0.00000000000E+00 0.  1.
</event>
<event>
12    1  0.8500177E-002  0.1870841E+03  0.7818608E-02  0.1161552E+00
         21   -1    0    0  501  502  0.00000000000E+00  0.00000000000E+00  0.39161734235E+03  0.39161734235E+03  0.00000000000E+00 0. -1.
         21   -1    0    0  502  503 -0.00000000000E+00 -0.00000000000E+00 -0.11529573261E+03  0.11529573261E+03  0.00000000000E+00 0. -1.
         -6    2    1    2    0  503 -0.62619295272E+02  0.29495076175E+02  0.25985961683E+03  0.31910608846E+03  0.17178631952E+03 0.  0.
        -24    2    3    3    0    0 -0.62932034846E+02  0.10318838645E+01  0.26845653580E+03  0.28900213294E+03  0.86555273873E+02 0.  0.
          6    2    1    2  501    0  0.62619295272E+02 -0.29495076175E+02  0.16461992910E+02  0.18780698649E+03  0.17380831771E+03 0.  0.
         24    2    5    5    0    0  0.89225560608E+02 -0.56967811342E+00  0.56189918862E+02  0.13172695343E+03  0.78950351982E+02 0.  0.
          5    1    5    5  501    0 -0.26606265336E+02 -0.28925398061E+02 -0.39727925952E+02  0.56080033065E+02  0.47000000000E+01 0. -1.
        -11    1    6    6    0    0 -0.11619658459E+02  0.11280732530E+02  0.11641507203E+01  0.16236583261E+02  0.00000000000E+00 0.  1.
         12    1    6    6    0    0  0.10084521907E+03 -0.11850410643E+02  0.55025768142E+02  0.11549037016E+03  0.00000000000E+00 0. -1.
         -5    1    3    3    0  503  0.31273957434E+00  0.28463192310E+02 -0.85969189675E+01  0.30103955525E+02  0.47000000000E+01 0.  1.
         13    1    4    4    0    0 -0.10070081486E+01  0.34846308620E+02  0.66635785986E+02  0.75203771606E+02  0.00000000000E+00 0. -1.
        -14    1    4    4    0    0 -0.61925026698E+02 -0.33814424755E+02  0.20182074981E+03  0.21379836133E+03  0.00000000000E+00 0.  1.
</event>
<event>
12    1  0.8500177E-002  0.2237146E+03  0.7818608E-02  0.1131638E+00
         21   -1    0    0  501  502  0.00000000000E+00  0.00000000000E+00  0.37072445816E+03  0.37072445816E+03  0.00000000000E+00 0. -1.
         21   -1    0    0  502  503 -0.00000000000E+00 -0.00000000000E+00 -0.35868665104E+03  0.35868665104E+03  0.00000000000E+00 0. -1.
         -6    2    1    2    0  503 -0.82749250759E+02  0.11143167068E+03  0.29507977031E+03  0.37029756339E+03  0.17545301045E+03 0.  0.
        -24    2    3    3    0    0 -0.70829147921E+02  0.14810559185E+03  0.25882370877E+03  0.31715946647E+03  0.81537601252E+02 0.  0.
          6    2    1    2  501    0  0.82749250759E+02 -0.11143167068E+03 -0.28304196319E+03  0.35911354581E+03  0.17200386659E+03 0.  0.
         24    2    5    5    0    0  0.95509841984E+02 -0.14143450343E+03 -0.23813910800E+03  0.30342369874E+03  0.78929446484E+02 0.  0.
          5    1    5    5  501    0 -0.12760591225E+02  0.30002832753E+02 -0.44902855195E+02  0.55689847066E+02  0.47000000000E+01 0. -1.
        -13    1    6    6    0    0  0.61801173002E+02 -0.78364697128E+02 -0.73568253149E+02  0.12398668724E+03  0.00000000000E+00 0.  1.
         14    1    6    6    0    0  0.33708668982E+02 -0.63069806303E+02 -0.16457085485E+03  0.17943701150E+03  0.00000000000E+00 0. -1.
         -5    1    3    3    0  503 -0.11920102838E+02 -0.36673921174E+02  0.36256061546E+02  0.53138096925E+02  0.47000000000E+01 0.  1.
         13    1    4    4    0    0 -0.14115343698E+02  0.71024596805E+02  0.17703827596E+03  0.19127542298E+03  0.00000000000E+00 0. -1.
        -14    1    4    4    0    0 -0.56713804223E+02  0.77080995047E+02  0.81785432802E+02  0.12588404349E+03  0.00000000000E+00 0.  1.
</event>
<event>
12    1  0.8500177E-002  0.2097611E+03  0.7818608E-02  0.1141803E+00
         21   -1    0    0  503  502  0.00000000000E+00  0.00000000000E+00  0.14196594721E+04  0.14196594721E+04  0.00000000000E+00 0. -1.
         21   -1    0    0  501  503 -0.00000000000E+00 -0.00000000000E+00 -0.10497241541E+03  0.10497241541E+03  0.00000000000E+00 0. -1.
          6    2    1    2  501    0  0.10924467900E+03  0.45654243495E+02  0.17120609861E+02  0.21022007561E+03  0.17286021830E+03 0.  0.
         24    2    3    3    0    0  0.74642189960E+02  0.89490672100E+02  0.43667625815E+02  0.14820557104E+03  0.80485979086E+02 0.  0.
         -6    2    1    2    0  502 -0.10924467900E+03 -0.45654243495E+02  0.12975664468E+04  0.13144118119E+04  0.17315027430E+03 0.  0.
        -24    2    5    5    0    0 -0.56515482209E+02  0.14015282912E+02  0.10393469530E+04  0.10441522745E+04  0.81372327595E+02 0.  0.
          5    1    3    3  501    0  0.34602489038E+02 -0.43836428605E+02 -0.26547015954E+02  0.62014504566E+02  0.47000000000E+01 0. -1.
        -13    1    4    4    0    0  0.50790850079E+02  0.67052373054E+02 -0.10641239874E+02  0.84787777244E+02  0.00000000000E+00 0.  1.
         14    1    4    4    0    0  0.23851339881E+02  0.22438299045E+02  0.54308865688E+02  0.63417793800E+02  0.00000000000E+00 0. -1.
         -5    1    5    5    0  502 -0.52729196789E+02 -0.59669526407E+02  0.25821949381E+03  0.27025953741E+03  0.47000000000E+01 0.  1.
         11    1    6    6    0    0 -0.12053360454E+02 -0.33057357032E+02  0.34169043555E+03  0.34349734511E+03  0.00000000000E+00 0. -1.
        -12    1    6    6    0    0 -0.44462121755E+02  0.47072639944E+02  0.69765651748E+03  0.70065492940E+03  0.00000000000E+00 0.  1.
</event>
<event>
12    1  0.8500177E-002  0.1822239E+03  0.7818608E-02  0.1165906E+00
         21   -1    0    0  503  502  0.00000000000E+00  0.00000000000E+00  0.10542089252E+03  0.10542089252E+03  0.00000000000E+00 0.  1.
         21   -1    0    0  501  503 -0.00000000000E+00 -0.00000000000E+00 -0.34878137300E+03  0.34878137300E+03  0.00000000000E+00 0.  1.
          6    2    1    2  501    0 -0.53350265423E+02 -0.27072100060E+02 -0.19445724819E+03  0.26649419466E+03  0.17212316808E+03 0.  0.
         24    2    3    3    0    0 -0.21875261293E+01 -0.74917277859E+02 -0.11568887292E+03  0.16097958016E+03  0.83145211033E+02 0.  0.
         -6    2    1    2    0  502  0.53350265423E+02  0.27072100060E+02 -0.48903232292E+02  0.18770807086E+03  0.17106619863E+03 0.  0.
        -24    2    5    5    0    0 -0.23947461614E+02  0.49067935909E+02 -0.43732271475E+02  0.10703847166E+03  0.81015921857E+02 0.  0.
          5    1    3    3  501    0 -0.51162739293E+02  0.47845177799E+02 -0.78768375265E+02  0.10551461450E+03  0.47000000000E+01 0. -1.
        -13    1    4    4    0    0  0.13538600220E+01 -0.77997255627E+02 -0.12682440762E+03  0.14889538338E+03  0.00000000000E+00 0.  1.
         14    1    4    4    0    0 -0.35413861513E+01  0.30799777676E+01  0.11135534697E+02  0.12084196784E+02  0.00000000000E+00 0. -1.
         -5    1    5    5    0  502  0.77297727036E+02 -0.21995835849E+02 -0.51709608174E+01  0.80669599202E+02  0.47000000000E+01 0.  1.
         13    1    6    6    0    0  0.11777909851E+02  0.36124038418E+02 -0.55499956978E+02  0.67260021831E+02  0.00000000000E+00 0. -1.
        -14    1    6    6    0    0 -0.35725371465E+02  0.12943897491E+02  0.11767685503E+02  0.39778449827E+02  0.00000000000E+00 0.  1.
</event>
<event>
12    1  0.8500177E-002  0.1906182E+03  0.7818608E-02  0.1157950E+00
         21   -1    0    0  501  502  0.00000000000E+00  0.00000000000E+00  0.31599610759E+03  0.31599610759E+03  0.00000000000E+00 0.  1.
         21   -1    0    0  502  503 -0.00000000000E+00 -0.00000000000E+00 -0.13972417184E+03  0.13972417184E+03  0.00000000000E+00 0.  1.
         -6    2    1    2    0  503 -0.54008102524E+02  0.63656749949E+02 -0.80107507055E+01  0.19058748485E+03  0.17114426751E+03 0.  0.
        -24    2    3    3    0    0  0.20821889122E+02  0.43407297026E+02  0.32054176134E+02  0.10319837594E+03  0.85467479703E+02 0.  0.
          6    2    1    2  501    0  0.54008102524E+02 -0.63656749949E+02  0.18428268646E+03  0.26513279458E+03  0.17136578795E+03 0.  0.
         24    2    5    5    0    0  0.88668953255E+02 -0.20076922820E+02  0.73390631841E+02  0.14095665483E+03  0.78850032323E+02 0.  0.
          5    1    5    5  501    0 -0.34660850731E+02 -0.43579827130E+02  0.11089205461E+03  0.12417613975E+03  0.47000000000E+01 0. -1.
        -13    1    6    6    0    0  0.49153417706E+02 -0.40050353155E+02  0.72983462258E+02  0.96678203455E+02  0.00000000000E+00 0.  1.
         14    1    6    6    0    0  0.39515535548E+02  0.19973430335E+02  0.40716958292E+00  0.44278451374E+02  0.00000000000E+00 0. -1.
         -5    1    3    3    0  503 -0.74829991646E+02  0.20249452924E+02 -0.40064926839E+02  0.87389108910E+02  0.47000000000E+01 0.  1.
         11    1    4    4    0    0  0.22490768903E+02 -0.22555156928E+02  0.69580973375E+01  0.32603449333E+02  0.00000000000E+00 0. -1.
        -12    1    4    4    0    0 -0.16688797808E+01  0.65962453953E+02  0.25096078796E+02  0.70594926604E+02  0.00000000000E+00 0.  1.
</event>
<event>
12    1  0.8500177E-002  0.1787177E+03  0.7818608E-02  0.1169111E+00
         21   -1    0    0  503  502  0.00000000000E+00  0.00000000000E+00  0.58814803730E+02  0.58814803730E+02  0.00000000000E+00 0. -1.
         21   -1    0    0  501  503 -0.00000000000E+00 -0.00000000000E+00 -0.61161385296E+03  0.61161385296E+03  0.00000000000E+00 0. -1.
          6    2    1    2  501    0 -0.35541932560E+02 -0.34000886310E+02 -0.38907558226E+03  0.42805417222E+03  0.17155546160E+03 0.  0.
         24    2    3    3    0    0 -0.32817845070E+02  0.33047970521E+02 -0.31350221049E+03  0.32687910426E+03  0.79982082451E+02 0.  0.
         -6    2    1    2    0  502  0.35541932560E+02  0.34000886310E+02 -0.16372346696E+03  0.24237448446E+03  0.17181597087E+03 0.  0.
        -24    2    5    5    0    0 -0.28498110815E+02 -0.14441119372E+02 -0.38995338271E+02  0.93959690198E+02  0.79291227298E+02 0.  0.
          5    1    3    3  501    0 -0.27240874901E+01 -0.67048856831E+02 -0.75573371778E+02  0.10117506796E+03  0.47000000000E+01 0. -1.
        -13    1    4    4    0    0  0.14859617159E+02  0.34734938888E+02 -0.78944489069E+02  0.87518892567E+02  0.00000000000E+00 0.  1.
         14    1    4    4    0    0 -0.47677462228E+02 -0.16869683676E+01 -0.23455772142E+03  0.23936021170E+03  0.00000000000E+00 0. -1.
         -5    1    5    5    0  502  0.64040043374E+02  0.48442005681E+02 -0.12472812869E+03  0.14841479427E+03  0.47000000000E+01 0.  1.
         13    1    6    6    0    0  0.19373778273E+02  0.17623580430E+02 -0.38587432227E+01  0.26473076342E+02  0.00000000000E+00 0. -1.
        -14    1    6    6    0    0 -0.47871889088E+02 -0.32064699801E+02 -0.35136595048E+02  0.67486613856E+02  0.00000000000E+00 0.  1.
</event>
<event>
12    1  0.8500177E-002  0.2074820E+03  0.7818608E-02  0.1144563E+00
         21   -1    0    0  503  502  0.00000000000E+00  0.00000000000E+00  0.91583847990E+03  0.91583847990E+03  0.00000000000E+00 0. -1.
         21   -1    0    0  501  503 -0.00000000000E+00 -0.00000000000E+00 -0.99242631342E+02  0.99242631342E+02  0.00000000000E+00 0. -1.
          6    2    1    2  501    0  0.18303125280E+02 -0.10522598652E+03  0.38488142134E+02  0.21102156199E+03  0.17787987494E+03 0.  0.
         24    2    3    3    0    0 -0.37273816107E+02 -0.58681512825E+02  0.74674426526E+02  0.12986294185E+03  0.80344610116E+02 0.  0.
         -6    2    1    2    0  502 -0.18303125280E+02  0.10522598652E+03  0.77810770642E+03  0.80405954925E+03  0.17219942889E+03 0.  0.
        -24    2    5    5    0    0 -0.16062348895E+02  0.13926394895E+03  0.70781634975E+03  0.72578714806E+03  0.78170024850E+02 0.  0.
          5    1    3    3  501    0  0.55576941387E+02 -0.46544473691E+02 -0.36186284392E+02  0.81158620141E+02  0.47000000000E+01 0. -1.
        -11    1    4    4    0    0  0.17816491523E+02  0.75372437228E+01  0.79971424081E+01  0.20933028921E+02  0.00000000000E+00 0.  1.
         12    1    4    4    0    0 -0.55090307630E+02 -0.66218756547E+02  0.66677284118E+02  0.10892991293E+03  0.00000000000E+00 0. -1.
         -5    1    5    5    0  502 -0.22407763849E+01 -0.34037962430E+02  0.70291356671E+02  0.78272401189E+02  0.47000000000E+01 0.  1.
         11    1    6    6    0    0  0.28327333261E+02  0.43809563200E+02  0.17243068905E+03  0.18015009898E+03  0.00000000000E+00 0. -1.
        -12    1    6    6    0    0 -0.44389682156E+02  0.95454385745E+02  0.53538566070E+03  0.54563704907E+03  0.00000000000E+00 0.  1.
</event>
<event>
12    1  0.8500177E-002  0.2136375E+03  0.7818608E-02  0.1138721E+00
         21   -1    0    0  503  502  0.00000000000E+00  0.00000000000E+00  0.69176635372E+02  0.69176635372E+02  0.00000000000E+00 0.  1.
         21   -1    0    0  501  503 -0.00000000000E+00 -0.00000000000E+00 -0.81971555126E+03  0.81971555126E+03  0.00000000000E+00 0.  1.
          6    2    1    2  501    0 -0.30482691670E+02  0.12297109488E+03 -0.17890591130E+03  0.27864202017E+03  0.17199699311E+03 0.  0.
         24    2    3    3    0    0 -0.50730086619E+02  0.15140328119E+03 -0.15358367423E+03  0.23526400833E+03  0.79149942390E+02 0.  0.
         -6    2    1    2    0  502  0.30482691670E+02 -0.12297109488E+03 -0.57163300458E+03  0.61025016646E+03  0.17201711854E+03 0.  0.
        -24    2    5    5    0    0 -0.24566790718E+02 -0.12168092597E+03 -0.31509128506E+03  0.34782331207E+03  0.79301724766E+02 0.  0.
          5    1    3    3  501    0  0.20247394949E+02 -0.28432186315E+02 -0.25322237069E+02  0.43378011839E+02  0.47000000000E+01 0. -1.
        -11    1    4    4    0    0 -0.16154254559E+02  0.27608702697E+02 -0.82278208636E+02  0.88277426454E+02  0.00000000000E+00 0.  1.
         12    1    4    4    0    0 -0.34575832060E+02  0.12379457850E+03 -0.71305465598E+02  0.14698658188E+03  0.00000000000E+00 0. -1.
         -5    1    5    5    0  502  0.55049482388E+02 -0.12901689102E+01 -0.25654171953E+03  0.26242685439E+03  0.47000000000E+01 0.  1.
         13    1    6    6    0    0 -0.38694504351E+02 -0.19838243741E+02 -0.11305976197E+03  0.12113352285E+03  0.00000000000E+00 0. -1.
        -14    1    6    6    0    0  0.14127713633E+02 -0.10184268223E+03 -0.20203152308E+03  0.22668978922E+03  0.00000000000E+00 0.  1.
</event>
<event>
12    1  0.8500177E-002  0.2514396E+03  0.7818608E-02  0.1112660E+00
         21   -1    0    0  501  502  0.00000000000E+00  0.00000000000E+00  0.13355723319E+04  0.13355723319E+04  0.00000000000E+00 0.  1.
         21   -1    0    0  502  503 -0.00000000000E+00 -0.00000000000E+00 -0.63159531977E+02  0.63159531977E+02  0.00000000000E+00 0.  1.
         -6    2    1    2    0  503 -0.14483417986E+03 -0.11069343807E+03  0.28114658124E+03  0.37607327839E+03  0.17075635768E+03 0.  0.
        -24    2    3    3    0    0 -0.13662237738E+02 -0.39902637715E+02  0.48150507215E+02  0.99438724647E+02  0.76096723830E+02 0.  0.
          6    2    1    2  501    0  0.14483417986E+03  0.11069343807E+03  0.99126621870E+03  0.10226585855E+04  0.17318166554E+03 0.  0.
         24    2    5    5    0    0  0.48256779099E+02  0.11032426324E+03  0.72793974202E+03  0.74214075372E+03  0.79852805392E+02 0.  0.
          5    1    5    5  501    0  0.96577400758E+02  0.36917482681E+00  0.26332647668E+03  0.28051783178E+03  0.47000000000E+01 0. -1.
        -13    1    6    6    0    0  0.57162562458E+02  0.32731746907E+02  0.30207798062E+03  0.30917637714E+03  0.00000000000E+00 0.  1.
         14    1    6    6    0    0 -0.89057833589E+01  0.77592516337E+02  0.42586176140E+03  0.43296437659E+03  0.00000000000E+00 0. -1.
         -5    1    3    3    0  503 -0.13117194212E+03 -0.70790800355E+02  0.23299607402E+03  0.27663455374E+03  0.47000000000E+01 0.  1.
         13    1    4    4    0    0  0.20547339839E+02 -0.45448298833E+02  0.39749059971E+02  0.63778748889E+02  0.00000000000E+00 0. -1.
        -14    1    4    4    0    0 -0.34209577577E+02  0.55456611177E+01  0.84014472440E+01  0.35659975758E+02  0.00000000000E+00 0.  1.
</event>
<event>
12    1  0.8500177E-002  0.3504025E+03  0.7818608E-02  0.1062570E+00
         21   -1    0    0  501  502  0.00000000000E+00  0.00000000000E+00  0.10082847691E+04  0.10082847691E+04  0.00000000000E+00 0. -1.
         21   -1    0    0  502  503 -0.00000000000E+00 -0.00000000000E+00 -0.17667517546E+03  0.17667517546E+03  0.00000000000E+00 0.  1.
         -6    2    1    2    0  503 -0.30437822329E+03  0.25478226194E+02  0.84784674915E+02  0.36051403315E+03  0.17171687214E+03 0.  0.
        -24    2    3    3    0    0 -0.24999030525E+03 -0.35772864263E+02  0.41714670564E+02  0.26784873768E+03  0.78917564583E+02 0.  0.
          6    2    1    2  501    0  0.30437822329E+03 -0.25478226194E+02  0.74682491876E+03  0.82444591143E+03  0.16931733158E+03 0.  0.
         24    2    5    5    0    0  0.25786404156E+03 -0.84744263778E+01  0.45859226416E+03  0.53195172091E+03  0.78103065245E+02 0.  0.
          5    1    5    5  501    0  0.46514181727E+02 -0.17003799816E+02  0.28823265460E+03  0.29249419052E+03  0.47000000000E+01 0. -1.
        -11    1    6    6    0    0  0.16926123009E+03 -0.40565980311E+02  0.32155845938E+03  0.36564300290E+03  0.00000000000E+00 0.  1.
         12    1    6    6    0    0  0.88602811475E+02  0.32091553933E+02  0.13703380478E+03  0.16630871801E+03  0.00000000000E+00 0. -1.
         -5    1    3    3    0  503 -0.54387918045E+02  0.61251090456E+02  0.43070004351E+02  0.92665295479E+02  0.47000000000E+01 0.  1.
         11    1    4    4    0    0 -0.22208326731E+02  0.17221057179E+01  0.29113800193E+02  0.36657724779E+02  0.00000000000E+00 0. -1.
        -12    1    4    4    0    0 -0.22778197851E+03 -0.37494969980E+02  0.12600870371E+02  0.23119101290E+03  0.00000000000E+00 0.  1.
</event>
<event>
12    1  0.8500177E-002  0.2986411E+03  0.7818608E-02  0.1085962E+00
         21   -1    0    0  503  502  0.00000000000E+00  0.00000000000E+00  0.55306141477E+03  0.55306141477E+03  0.00000000000E+00 0.  1.
         21   -1    0    0  501  503 -0.00000000000E+00 -0.00000000000E+00 -0.17172327390E+03  0.17172327390E+03  0.00000000000E+00 0. -1.
          6    2    1    2  501    0 -0.13025567680E+03 -0.20617377861E+03  0.10038323157E+03  0.31475765260E+03  0.17181798031E+03 0.  0.
         24    2    3    3    0    0 -0.78567680297E+02 -0.29820952650E+02  0.75272706444E+02  0.12921898633E+03  0.63003146649E+02 0.  0.
         -6    2    1    2    0  502  0.13025567680E+03  0.20617377861E+03  0.28095490930E+03  0.41002703607E+03  0.17237268034E+03 0.  0.
        -24    2    5    5    0    0  0.15910933193E+01  0.50599956753E+02  0.10737081196E+03  0.14373524510E+03  0.81045926621E+02 0.  0.
          5    1    3    3  501    0 -0.51687996506E+02 -0.17635282596E+03  0.25110525129E+02  0.18553866627E+03  0.47000000000E+01 0. -1.
        -11    1    4    4    0    0 -0.32743580312E+02  0.19164214980E+02  0.28216856024E+02  0.47282133532E+02  0.00000000000E+00 0.  1.
         12    1    4    4    0    0 -0.45824099985E+02 -0.48985167630E+02  0.47055850421E+02  0.81936852795E+02  0.00000000000E+00 0. -1.
         -5    1    5    5    0  502  0.12866458348E+03  0.15557382186E+03  0.17358409733E+03  0.26629179097E+03  0.47000000000E+01 0.  1.
         13    1    6    6    0    0  0.25232756155E+02  0.57659282634E+02  0.47104008738E+02  0.78613437123E+02  0.00000000000E+00 0. -1.
        -14    1    6    6    0    0 -0.23641662836E+02 -0.70593258813E+01  0.60266803227E+02  0.65121807982E+02  0.00000000000E+00 0.  1.
</event>
<event>
12    1  0.8500177E-002  0.2257789E+03  0.7818608E-02  0.1130093E+00
         21   -1    0    0  503  502  0.00000000000E+00  0.00000000000E+00  0.21968595401E+03  0.21968595401E+03  0.00000000000E+00 0. -1.
         21   -1    0    0  501  503 -0.00000000000E+00 -0.00000000000E+00 -0.23039392865E+03  0.23039392865E+03  0.00000000000E+00 0.  1.
          6    2    1    2  501    0  0.68786693575E+02 -0.12648166162E+03  0.85043149836E+01  0.22593905620E+03  0.17391639889E+03 0.  0.
         24    2    3    3    0    0  0.12710461467E+02 -0.14954338970E+03 -0.78190674062E+01  0.16297136669E+03  0.63037665798E+02 0.  0.
         -6    2    1    2    0  502 -0.68786693575E+02  0.12648166162E+03 -0.19212289626E+02  0.22414082645E+03  0.17070670190E+03 0.  0.
        -24    2    5    5    0    0 -0.53491233072E+02  0.55675245322E+02  0.52018335822E+02  0.12243835990E+03  0.79524837360E+02 0.  0.
          5    1    3    3  501    0  0.56076232108E+02  0.23061728088E+02  0.16323382390E+02  0.62967689512E+02  0.47000000000E+01 0. -1.
        -11    1    4    4    0    0 -0.24272512109E+02 -0.36762693159E+02 -0.48726353193E+00  0.44055509056E+02  0.00000000000E+00 0.  1.
         12    1    4    4    0    0  0.36982973576E+02 -0.11278069655E+03 -0.73318038743E+01  0.11891585763E+03  0.00000000000E+00 0. -1.
         -5    1    5    5    0  502 -0.15295460503E+02  0.70806416295E+02 -0.71230625449E+02  0.10170246655E+03  0.47000000000E+01 0.  1.
         13    1    6    6    0    0 -0.60466217201E+02  0.68929505996E+02  0.31328667234E+02  0.96896468512E+02  0.00000000000E+00 0. -1.
        -14    1    6    6    0    0  0.69749841289E+01 -0.13254260674E+02  0.20689668589E+02  0.25541891393E+02  0.00000000000E+00 0.  1.
</event>
<event>
12    1  0.8500177E-002  0.3648860E+03  0.7818608E-02  0.1056672E+00
         21   -1    0    0  501  502  0.00000000000E+00  0.00000000000E+00  0.45582320257E+03  0.45582320257E+03  0.00000000000E+00 0. -1.
         21   -1    0    0  502  503 -0.00000000000E+00 -0.00000000000E+00 -0.33307036096E+03  0.33307036096E+03  0.00000000000E+00 0.  1.
         -6    2    1    2    0  503  0.28128776635E+03  0.15599918176E+03 -0.77059007684E+02  0.37293420204E+03  0.17228835183E+03 0.  0.
        -24    2    3    3    0    0  0.97550448381E+02  0.63160382627E+02 -0.91399325643E+02  0.16652155863E+03  0.76617679736E+02 0.  0.
          6    2    1    2  501    0 -0.28128776635E+03 -0.15599918176E+03  0.19981184930E+03  0.41595936149E+03  0.17215941184E+03 0.  0.
         24    2    5    5    0    0 -0.26749342301E+03 -0.12613699330E+03  0.11496742007E+03  0.32484020117E+03  0.69572812125E+02 0.  0.
          5    1    5    5  501    0 -0.13794343344E+02 -0.29862188460E+02  0.84844429223E+02  0.91119160323E+02  0.47000000000E+01 0. -1.
        -13    1    6    6    0    0 -0.54607952638E+02 -0.10806982437E+02  0.48328354206E+02  0.73718716626E+02  0.00000000000E+00 0.  1.
         14    1    6    6    0    0 -0.21288547037E+03 -0.11533001086E+03  0.66639065867E+02  0.25112148454E+03  0.00000000000E+00 0. -1.
         -5    1    3    3    0  503  0.18373731797E+03  0.92838799129E+02  0.14340317959E+02  0.20641264340E+03  0.47000000000E+01 0.  1.
         13    1    4    4    0    0  0.75075219988E+02  0.20556682873E+02 -0.89080667106E+02  0.11829721518E+03  0.00000000000E+00 0. -1.
        -14    1    4    4    0    0  0.22475228393E+02  0.42603699754E+02 -0.23186585368E+01  0.48224343453E+02  0.00000000000E+00 0.  1.
</event>
<event>
12    1  0.8500177E-002  0.1850014E+03  0.7818608E-02  0.1163112E+00
         21   -1    0    0  503  502  0.00000000000E+00  0.00000000000E+00  0.28658064119E+03  0.28658064119E+03  0.00000000000E+00 0. -1.
         21   -1    0    0  501  503 -0.00000000000E+00 -0.00000000000E+00 -0.26486352334E+03  0.26486352334E+03  0.00000000000E+00 0. -1.
          6    2    1    2  501    0 -0.48099553813E+02  0.52558795087E+02 -0.19358198129E+03  0.26757940269E+03  0.17043696560E+03 0.  0.
         24    2    3    3    0    0  0.10762072002E+02 -0.24044263352E+02 -0.54480175833E+02  0.98156494445E+02  0.77282980333E+02 0.  0.
         -6    2    1    2    0  502  0.48099553813E+02 -0.52558795087E+02  0.21529909914E+03  0.28386476185E+03  0.17073226676E+03 0.  0.
        -24    2    5    5    0    0  0.76232854785E+02 -0.62877080449E+01  0.72066371458E+02  0.13066489110E+03  0.77645144401E+02 0.  0.
          5    1    3    3  501    0 -0.58861625815E+02  0.76603058439E+02 -0.13910180546E+03  0.16942290824E+03  0.47000000000E+01 0. -1.
        -13    1    4    4    0    0  0.21752138799E+02  0.18425106756E+02 -0.45009478782E+02  0.53277511968E+02  0.00000000000E+00 0.  1.
         14    1    4    4    0    0 -0.10990066797E+02 -0.42469370108E+02 -0.94706970511E+01  0.44878982478E+02  0.00000000000E+00 0. -1.
         -5    1    5    5    0  502 -0.28133300972E+02 -0.46271087042E+02  0.14323272768E+03  0.15319987075E+03  0.47000000000E+01 0.  1.
         11    1    6    6    0    0  0.62008572713E+02 -0.23119818285E+02  0.12761243854E+02  0.67397614439E+02  0.00000000000E+00 0. -1.
        -12    1    6    6    0    0  0.14224282072E+02  0.16832110240E+02  0.59305127604E+02  0.63267276658E+02  0.00000000000E+00 0.  1.
</event>
<event>
12    1  0.8500177E-002  0.2090578E+03  0.7818608E-02  0.1142626E+00
         21   -1    0    0  501  502  0.00000000000E+00  0.00000000000E+00  0.31557234429E+03  0.31557234429E+03  0.00000000000E+00 0. -1.
         21   -1    0    0  502  503 -0.00000000000E+00 -0.00000000000E+00 -0.26693507566E+03  0.26693507566E+03  0.00000000000E+00 0.  1.
         -6    2    1    2    0  503  0.43563988913E+02  0.11041067321E+03 -0.17856764764E+03  0.27375635332E+03  0.17019928999E+03 0.  0.
        -24    2    3    3    0    0  0.74251420126E+02  0.24010231416E+02 -0.12426872771E+03  0.16709231307E+03  0.79920959698E+02 0.  0.
          6    2    1    2  501    0 -0.43563988913E+02 -0.11041067321E+03  0.22720491627E+03  0.30875106663E+03  0.17209534938E+03 0.  0.
         24    2    5    5    0    0  0.25920798835E+02 -0.31110813501E+02  0.50106577267E+02  0.10258968529E+03  0.79838611671E+02 0.  0.
          5    1    5    5  501    0 -0.69484787748E+02 -0.79299859705E+02  0.17709833900E+03  0.20616138134E+03  0.47000000000E+01 0. -1.
        -11    1    6    6    0    0  0.51957387621E+01  0.26888352813E+02  0.10319905840E+02  0.29265674002E+02  0.00000000000E+00 0.  1.
         12    1    6    6    0    0  0.20725060073E+02 -0.57999166313E+02  0.39786671427E+02  0.73324011288E+02  0.00000000000E+00 0. -1.
         -5    1    3    3    0  503 -0.30687431213E+02  0.86400441790E+02 -0.54298919937E+02  0.10666404025E+03  0.47000000000E+01 0.  1.
         13    1    4    4    0    0  0.41317488383E+02  0.25096774283E+02 -0.11614911305E+02  0.49718096206E+02  0.00000000000E+00 0. -1.
        -14    1    4    4    0    0  0.32933931742E+02 -0.10865428672E+01 -0.11265381640E+03  0.11737421687E+03  0.00000000000E+00 0.  1.
</event>
<event>
12    1  0.8500177E-002  0.1777574E+03  0.7818608E-02  0.1170906E+00
         21   -1    0    0  501  502  0.00000000000E+00  0.00000000000E+00  0.61775066913E+03  0.61775066913E+03  0.00000000000E+00 0.  1.
         21   -1    0    0  502  503 -0.00000000000E+00 -0.00000000000E+00 -0.78514131403E+02  0.78514131403E+02  0.00000000000E+00 0.  1.
         -6    2    1    2    0  503  0.37371286781E+02 -0.19188212711E+02  0.61983596257E+02  0.18825425682E+03  0.17272202646E+03 0.  0.
        -24    2    3    3    0    0  0.43959234365E+02 -0.60514837666E+02  0.84531068146E+02  0.14048638611E+03  0.83644864380E+02 0.  0.
          6    2    1    2  501    0 -0.37371286781E+02  0.19188212711E+02  0.47725294147E+03  0.50801054371E+03  0.16893650227E+03 0.  0.
         24    2    5    5    0    0 -0.45161371950E+02  0.14276144129E+01  0.12410791049E+03  0.15430215084E+03  0.79779650975E+02 0.  0.
          5    1    5    5  501    0  0.77900851687E+01  0.17760598298E+02  0.35314503098E+03  0.35370839287E+03  0.47000000000E+01 0. -1.
        -13    1    6    6    0    0 -0.67226330769E+01 -0.19591740970E+02  0.10409747659E+03  0.10613818702E+03  0.00000000000E+00 0.  1.
         14    1    6    6    0    0 -0.38438738873E+02  0.21019355383E+02  0.20010433892E+02  0.48163963825E+02  0.00000000000E+00 0. -1.
         -5    1    3    3    0  503 -0.65879475839E+01  0.41326624955E+02 -0.22547471888E+02  0.47767870709E+02  0.47000000000E+01 0.  1.
         11    1    4    4    0    0  0.45592621712E+01  0.17219648973E+02  0.37361393937E+02  0.41390541664E+02  0.00000000000E+00 0. -1.
        -12    1    4    4    0    0  0.39399972194E+02 -0.77734486639E+02  0.47169674209E+02  0.99095844448E+02  0.00000000000E+00 0.  1.
</event>
<event>
12    1  0.8500177E-002  0.3213109E+03  0.7818608E-02  0.1075067E+00
         21   -1    0    0  501  502  0.00000000000E+00  0.00000000000E+00  0.25426000862E+03  0.25426000862E+03  0.00000000000E+00 0. -1.
         21   -1    0    0  502  503 -0.00000000000E+00 -0.00000000000E+00 -0.47163114842E+03  0.47163114842E+03  0.00000000000E+00 0.  1.
         -6    2    1    2    0  503  0.23426522679E+02  0.27078618823E+03  0.26903354771E+02  0.32226914658E+03  0.17105452534E+03 0.  0.
        -24    2    3    3    0    0  0.19176170503E+02  0.60796917931E+02 -0.22474456900E+02  0.10645946788E+03  0.82246740630E+02 0.  0.
          6    2    1    2  501    0 -0.23426522679E+02 -0.27078618823E+03 -0.24427449457E+03  0.40362201046E+03  0.17136725746E+03 0.  0.
         24    2    5    5    0    0 -0.24507327946E+02 -0.46478647777E+02 -0.82920037888E+02  0.12726645771E+03  0.80994720527E+02 0.  0.
          5    1    5    5  501    0  0.10808052667E+01 -0.22430754045E+03 -0.16135445668E+03  0.27635555275E+03  0.47000000000E+01 0. -1.
        -13    1    6    6    0    0 -0.21918909130E+02 -0.62518235351E+02 -0.88085423827E+02  0.11021801223E+03  0.00000000000E+00 0.  1.
         14    1    6    6    0    0 -0.25884188151E+01  0.16039587574E+02  0.51653859392E+01  0.17048445484E+02  0.00000000000E+00 0. -1.
         -5    1    3    3    0  503  0.42503521754E+01  0.20998927030E+03  0.49377811670E+02  0.21580967869E+03  0.47000000000E+01 0.  1.
         11    1    4    4    0    0  0.13150418465E+02  0.67726221834E+02  0.12661508432E+02  0.70143341989E+02  0.00000000000E+00 0. -1.
        -12    1    4    4    0    0  0.60257520386E+01 -0.69293039030E+01 -0.35135965332E+02  0.36316125895E+02  0.00000000000E+00 0.  1.
</event>
<event>
12    1  0.8500177E-002  0.2145161E+03  0.7818608E-02  0.1138504E+00
         21   -1    0    0  501  502  0.00000000000E+00  0.00000000000E+00  0.28366302848E+03  0.28366302848E+03  0.00000000000E+00 0. -1.
         21   -1    0    0  502  503 -0.00000000000E+00 -0.00000000000E+00 -0.16624517512E+03  0.16624517512E+03  0.00000000000E+00 0. -1.
         -6    2    1    2    0  503 -0.11852314070E+03 -0.47664182486E+02  0.10051735301E+03  0.23472734195E+03  0.16933274235E+03 0.  0.
        -24    2    3    3    0    0 -0.71882583118E+02 -0.23724099282E+02 -0.11700142867E+02  0.11077845903E+03  0.80031462567E+02 0.  0.
          6    2    1    2  501    0  0.11852314070E+03  0.47664182486E+02  0.16900500340E+02  0.21518086165E+03  0.17232982080E+03 0.  0.
         24    2    5    5    0    0  0.58937216793E+02 -0.27547459928E+02 -0.26845491391E+02  0.10962009586E+03  0.84044196327E+02 0.  0.
          5    1    5    5  501    0  0.59585923904E+02  0.75211642414E+02  0.43745991731E+02  0.10556076579E+03  0.47000000000E+01 0. -1.
        -11    1    6    6    0    0  0.89771870866E+01 -0.50161875358E+02 -0.77170049029E+01  0.51539846644E+02  0.00000000000E+00 0.  1.
         12    1    6    6    0    0  0.49960029707E+02  0.22614415430E+02 -0.19128486488E+02  0.58080249215E+02  0.00000000000E+00 0. -1.
         -5    1    3    3    0  503 -0.46640557579E+02 -0.23940083204E+02  0.11221749588E+03  0.12394888292E+03  0.47000000000E+01 0.  1.
         11    1    4    4    0    0 -0.39383036315E+02 -0.37128576634E+02 -0.38627557058E+02  0.66495435306E+02  0.00000000000E+00 0. -1.
        -12    1    4    4    0    0 -0.32499546803E+02  0.13404477353E+02  0.26927414191E+02  0.44283023729E+02  0.00000000000E+00 0.  1.
</event>
<event>
12    1  0.8500177E-002  0.2415945E+03  0.7818608E-02  0.1118845E+00
         21   -1    0    0  503  502  0.00000000000E+00  0.00000000000E+00  0.76149023161E+03  0.76149023161E+03  0.00000000000E+00 0. -1.
         21   -1    0    0  501  503 -0.00000000000E+00 -0.00000000000E+00 -0.78793460634E+02  0.78793460634E+02  0.00000000000E+00 0. -1.
          6    2    1    2  501    0  0.15544705831E+03 -0.71398351082E+02  0.26827850008E+03  0.36058544711E+03  0.16966731740E+03 0.  0.
         24    2    3    3    0    0  0.33465148350E+02  0.33006405633E+01  0.16176305573E+03  0.18218377786E+03  0.76764785759E+02 0.  0.
         -6    2    1    2    0  502 -0.15544705831E+03  0.71398351082E+02  0.41441827090E+03  0.47969824513E+03  0.17060595140E+03 0.  0.
        -24    2    5    5    0    0 -0.83244540961E+02  0.19964239031E+02  0.11187173825E+03  0.16439653912E+03  0.84750880919E+02 0.  0.
          5    1    3    3  501    0  0.12198190996E+03 -0.74698991645E+02  0.10651544435E+03  0.17840166926E+03  0.47000000000E+01 0. -1.
        -13    1    4    4    0    0  0.25037898793E+02  0.39348960526E+01  0.58109093175E+01  0.26002816194E+02  0.00000000000E+00 0.  1.
         14    1    4    4    0    0  0.84272495571E+01 -0.63425548934E+00  0.15595214641E+03  0.15618096166E+03  0.00000000000E+00 0. -1.
         -5    1    5    5    0  502 -0.72202517345E+02  0.51434112051E+02  0.30254653265E+03  0.31530170601E+03  0.47000000000E+01 0.  1.
         11    1    6    6    0    0 -0.40035113976E+02  0.49416883724E+02  0.83313265566E+02  0.10481383004E+03  0.00000000000E+00 0. -1.
        -12    1    6    6    0    0 -0.43209426985E+02 -0.29452644693E+02  0.28558472685E+02  0.59582709085E+02  0.00000000000E+00 0.  1.
</event>
<event>
12    1  0.8500177E-002  0.1930524E+03  0.7818608E-02  0.1156129E+00
         21   -1    0    0  503  502  0.00000000000E+00  0.00000000000E+00  0.44563314777E+02  0.44563314777E+02  0.00000000000E+00 0.  1.
         21   -1    0    0  501  503 -0.00000000000E+00 -0.00000000000E+00 -0.82896522368E+03  0.82896522368E+03  0.00000000000E+00 0.  1.
          6    2    1    2  501    0  0.77419926717E+02 -0.34443747196E+02 -0.38226529500E+03  0.42745333939E+03  0.17149164651E+03 0.  0.
         24    2    3    3    0    0  0.58560619955E+02  0.73608492714E+01 -0.96134336629E+02  0.13763216509E+03  0.78849691669E+02 0.  0.
         -6    2    1    2    0  502 -0.77419926717E+02  0.34443747196E+02 -0.40213661390E+03  0.44607519906E+03  0.17346184077E+03 0.  0.
        -24    2    5    5    0    0 -0.64093115803E+02 -0.18478919016E+02 -0.36650752923E+03  0.38073046582E+03  0.78603566582E+02 0.  0.
          5    1    3    3  501    0  0.18859306763E+02 -0.41804596468E+02 -0.28613095837E+03  0.28982117430E+03  0.47000000000E+01 0. -1.
        -13    1    4    4    0    0 -0.17915796767E+02 -0.60884446339E+00 -0.35283480730E+02  0.39576135205E+02  0.00000000000E+00 0.  1.
         14    1    4    4    0    0  0.76476416721E+02  0.79696937348E+01 -0.60850855899E+02  0.98056029883E+02  0.00000000000E+00 0. -1.
         -5    1    5    5    0  502 -0.13326810914E+02  0.52922666212E+02 -0.35629084672E+02  0.65344733244E+02  0.47000000000E+01 0.  1.
         13    1    6    6    0    0 -0.56147504164E+02 -0.88710241783E+01 -0.10909414648E+03  0.12301532462E+03  0.00000000000E+00 0. -1.
        -14    1    6    6    0    0 -0.79456116386E+01 -0.96078948375E+01 -0.25741338275E+03  0.25771514120E+03  0.00000000000E+00 0.  1.
</event>
<event>
12    1  0.8500177E-002  0.1753740E+03  0.7818608E-02  0.1172745E+00
         21   -1    0    0  503  502  0.00000000000E+00  0.00000000000E+00  0.44793338688E+03  0.44793338688E+03  0.00000000000E+00 0.  1.
         21   -1    0    0  501  503 -0.00000000000E+00 -0.00000000000E+00 -0.10821446025E+03  0.10821446025E+03  0.00000000000E+00 0.  1.
          6    2    1    2  501    0 -0.18881980100E+02 -0.14576529203E+02  0.94119598669E+00  0.17537650039E+03  0.17374414137E+03 0.  0.
         24    2    3    3    0    0  0.49856886825E+02 -0.46305671872E+02 -0.35127273988E+01  0.99391648251E+02  0.72363223234E+02 0.  0.
         -6    2    1    2    0  502  0.18881980100E+02  0.14576529203E+02  0.33877773064E+03  0.38077134674E+03  0.17218438764E+03 0.  0.
        -24    2    5    5    0    0  0.96350038393E+01  0.38832950470E+02  0.34241007307E+03  0.35414120491E+03  0.81058642539E+02 0.  0.
          5    1    3    3  501    0 -0.68738866925E+02  0.31729142668E+02  0.44539233855E+01  0.75984852136E+02  0.47000000000E+01 0. -1.
        -11    1    4    4    0    0  0.40141753753E+02 -0.46718513064E+02  0.27084032078E+02  0.67286883201E+02  0.00000000000E+00 0.  1.
         12    1    4    4    0    0  0.97151330714E+01  0.41284119253E+00 -0.30596759476E+02  0.32104765050E+02  0.00000000000E+00 0. -1.
         -5    1    5    5    0  502  0.92469762612E+01 -0.24256421266E+02 -0.36323424354E+01  0.26630141836E+02  0.47000000000E+01 0.  1.
         13    1    6    6    0    0 -0.34836775229E+00 -0.21043841305E+02  0.35372286711E+02  0.41160214821E+02  0.00000000000E+00 0. -1.
        -14    1    6    6    0    0  0.99833715916E+01  0.59876791774E+02  0.30703778636E+03  0.31298099008E+03  0.00000000000E+00 0.  1.
</event>
<event>
12    1  0.8500177E-002  0.2290421E+03  0.7818608E-02  0.1128087E+00
         21   -1    0    0  503  502  0.00000000000E+00  0.00000000000E+00  0.55898460677E+03  0.55898460677E+03  0.00000000000E+00 0.  1.
         21   -1    0    0  501  503 -0.00000000000E+00 -0.00000000000E+00 -0.15546886942E+03  0.15546886942E+03  0.00000000000E+00 0.  1.
          6    2    1    2  501    0 -0.14307544462E+03  0.28527561228E+02 -0.27457870021E+02  0.22639761127E+03  0.17093138729E+03 0.  0.
         24    2    3    3    0    0 -0.15783239886E+03  0.44195573385E+02 -0.55709965535E+02  0.19057129128E+03  0.79683762219E+02 0.  0.
         -6    2    1    2    0  502  0.14307544462E+03 -0.28527561228E+02  0.43097360737E+03  0.48805586492E+03  0.17656690637E+03 0.  0.
        -24    2    5    5    0    0  0.24433463916E+02 -0.26161147254E+02  0.80578735226E+02  0.11808265518E+03  0.78544134714E+02 0.  0.
          5    1    3    3  501    0  0.14756954240E+02 -0.15668012157E+02  0.28252095514E+02  0.35826319994E+02  0.47000000000E+01 0. -1.
        -11    1    4    4    0    0 -0.11903668715E+02 -0.18335083317E+02 -0.15496648317E+02  0.26795871290E+02  0.00000000000E+00 0.  1.
         12    1    4    4    0    0 -0.14592873015E+03  0.62530656702E+02 -0.40213317217E+02  0.16377541999E+03  0.00000000000E+00 0. -1.
         -5    1    5    5    0  502  0.11864198071E+03 -0.23664139736E+01  0.35039487215E+03  0.36997320974E+03  0.47000000000E+01 0.  1.
         11    1    6    6    0    0 -0.19650733534E+02  0.76217305805E+01  0.50941773355E+02  0.55129904572E+02  0.00000000000E+00 0. -1.
        -12    1    6    6    0    0  0.44084197450E+02 -0.33782877835E+02  0.29636961871E+02  0.62952750604E+02  0.00000000000E+00 0.  1.
</event>
<event>
12    1  0.8500177E-002  0.2260514E+03  0.7818608E-02  0.1129704E+00
         21   -1    0    0  501  502  0.00000000000E+00  0.00000000000E+00  0.20147368386E+03  0.20147368386E+03  0.00000000000E+00 0. -1.
         21   -1    0    0  502  503 -0.00000000000E+00 -0.00000000000E+00 -0.28275733832E+03  0.28275733832E+03  0.00000000000E+00 0. -1.
         -6    2    1    2    0  503 -0.54049859876E+01  0.14817959020E+03  0.39032255850E+02  0.22939652309E+03  0.17062486040E+03 0.  0.
        -24    2    3    3    0    0 -0.58120428102E+02  0.12883218858E+03  0.40525847573E+01  0.16307226527E+03  0.81242989101E+02 0.  0.
          6    2    1    2  501    0  0.54049859876E+01 -0.14817959020E+03 -0.12031591031E+03  0.25483449909E+03  0.16875514459E+03 0.  0.
         24    2    5    5    0    0  0.23314559415E+02 -0.73307935083E+02  0.12884869584E+01  0.11083367619E+03  0.79779831744E+02 0.  0.
          5    1    5    5  501    0 -0.17909573427E+02 -0.74871655120E+02 -0.12160439726E+03  0.14400082290E+03  0.47000000000E+01 0. -1.
        -11    1    6    6    0    0  0.24193827221E+01  0.77859283092E+01 -0.22373153470E+02  0.23812435587E+02  0.00000000000E+00 0.  1.
         12    1    6    6    0    0  0.20895176693E+02 -0.81093863392E+02  0.23661640429E+02  0.87021240606E+02  0.00000000000E+00 0. -1.
         -5    1    3    3    0  503  0.52715442114E+02  0.19347401619E+02  0.34979671092E+02  0.66324257828E+02  0.47000000000E+01 0.  1.
         11    1    4    4    0    0 -0.25958951310E+01  0.61025524965E+02 -0.31224549774E+02  0.68599022423E+02  0.00000000000E+00 0. -1.
        -12    1    4    4    0    0 -0.55524532971E+02  0.67806663619E+02  0.35277134531E+02  0.94473242844E+02  0.00000000000E+00 0.  1.
</event>
<event>
12    1  0.8500177E-002  0.1716389E+03  0.7818608E-02  0.1177019E+00
         21   -1    0    0  503  502  0.00000000000E+00  0.00000000000E+00  0.51232652508E+03  0.51232652508E+03  0.00000000000E+00 0.  1.
         21   -1    0    0  501  503 -0.00000000000E+00 -0.00000000000E+00 -0.78807547069E+02  0.78807547069E+02  0.00000000000E+00 0.  1.
          6    2    1    2  501    0  0.18438221846E+01 -0.19179206102E+02  0.60642240068E+02  0.18203677521E+03  0.17055399327E+03 0.  0.
         24    2    3    3    0    0 -0.70897827667E+01  0.53157793943E+02  0.17496611700E+02  0.97207027356E+02  0.79164756489E+02 0.  0.
         -6    2    1    2    0  502 -0.18438221846E+01  0.19179206102E+02  0.37287673794E+03  0.40909729694E+03  0.16718939870E+03 0.  0.
        -24    2    5    5    0    0 -0.42025976963E+02  0.61159019839E+02  0.26730661709E+03  0.28849857912E+03  0.79195922655E+02 0.  0.
          5    1    3    3  501    0  0.89336049513E+01 -0.72337000045E+02  0.43145628368E+02  0.84829747850E+02  0.47000000000E+01 0. -1.
        -11    1    4    4    0    0  0.27821465723E+02  0.12731521668E+02  0.29455324046E+02  0.42470480497E+02  0.00000000000E+00 0.  1.
         12    1    4    4    0    0 -0.34911248490E+02  0.40426272275E+02 -0.11958712346E+02  0.54736546860E+02  0.00000000000E+00 0. -1.
         -5    1    5    5    0  502  0.40182154778E+02 -0.41979813737E+02  0.10557012085E+03  0.12059871782E+03  0.47000000000E+01 0.  1.
         11    1    6    6    0    0 -0.17239988270E+02  0.63206668863E+01  0.45213651472E+01  0.18910599362E+02  0.00000000000E+00 0. -1.
        -12    1    6    6    0    0 -0.24785988693E+02  0.54838352953E+02  0.26278525194E+03  0.26958797975E+03  0.00000000000E+00 0.  1.
</event>
<event>
12    1  0.8500177E-002  0.1793858E+03  0.7818608E-02  0.1168591E+00
         21   -1    0    0  503  502  0.00000000000E+00  0.00000000000E+00  0.81409243120E+02  0.81409243120E+02  0.00000000000E+00 0. -1.
         21   -1    0    0  501  503 -0.00000000000E+00 -0.00000000000E+00 -0.40051828215E+03  0.40051828215E+03  0.00000000000E+00 0. -1.
          6    2    1    2  501    0 -0.15768459129E+02 -0.47596723335E+02 -0.19101049634E+03  0.26149950800E+03  0.17141438270E+03 0.  0.
         24    2    3    3    0    0  0.41556637005E+02 -0.53939472644E+01 -0.15988249860E+03  0.18366453387E+03  0.80088693934E+02 0.  0.
         -6    2    1    2    0  502  0.15768459129E+02  0.47596723335E+02 -0.12809854269E+03  0.22042801727E+03  0.17223583188E+03 0.  0.
        -24    2    5    5    0    0  0.60310914210E+01  0.96839402807E+02 -0.94433049698E+02  0.15980530511E+03  0.84887517730E+02 0.  0.
          5    1    3    3  501    0 -0.57325096134E+02 -0.42202776070E+02 -0.31127997742E+02  0.77834974133E+02  0.47000000000E+01 0. -1.
        -13    1    4    4    0    0  0.44857465494E+02  0.93312601087E+01 -0.34441578673E+02  0.57319167538E+02  0.00000000000E+00 0.  1.
         14    1    4    4    0    0 -0.33008284889E+01 -0.14725207373E+02 -0.12544091993E+03  0.12634536633E+03  0.00000000000E+00 0. -1.
         -5    1    5    5    0  502  0.97373677081E+01 -0.49242679472E+02 -0.33665492993E+02  0.60622712163E+02  0.47000000000E+01 0.  1.
         13    1    6    6    0    0  0.35357365148E+02  0.22166446044E+02 -0.91575595739E+01  0.42724179311E+02  0.00000000000E+00 0. -1.
        -14    1    6    6    0    0 -0.29326273727E+02  0.74672956763E+02 -0.85275490124E+02  0.11708112580E+03  0.00000000000E+00 0.  1.
</event>
<event>
12    1  0.8500177E-002  0.2231769E+03  0.7818608E-02  0.1131820E+00
         21   -1    0    0  501  502  0.00000000000E+00  0.00000000000E+00  0.45518947285E+03  0.45518947285E+03  0.00000000000E+00 0.  1.
         21   -1    0    0  502  503 -0.00000000000E+00 -0.00000000000E+00 -0.12703114211E+03  0.12703114211E+03  0.00000000000E+00 0. -1.
         -6    2    1    2    0  503  0.14045301633E+03  0.20373698999E+02  0.27427655804E+03  0.35263143946E+03  0.17023267723E+03 0.  0.
        -24    2    3    3    0    0  0.15088736429E+02 -0.70439748707E+01  0.16200499525E+03  0.18205909315E+03  0.81379403793E+02 0.  0.
          6    2    1    2  501    0 -0.14045301633E+03 -0.20373698999E+02  0.53881772699E+02  0.22958917550E+03  0.17223764592E+03 0.  0.
         24    2    5    5    0    0 -0.15712715389E+03  0.22781455817E+02  0.43971665521E+02  0.18204241458E+03  0.77446730842E+02 0.  0.
          5    1    5    5  501    0  0.16674137559E+02 -0.43155154816E+02  0.99101071782E+01  0.47546760928E+02  0.47000000000E+01 0. -1.
        -11    1    6    6    0    0 -0.74296811142E+02  0.49841180415E+02  0.24389919640E+02  0.92730941929E+02  0.00000000000E+00 0.  1.
         12    1    6    6    0    0 -0.82830342746E+02 -0.27059724598E+02  0.19581745881E+02  0.89311472647E+02  0.00000000000E+00 0. -1.
         -5    1    3    3    0  503  0.12536427990E+03  0.27417673869E+02  0.11227156279E+03  0.17057234631E+03  0.47000000000E+01 0.  1.
         11    1    4    4    0    0  0.21965785296E+02 -0.23039699939E+02  0.17144577424E+02  0.36156051112E+02  0.00000000000E+00 0. -1.
        -12    1    4    4    0    0 -0.68770488675E+01  0.15995725069E+02  0.14486041783E+03  0.14590304204E+03  0.00000000000E+00 0.  1.
</event>
<event>
12    1  0.8500177E-002  0.1950856E+03  0.7818608E-02  0.1154413E+00
         21   -1    0    0  503  502  0.00000000000E+00  0.00000000000E+00  0.69067222753E+03  0.69067222753E+03  0.00000000000E+00 0.  1.
         21   -1    0    0  501  503 -0.00000000000E+00 -0.00000000000E+00 -0.30415580274E+03  0.30415580274E+03  0.00000000000E+00 0.  1.
          6    2    1    2  501    0  0.26290174275E+02  0.86386472345E+02 -0.25719432069E+03  0.32281154165E+03  0.17292939877E+03 0.  0.
         24    2    3    3    0    0  0.14056461042E+02  0.19549596983E+02 -0.26550932242E+02  0.82321844820E+02  0.74109130965E+02 0.  0.
         -6    2    1    2    0  502 -0.26290174275E+02 -0.86386472345E+02  0.64371074548E+03  0.67201648861E+03  0.17055451110E+03 0.  0.
        -24    2    5    5    0    0 -0.79165125684E+02 -0.77119611470E+02  0.51631027073E+03  0.53368859495E+03  0.77670258982E+02 0.  0.
          5    1    3    3  501    0  0.12233713233E+02  0.66836875362E+02 -0.23064338845E+03  0.24048969683E+03  0.47000000000E+01 0. -1.
        -11    1    4    4    0    0  0.21150270589E+02  0.34035074086E+02  0.10915133653E+02  0.41531438172E+02  0.00000000000E+00 0.  1.
         12    1    4    4    0    0 -0.70938095468E+01 -0.14485477103E+02 -0.37466065895E+02  0.40790406647E+02  0.00000000000E+00 0. -1.
         -5    1    5    5    0  502  0.52874951409E+02 -0.92668608749E+01  0.12740047475E+03  0.13832789366E+03  0.47000000000E+01 0.  1.
         13    1    6    6    0    0 -0.98037990881E+01 -0.57825162675E+02  0.16599177598E+03  0.17604866829E+03  0.00000000000E+00 0. -1.
        -14    1    6    6    0    0 -0.69361326596E+02 -0.19294448795E+02  0.35031849475E+03  0.35763992666E+03  0.00000000000E+00 0.  1.
</event>
<event>
12    1  0.8500177E-002  0.1830605E+03  0.7818608E-02  0.1165594E+00
         21   -1    0    0  501  502  0.00000000000E+00  0.00000000000E+00  0.52277364376E+03  0.52277364376E+03  0.00000000000E+00 0. -1.
         21   -1    0    0  502  503 -0.00000000000E+00 -0.00000000000E+00 -0.96094658409E+02  0.96094658409E+02  0.00000000000E+00 0. -1.
         -6    2    1    2    0  503  0.53586414791E+01  0.51284047369E+02  0.33052660257E+02  0.18602045877E+03  0.17564841069E+03 0.  0.
        -24    2    3    3    0    0 -0.59116911575E+02 -0.29619065690E+01  0.14982918362E+02  0.99716773845E+02  0.78837586333E+02 0.  0.
          6    2    1    2  501    0 -0.53586414791E+01 -0.51284047369E+02  0.39362632510E+03  0.43284784340E+03  0.17250160339E+03 0.  0.
         24    2    5    5    0    0 -0.28286534293E+02 -0.10663096926E+02  0.37127781621E+03  0.38091234751E+03  0.79581216473E+02 0.  0.
          5    1    5    5  501    0  0.22927892814E+02 -0.40620950442E+02  0.22348508883E+02  0.51935495887E+02  0.47000000000E+01 0. -1.
        -11    1    6    6    0    0 -0.10680395448E+02  0.28261873892E+02  0.65109376004E+02  0.71777679027E+02  0.00000000000E+00 0.  1.
         12    1    6    6    0    0 -0.17606138845E+02 -0.38924970818E+02  0.30616844021E+03  0.30913466848E+03  0.00000000000E+00 0. -1.
         -5    1    3    3    0  503  0.64475553054E+02  0.54245953938E+02  0.18069741895E+02  0.86303684929E+02  0.47000000000E+01 0.  1.
         11    1    4    4    0    0 -0.37657444015E+02 -0.21036447084E+02 -0.25764801215E+02  0.50243807353E+02  0.00000000000E+00 0. -1.
        -12    1    4    4    0    0 -0.21459467559E+02  0.18074540515E+02  0.40747719577E+02  0.49472966492E+02  0.00000000000E+00 0.  1.
</event>
<event>
12    1  0.8500177E-002  0.1835786E+03  0.7818608E-02  0.1164449E+00
         21   -1    0    0  501  502  0.00000000000E+00  0.00000000000E+00  0.60522855920E+03  0.60522855920E+03  0.00000000000E+00 0. -1.
         21   -1    0    0  502  503 -0.00000000000E+00 -0.00000000000E+00 -0.58200399686E+02  0.58200399686E+02  0.00000000000E+00 0. -1.
         -6    2    1    2    0  503 -0.23071948664E+01  0.63244816132E+02  0.34383995113E+03  0.38977817203E+03  0.17232492996E+03 0.  0.
        -24    2    3    3    0    0 -0.57524605931E+02  0.14291370163E+02  0.13009616968E+03  0.16360590038E+03  0.79552207545E+02 0.  0.
          6    2    1    2  501    0  0.23071948664E+01 -0.63244816132E+02  0.20318820839E+03  0.27365078685E+03  0.17202928589E+03 0.  0.
         24    2    5    5    0    0 -0.11088061406E+02 -0.53963094025E+02  0.34978161778E+02  0.10458780144E+03  0.81732342353E+02 0.  0.
          5    1    5    5  501    0  0.13395256272E+02 -0.92817221068E+01  0.16821004661E+03  0.16906298541E+03  0.47000000000E+01 0. -1.
        -13    1    6    6    0    0  0.88437365286E+01 -0.27548452862E+02  0.57630855156E+02  0.64486001558E+02  0.00000000000E+00 0.  1.
         14    1    6    6    0    0 -0.19931797934E+02 -0.26414641163E+02 -0.22652693378E+02  0.40101799884E+02  0.00000000000E+00 0. -1.
         -5    1    3    3    0  503  0.55217411064E+02  0.48953445969E+02  0.21374378145E+03  0.22617227165E+03  0.47000000000E+01 0.  1.
         13    1    4    4    0    0 -0.15734881187E+02  0.43066867477E+01  0.11778717730E+03  0.11891153507E+03  0.00000000000E+00 0. -1.
        -14    1    4    4    0    0 -0.41789724743E+02  0.99846834154E+01  0.12308992381E+02  0.44694365310E+02  0.00000000000E+00 0.  1.
</event>
<event>
12    1  0.8500177E-002  0.2418387E+03  0.7818608E-02  0.1118608E+00
         21   -1    0    0  501  502  0.00000000000E+00  0.00000000000E+00  0.60260112602E+03  0.60260112602E+03  0.00000000000E+00 0. -1.
         21   -1    0    0  502  503 -0.00000000000E+00 -0.00000000000E+00 -0.17017637922E+03  0.17017637922E+03  0.00000000000E+00 0.  1.
         -6    2    1    2    0  503  0.15555532073E+03 -0.67233042780E+02 -0.37154796198E+02  0.24467623181E+03  0.17253474919E+03 0.  0.
        -24    2    3    3    0    0  0.11904139050E+03 -0.62066221402E+02  0.36387634755E+02  0.16227148501E+03  0.83575752419E+02 0.  0.
          6    2    1    2  501    0 -0.15555532073E+03  0.67233042780E+02  0.46957954300E+03  0.52810127343E+03  0.17224479076E+03 0.  0.
         24    2    5    5    0    0 -0.17672921478E+03  0.42790894026E+02  0.33295044098E+03  0.38761869820E+03  0.79548620829E+02 0.  0.
          5    1    5    5  501    0  0.21173894044E+02  0.24442148755E+02  0.13662910202E+03  0.14048257523E+03  0.47000000000E+01 0. -1.
        -11    1    6    6    0    0 -0.71127840868E+02  0.12934390461E+02  0.61822558424E+02  0.95123587681E+02  0.00000000000E+00 0.  1.
         12    1    6    6    0    0 -0.10560137391E+03  0.29856503564E+02  0.27112788256E+03  0.29249511052E+03  0.00000000000E+00 0. -1.
         -5    1    3    3    0  503  0.36513930238E+02 -0.51668213778E+01 -0.73542430953E+02  0.82404746799E+02  0.47000000000E+01 0.  1.
         13    1    4    4    0    0  0.10652704730E+03 -0.17693690664E+02  0.83430968536E+01  0.10830829037E+03  0.00000000000E+00 0. -1.
        -14    1    4    4    0    0  0.12514343191E+02 -0.44372530739E+02  0.28044537901E+02  0.53963194640E+02  0.00000000000E+00 0.  1.
</event>
<event>
12    1  0.8500177E-002  0.1809093E+03  0.7818608E-02  0.1166986E+00
         21   -1    0    0  501  502  0.00000000000E+00  0.00000000000E+00  0.35030548144E+03  0.35030548144E+03  0.00000000000E+00 0.  1.
         21   -1    0    0  502  503 -0.00000000000E+00 -0.00000000000E+00 -0.10807413979E+03  0.10807413979E+03  0.00000000000E+00 0.  1.
         -6    2    1    2    0  503  0.16996953975E+02 -0.57035573216E+02  0.36445565172E+02  0.18454387920E+03  0.17083972335E+03 0.  0.
        -24    2    3    3    0    0  0.35031093118E+02 -0.78354712820E+02 -0.21927964586E+02  0.11966480041E+03  0.80449924307E+02 0.  0.
          6    2    1    2  501    0 -0.16996953975E+02  0.57035573216E+02  0.20578577648E+03  0.27383574202E+03  0.17057630185E+03 0.  0.
         24    2    5    5    0    0 -0.49546455689E+02  0.21103006207E+02  0.20273137304E+03  0.22502960702E+03  0.81474697168E+02 0.  0.
          5    1    5    5  501    0  0.32549501714E+02  0.35932567009E+02  0.30544034375E+01  0.48806135004E+02  0.47000000000E+01 0. -1.
        -13    1    6    6    0    0  0.10654702574E+02  0.17587262907E+02  0.12484281715E+03  0.12652495208E+03  0.00000000000E+00 0.  1.
         14    1    6    6    0    0 -0.60201158264E+02  0.35157433005E+01  0.77888555887E+02  0.98504654943E+02  0.00000000000E+00 0. -1.
         -5    1    3    3    0  503 -0.18034139143E+02  0.21319139605E+02  0.58373529758E+02  0.64879078789E+02  0.47000000000E+01 0.  1.
         11    1    4    4    0    0  0.37610785101E+02 -0.11085141338E+02  0.16054515548E+02  0.42369788575E+02  0.00000000000E+00 0. -1.
        -12    1    4    4    0    0 -0.25796919830E+01 -0.67269571482E+02 -0.37982480134E+02  0.77295011839E+02  0.00000000000E+00 0.  1.
</event>
<event>
12    1  0.8500177E-002  0.2453081E+03  0.7818608E-02  0.1118899E+00
         21   -1    0    0  503  502  0.00000000000E+00  0.00000000000E+00  0.61956028016E+03  0.61956028016E+03  0.00000000000E+00 0.  1.
         21   -1    0    0  501  503 -0.00000000000E+00 -0.00000000000E+00 -0.91416102590E+02  0.91416102590E+02  0.00000000000E+00 0.  1.
          6    2    1    2  501    0  0.78850905460E+02  0.13157363692E+03  0.27637884682E+03  0.35946270418E+03  0.17116974472E+03 0.  0.
         24    2    3    3    0    0  0.60597655964E+02  0.15943273447E+03  0.26074528393E+03  0.32237080854E+03  0.82728244149E+02 0.  0.
         -6    2    1    2    0  502 -0.78850905460E+02 -0.13157363692E+03  0.25176533075E+03  0.35151367857E+03  0.19143405451E+03 0.  0.
        -24    2    5    5    0    0  0.92934934300E+01 -0.11397624955E+03  0.21094334436E+03  0.25268236940E+03  0.79210673499E+02 0.  0.
          5    1    3    3  501    0  0.18253249497E+02 -0.27859097552E+02  0.15633562887E+02  0.37091895639E+02  0.47000000000E+01 0. -1.
        -11    1    4    4    0    0  0.78527618582E+02  0.11287574995E+03  0.16837380303E+03  0.21738734865E+03  0.00000000000E+00 0.  1.
         12    1    4    4    0    0 -0.17929962618E+02  0.46556984515E+02  0.92371480900E+02  0.10498345989E+03  0.00000000000E+00 0. -1.
         -5    1    5    5    0  502 -0.88144398890E+02 -0.17597387364E+02  0.40821986393E+02  0.98831309163E+02  0.47000000000E+01 0.  1.
         11    1    6    6    0    0  0.67576665188E+01 -0.40516741306E+02  0.15550319169E+02  0.43921347989E+02  0.00000000000E+00 0. -1.
        -12    1    6    6    0    0  0.25358269112E+01 -0.73459508247E+02  0.19539302519E+03  0.20876102141E+03  0.00000000000E+00 0.  1.
</event>
<event>
12    1  0.8500177E-002  0.1865291E+03  0.7818608E-02  0.1161903E+00
         21   -1    0    0  503  502  0.00000000000E+00  0.00000000000E+00  0.38034291628E+02  0.38034291628E+02  0.00000000000E+00 0.  1.
         21   -1    0    0  501  503 -0.00000000000E+00 -0.00000000000E+00 -0.10418801462E+04  0.10418801462E+04  0.00000000000E+00 0.  1.
          6    2    1    2  501    0  0.65151652798E+02  0.31939321711E+02 -0.69335763621E+03  0.71770450266E+03  0.17055815232E+03 0.  0.
         24    2    3    3    0    0  0.98947297448E+02  0.57799675614E+01 -0.62024408151E+03  0.63288623053E+03  0.77577602780E+02 0.  0.
         -6    2    1    2    0  502 -0.65151652798E+02 -0.31939321711E+02 -0.31048821832E+03  0.36220993512E+03  0.17183784580E+03 0.  0.
        -24    2    5    5    0    0  0.67395727398E+01  0.32034565630E+02 -0.10656916978E+03  0.13667484931E+03  0.79065740067E+02 0.  0.
          5    1    3    3  501    0 -0.33795644650E+02  0.26159354149E+02 -0.73113554696E+02  0.84818272130E+02  0.47000000000E+01 0. -1.
        -11    1    4    4    0    0  0.22701209743E+02  0.29392559180E+02 -0.10239862815E+03  0.10892541717E+03  0.00000000000E+00 0.  1.
         12    1    4    4    0    0  0.76246087705E+02 -0.23612591619E+02 -0.51784545336E+03  0.52396081336E+03  0.00000000000E+00 0. -1.
         -5    1    5    5    0  502 -0.71891225538E+02 -0.63973887341E+02 -0.20391904855E+03  0.22553508581E+03  0.47000000000E+01 0.  1.
         11    1    6    6    0    0  0.27030453009E+02  0.32359194179E+02 -0.18059236217E+02  0.45868277170E+02  0.00000000000E+00 0. -1.
        -12    1    6    6    0    0 -0.20290880270E+02 -0.32462854863E+00 -0.88509933559E+02  0.90806572144E+02  0.00000000000E+00 0.  1.
</event>
<event>
12    1  0.8500177E-002  0.1733535E+03  0.7818608E-02  0.1174704E+00
         21   -1    0    0  501  502  0.00000000000E+00  0.00000000000E+00  0.11151065409E+02  0.11151065409E+02  0.00000000000E+00 0.  1.
         21   -1    0    0  502  503 -0.00000000000E+00 -0.00000000000E+00 -0.30958957588E+04  0.30958957588E+04  0.00000000000E+00 0.  1.
         -6    2    1    2    0  503 -0.65791411543E+01  0.94669816711E+01 -0.21190707500E+04  0.21261496404E+04  0.17296976890E+03 0.  0.
        -24    2    3    3    0    0  0.21773428023E+02  0.15481660771E+02 -0.20424076031E+04  0.20440559583E+04  0.77602702968E+02 0.  0.
          6    2    1    2  501    0  0.65791411543E+01 -0.94669816711E+01 -0.96567394333E+03  0.98089718377E+03  0.17175625593E+03 0.  0.
         24    2    5    5    0    0  0.27745378828E+02 -0.55564775839E+02 -0.36519734580E+03  0.37826358826E+03  0.76530977177E+02 0.  0.
          5    1    5    5  501    0 -0.21166237673E+02  0.46097794168E+02 -0.60047659754E+03  0.60263359551E+03  0.47000000000E+01 0. -1.
        -11    1    6    6    0    0  0.22346512503E+02 -0.57347422129E+02 -0.36713398523E+03  0.37225724514E+03  0.00000000000E+00 0.  1.
         12    1    6    6    0    0  0.53988663251E+01  0.17826462903E+01  0.19366394366E+01  0.60063431221E+01  0.00000000000E+00 0. -1.
         -5    1    3    3    0  503 -0.28352569177E+02 -0.60146791003E+01 -0.76663146879E+02  0.82093682053E+02  0.47000000000E+01 0.  1.
         13    1    4    4    0    0 -0.17339440753E+02  0.26930769206E+01 -0.12701526181E+03  0.12822162689E+03  0.00000000000E+00 0. -1.
        -14    1    4    4    0    0  0.39112868776E+02  0.12788583851E+02 -0.19153923413E+04  0.19158343314E+04  0.00000000000E+00 0.  1.
</event>
<event>
12    1  0.8500177E-002  0.2150036E+03  0.7818608E-02  0.1137991E+00
         21   -1    0    0  501  502  0.00000000000E+00  0.00000000000E+00  0.89063087468E+03  0.89063087468E+03  0.00000000000E+00 0.  1.
         21   -1    0    0  502  503 -0.00000000000E+00 -0.00000000000E+00 -0.12754433779E+03  0.12754433779E+03  0.00000000000E+00 0.  1.
         -6    2    1    2    0  503  0.12157755619E+03  0.38257811202E+02 -0.10952947358E+02  0.21528245022E+03  0.17315254555E+03 0.  0.
        -24    2    3    3    0    0  0.25622561917E+02  0.77703259862E+02 -0.19780143471E+01  0.11104261250E+03  0.75048231011E+02 0.  0.
          6    2    1    2  501    0 -0.12157755619E+03 -0.38257811202E+02  0.77403948425E+03  0.80289276225E+03  0.17104064489E+03 0.  0.
         24    2    5    5    0    0 -0.94789219978E+02 -0.19573575244E+02  0.75366285453E+03  0.76411116005E+03  0.80560818922E+02 0.  0.
          5    1    5    5  501    0 -0.26788336211E+02 -0.18684235959E+02  0.20376629727E+02  0.38781602202E+02  0.47000000000E+01 0. -1.
        -13    1    6    6    0    0 -0.10688258519E+03 -0.66576900444E+01  0.67812179498E+03  0.68652558632E+03  0.00000000000E+00 0.  1.
         14    1    6    6    0    0  0.12093365207E+02 -0.12915885200E+02  0.75541059551E+02  0.77585573728E+02  0.00000000000E+00 0. -1.
         -5    1    3    3    0  503  0.95954994273E+02 -0.39445448660E+02 -0.89749330108E+01  0.10423983772E+03  0.47000000000E+01 0.  1.
         11    1    4    4    0    0  0.29197699638E+02  0.49042999335E+02  0.32804334091E+02  0.65831951080E+02  0.00000000000E+00 0. -1.
        -12    1    4    4    0    0 -0.35751377210E+01  0.28660260527E+02 -0.34782348438E+02  0.45210661420E+02  0.00000000000E+00 0.  1.
</event>
<event>
12    1  0.8500177E-002  0.2055338E+03  0.7818608E-02  0.1145425E+00
         21   -1    0    0  501  502  0.00000000000E+00  0.00000000000E+00  0.13698969717E+04  0.13698969717E+04  0.00000000000E+00 0.  1.
         21   -1    0    0  502  503 -0.00000000000E+00 -0.00000000000E+00 -0.32665182701E+02  0.32665182701E+02  0.00000000000E+00 0.  1.
         -6    2    1    2    0  503  0.57821843016E+02  0.95171214699E+02  0.49593878078E+03  0.53684209183E+03  0.17275193673E+03 0.  0.
        -24    2    3    3    0    0  0.80782448602E+02  0.99906796063E+01  0.32343504219E+03  0.34303150700E+03  0.80217021841E+02 0.  0.
          6    2    1    2  501    0 -0.57821843016E+02 -0.95171214699E+02  0.84129300819E+03  0.86572006254E+03  0.17116183984E+03 0.  0.
         24    2    5    5    0    0 -0.84543918039E+02 -0.10446482899E+03  0.51823383516E+03  0.54139035401E+03  0.80477530594E+02 0.  0.
          5    1    5    5  501    0  0.26722075023E+02  0.92936142916E+01  0.32305917303E+03  0.32432970853E+03  0.47000000000E+01 0. -1.
        -11    1    6    6    0    0 -0.10443817409E+02 -0.66773070289E+02  0.30773739629E+03  0.31507145430E+03  0.00000000000E+00 0.  1.
         12    1    6    6    0    0 -0.74100100630E+02 -0.37691758702E+02  0.21049643887E+03  0.22631889971E+03  0.00000000000E+00 0. -1.
         -5    1    3    3    0  503 -0.22960605586E+02  0.85180535093E+02  0.17250373859E+03  0.19381058484E+03  0.47000000000E+01 0.  1.
         13    1    4    4    0    0  0.74814342089E+02  0.22822852644E+02  0.31862344764E+03  0.32808378468E+03  0.00000000000E+00 0. -1.
        -14    1    4    4    0    0  0.59681065129E+01 -0.12832173038E+02  0.48115945506E+01  0.14947722313E+02  0.00000000000E+00 0.  1.
</event>
<event>
12    1  0.8500177E-002  0.1833479E+03  0.7818608E-02  0.1164992E+00
         21   -1    0    0  501  502  0.00000000000E+00  0.00000000000E+00  0.19030743535E+02  0.19030743535E+02  0.00000000000E+00 0.  1.
         21   -1    0    0  502  503 -0.00000000000E+00 -0.00000000000E+00 -0.19733759275E+04  0.19733759275E+04  0.00000000000E+00 0.  1.
         -6    2    1    2    0  503 -0.56922934745E+02 -0.14880469800E+02 -0.63857989255E+03  0.66392830985E+03  0.17191530642E+03 0.  0.
        -24    2    3    3    0    0 -0.10424317481E+03 -0.19320652658E+02 -0.41231712127E+03  0.43267984605E+03  0.77243210553E+02 0.  0.
          6    2    1    2  501    0  0.56922934745E+02  0.14880469800E+02 -0.13157652914E+04  0.13284783612E+04  0.17365138969E+03 0.  0.
         24    2    5    5    0    0 -0.37933777821E+01  0.64233380032E+02 -0.66502747754E+03  0.67303654625E+03  0.81094573628E+02 0.  0.
          5    1    5    5  501    0  0.60716312528E+02 -0.49352910232E+02 -0.65073781390E+03  0.65544181496E+03  0.47000000000E+01 0. -1.
        -11    1    6    6    0    0 -0.18256080130E+02  0.67512401024E+01 -0.43693245816E+03  0.43736579279E+03  0.00000000000E+00 0.  1.
         12    1    6    6    0    0  0.14462702348E+02  0.57482139930E+02 -0.22809501938E+03  0.23567075346E+03  0.00000000000E+00 0. -1.
         -5    1    3    3    0  503  0.47320240066E+02  0.44401828585E+01 -0.22626277128E+03  0.23124846380E+03  0.47000000000E+01 0.  1.
         13    1    4    4    0    0 -0.64558463339E+02  0.73796750031E+01 -0.33878427886E+03  0.34495947935E+03  0.00000000000E+00 0. -1.
        -14    1    4    4    0    0 -0.39684711473E+02 -0.26700327661E+02 -0.73532842412E+02  0.87720366706E+02  0.00000000000E+00 0.  1.
</event>
<event>
12    1  0.8500177E-002  0.3334212E+03  0.7818608E-02  0.1069681E+00
         21   -1    0    0  501  502  0.00000000000E+00  0.00000000000E+00  0.42430913970E+03  0.42430913970E+03  0.00000000000E+00 0.  1.
         21   -1    0    0  502  503 -0.00000000000E+00 -0.00000000000E+00 -0.61559193331E+03  0.61559193331E+03  0.00000000000E+00 0. -1.
         -6    2    1    2    0  503  0.17672819279E+03 -0.22399280432E+03 -0.48987141461E+03  0.59232442809E+03  0.17166419178E+03 0.  0.
        -24    2    3    3    0    0  0.24884839924E+02 -0.10397869935E+03 -0.25365259894E+03  0.28690470364E+03  0.80894022312E+02 0.  0.
          6    2    1    2  501    0 -0.17672819279E+03  0.22399280432E+03  0.29858862099E+03  0.44757664492E+03  0.17252263033E+03 0.  0.
         24    2    5    5    0    0 -0.10324373465E+03  0.67107875406E+02  0.19952820739E+03  0.24795725194E+03  0.80675631764E+02 0.  0.
          5    1    5    5  501    0 -0.73484458145E+02  0.15688492892E+03  0.99060413609E+02  0.19961939298E+03  0.47000000000E+01 0. -1.
        -11    1    6    6    0    0 -0.90521085751E+00 -0.84011152641E+01  0.54128808764E+02  0.54784359836E+02  0.00000000000E+00 0.  1.
         12    1    6    6    0    0 -0.10233852379E+03  0.75508990670E+02  0.14539939862E+03  0.19317289210E+03  0.00000000000E+00 0. -1.
         -5    1    3    3    0  503  0.15184335287E+03 -0.12001410497E+03 -0.23621881568E+03  0.30541972445E+03  0.47000000000E+01 0.  1.
         13    1    4    4    0    0  0.41827764059E+02 -0.80558343947E+02 -0.12169760230E+03  0.15182066734E+03  0.00000000000E+00 0. -1.
        -14    1    4    4    0    0 -0.16942924135E+02 -0.23420355402E+02 -0.13195499664E+03  0.13508403630E+03  0.00000000000E+00 0.  1.
</event>
<event>
12    1  0.8500177E-002  0.2365502E+03  0.7818608E-02  0.1122145E+00
         21   -1    0    0  503  502  0.00000000000E+00  0.00000000000E+00  0.30336340984E+03  0.30336340984E+03  0.00000000000E+00 0. -1.
         21   -1    0    0  501  503 -0.00000000000E+00 -0.00000000000E+00 -0.29207920272E+03  0.29207920272E+03  0.00000000000E+00 0. -1.
          6    2    1    2  501    0 -0.16123261146E+03 -0.20425627987E+02 -0.17520569404E+03  0.29436883910E+03  0.17188024010E+03 0.  0.
         24    2    3    3    0    0 -0.10664107848E+02 -0.15481711236E+02 -0.34879100260E+02  0.88434481810E+02  0.79061364516E+02 0.  0.
         -6    2    1    2    0  502  0.16123261146E+03  0.20425627987E+02  0.18648990116E+03  0.30107377346E+03  0.17162101432E+03 0.  0.
        -24    2    5    5    0    0  0.14479406572E+03  0.72249759908E+02  0.12892426570E+03  0.22175253531E+03  0.79795810401E+02 0.  0.
          5    1    3    3  501    0 -0.15056850361E+03 -0.49439167507E+01 -0.14032659378E+03  0.20593435729E+03  0.47000000000E+01 0. -1.
        -11    1    4    4    0    0 -0.39047270307E+02 -0.80419669463E+01  0.36174292319E+01  0.40030592615E+02  0.00000000000E+00 0.  1.
         12    1    4    4    0    0  0.28383162460E+02 -0.74397442898E+01 -0.38496529492E+02  0.48403889195E+02  0.00000000000E+00 0. -1.
         -5    1    5    5    0  502  0.16438545738E+02 -0.51824131921E+02  0.57565635461E+02  0.79321238148E+02  0.47000000000E+01 0.  1.
         11    1    6    6    0    0  0.34883105867E+02 -0.12848383454E+02  0.48675431196E+02  0.61247119398E+02  0.00000000000E+00 0. -1.
        -12    1    6    6    0    0  0.10991095985E+03  0.85098143362E+02  0.80248834503E+02  0.16050541592E+03  0.00000000000E+00 0.  1.
</event>
<event>
12    1  0.8500177E-002  0.1818282E+03  0.7818608E-02  0.1166452E+00
         21   -1    0    0  501  502  0.00000000000E+00  0.00000000000E+00  0.11101043835E+04  0.11101043835E+04  0.00000000000E+00 0.  1.
         21   -1    0    0  502  503 -0.00000000000E+00 -0.00000000000E+00 -0.10698230304E+03  0.10698230304E+03  0.00000000000E+00 0.  1.
         -6    2    1    2    0  503 -0.24140499078E+02  0.48042374733E+02 -0.16956333991E+02  0.18092962120E+03  0.17192200877E+03 0.  0.
        -24    2    3    3    0    0  0.42975072267E+02  0.88435142194E+01 -0.40137871913E+02  0.99686010475E+02  0.80007420547E+02 0.  0.
          6    2    1    2  501    0  0.24140499078E+02 -0.48042374733E+02  0.10200784144E+04  0.10361570653E+04  0.17369703208E+03 0.  0.
         24    2    5    5    0    0  0.40637132832E+02 -0.58400745521E+02  0.10057065327E+04  0.10114978732E+04  0.81365188901E+02 0.  0.
          5    1    5    5  501    0 -0.16496633754E+02  0.10358370788E+02  0.14371881731E+02  0.24659192101E+02  0.47000000000E+01 0. -1.
        -11    1    6    6    0    0  0.21104879395E+02  0.18372756176E+02  0.32325974257E+03  0.32446854281E+03  0.00000000000E+00 0.  1.
         12    1    6    6    0    0  0.19532253437E+02 -0.76773501697E+02  0.68244679014E+03  0.68702933042E+03  0.00000000000E+00 0. -1.
         -5    1    3    3    0  503 -0.67115571345E+02  0.39198860514E+02  0.23181537923E+02  0.81243610721E+02  0.47000000000E+01 0.  1.
         11    1    4    4    0    0  0.27000589142E+02 -0.19470887006E+01  0.21838118738E+02  0.34781121293E+02  0.00000000000E+00 0. -1.
        -12    1    4    4    0    0  0.15974483125E+02  0.10790602920E+02 -0.61975990651E+02  0.64904889182E+02  0.00000000000E+00 0.  1.
</event>
<event>
12    1  0.8500177E-002  0.1746031E+03  0.7818608E-02  0.1174150E+00
         21   -1    0    0  501  502  0.00000000000E+00  0.00000000000E+00  0.31080261223E+02  0.31080261223E+02  0.00000000000E+00 0. -1.
         21   -1    0    0  502  503 -0.00000000000E+00 -0.00000000000E+00 -0.11032229862E+04  0.11032229862E+04  0.00000000000E+00 0. -1.
         -6    2    1    2    0  503  0.89216275598E+01  0.53979349297E+00 -0.74682837518E+03  0.76696731137E+03  0.17437416069E+03 0.  0.
        -24    2    3    3    0    0  0.46262457910E+02  0.35746850496E+02 -0.65185574831E+03  0.65891286061E+03  0.76368769400E+02 0.  0.
          6    2    1    2  501    0 -0.89216275598E+01 -0.53979349297E+00 -0.32531434982E+03  0.36733593608E+03  0.17037129136E+03 0.  0.
         24    2    5    5    0    0 -0.38349585743E+02 -0.39546881089E+02 -0.12048252988E+03  0.15670421466E+03  0.83699010489E+02 0.  0.
          5    1    5    5  501    0  0.29427958183E+02  0.39007087596E+02 -0.20483181994E+03  0.21063172142E+03  0.47000000000E+01 0. -1.
        -11    1    6    6    0    0 -0.35045058885E+02  0.13230803701E+02 -0.85371760381E+02  0.93228470916E+02  0.00000000000E+00 0.  1.
         12    1    6    6    0    0 -0.33045268574E+01 -0.52777684789E+02 -0.35110769496E+02  0.63475743745E+02  0.00000000000E+00 0. -1.
         -5    1    3    3    0  503 -0.37340830350E+02 -0.35207057003E+02 -0.94972626865E+02  0.10805445075E+03  0.47000000000E+01 0.  1.
         11    1    4    4    0    0  0.39698506780E+02 -0.96091304948E+01 -0.45332113970E+03  0.45515751398E+03  0.00000000000E+00 0. -1.
        -12    1    4    4    0    0  0.65639511301E+01  0.45355980991E+02 -0.19853460861E+03  0.20375534664E+03  0.00000000000E+00 0.  1.
</event>
<event>
12    1  0.8500177E-002  0.3298370E+03  0.7818608E-02  0.1071232E+00
         21   -1    0    0  503  502  0.00000000000E+00  0.00000000000E+00  0.72920250165E+02  0.72920250165E+02  0.00000000000E+00 0.  1.
         21   -1    0    0  501  503 -0.00000000000E+00 -0.00000000000E+00 -0.15114538040E+04  0.15114538040E+04  0.00000000000E+00 0. -1.
          6    2    1    2  501    0 -0.18851647531E+03  0.20884547095E+03 -0.62685293238E+03  0.70823601046E+03  0.17175201738E+03 0.  0.
         24    2    3    3    0    0 -0.19309557507E+03  0.15691774791E+03 -0.42306731815E+03  0.49783609805E+03  0.83341130970E+02 0.  0.
         -6    2    1    2    0  502  0.18851647531E+03 -0.20884547095E+03 -0.81168062143E+03  0.87613804369E+03  0.17215559294E+03 0.  0.
        -24    2    5    5    0    0  0.13618107805E+03 -0.55498844763E+02 -0.38962180646E+03  0.42402089641E+03  0.79769422269E+02 0.  0.
          5    1    3    3  501    0  0.45790997587E+01  0.51927723039E+02 -0.20378561423E+03  0.21039991241E+03  0.47000000000E+01 0. -1.
        -11    1    4    4    0    0 -0.26557627554E+01 -0.64934755071E+01 -0.14074660360E+01  0.71553658618E+01  0.00000000000E+00 0.  1.
         12    1    4    4    0    0 -0.19043981232E+03  0.16341122342E+03 -0.42165985211E+03  0.49068073219E+03  0.00000000000E+00 0. -1.
         -5    1    5    5    0  502  0.52335397266E+02 -0.15334662619E+03 -0.42205881497E+03  0.45211714728E+03  0.47000000000E+01 0.  1.
         13    1    6    6    0    0  0.21003779737E+02  0.33006922069E-01 -0.15850912810E+03  0.15989466390E+03  0.00000000000E+00 0. -1.
        -14    1    6    6    0    0  0.11517729831E+03 -0.55531851685E+02 -0.23111267837E+03  0.26412623251E+03  0.00000000000E+00 0.  1.
</event>
<event>
12    1  0.8500177E-002  0.2101401E+03  0.7818608E-02  0.1142048E+00
         21   -1    0    0  503  502  0.00000000000E+00  0.00000000000E+00  0.18065516000E+03  0.18065516000E+03  0.00000000000E+00 0. -1.
         21   -1    0    0  501  503 -0.00000000000E+00 -0.00000000000E+00 -0.29296020572E+03  0.29296020572E+03  0.00000000000E+00 0. -1.
          6    2    1    2  501    0 -0.62356639800E+02 -0.94510653553E+02 -0.15622240577E+03  0.26184784613E+03  0.17702610060E+03 0.  0.
         24    2    3    3    0    0 -0.13492568888E+02  0.62064716642E+01 -0.11077761641E+03  0.14093897293E+03  0.85857696727E+02 0.  0.
         -6    2    1    2    0  502  0.62356639800E+02  0.94510653553E+02  0.43917360059E+02  0.21176751959E+03  0.17348237281E+03 0.  0.
        -24    2    5    5    0    0  0.36867715346E+02  0.66263557966E+01  0.71751882953E+02  0.11600643289E+03  0.83102483344E+02 0.  0.
          5    1    3    3  501    0 -0.48864070912E+02 -0.10071712522E+03 -0.45444789362E+02  0.12090887320E+03  0.47000000000E+01 0. -1.
        -13    1    4    4    0    0 -0.46958165639E+02 -0.31091682456E+01 -0.38709965917E+02  0.60936013232E+02  0.00000000000E+00 0.  1.
         14    1    4    4    0    0  0.33465596751E+02  0.93156399098E+01 -0.72067650492E+02  0.80002959697E+02  0.00000000000E+00 0. -1.
         -5    1    5    5    0  502  0.25488924453E+02  0.87884297756E+02 -0.27834522894E+02  0.95761086704E+02  0.47000000000E+01 0.  1.
         13    1    6    6    0    0  0.29099693474E+02  0.40299770876E+02  0.19575242344E+02  0.53423345138E+02  0.00000000000E+00 0. -1.
        -14    1    6    6    0    0  0.77680218721E+01 -0.33673415079E+02  0.52176640609E+02  0.62583087749E+02  0.00000000000E+00 0.  1.
</event>
<event>
12    1  0.8500177E-002  0.1796216E+03  0.7818608E-02  0.1169186E+00
         21   -1    0    0  501  502  0.00000000000E+00  0.00000000000E+00  0.20391629804E+03  0.20391629804E+03  0.00000000000E+00 0. -1.
         21   -1    0    0  502  503 -0.00000000000E+00 -0.00000000000E+00 -0.16268313994E+03  0.16268313994E+03  0.00000000000E+00 0.  1.
         -6    2    1    2    0  503  0.31405564789E+02 -0.42124933306E+02 -0.20475024626E+02  0.17667365691E+03  0.16743218002E+03 0.  0.
        -24    2    3    3    0    0  0.73183542313E+02 -0.23069298280E+02 -0.51006532733E+02  0.12133127153E+03  0.78940405886E+02 0.  0.
          6    2    1    2  501    0 -0.31405564789E+02  0.42124933306E+02  0.61708182726E+02  0.18992578108E+03  0.17176461509E+03 0.  0.
         24    2    5    5    0    0  0.24459331624E+02 -0.19494487947E+02  0.63956288715E+02  0.10658921223E+03  0.79325653691E+02 0.  0.
          5    1    5    5  501    0 -0.55864896414E+02  0.61619421253E+02 -0.22481059888E+01  0.83336568848E+02  0.47000000000E+01 0. -1.
        -11    1    6    6    0    0 -0.94957196187E+01  0.21381902596E+02 -0.54184032283E-01  0.23395670232E+02  0.00000000000E+00 0.  1.
         12    1    6    6    0    0  0.33955051243E+02 -0.40876390542E+02  0.64010472747E+02  0.83193541997E+02  0.00000000000E+00 0. -1.
         -5    1    3    3    0  503 -0.41777977524E+02 -0.19055635026E+02  0.30531508107E+02  0.55342385379E+02  0.47000000000E+01 0.  1.
         11    1    4    4    0    0  0.18931441195E+02 -0.43992847699E+02 -0.69851624735E+01  0.48400026954E+02  0.00000000000E+00 0. -1.
        -12    1    4    4    0    0  0.54252101118E+02  0.20923549419E+02 -0.44021370260E+02  0.72931244577E+02  0.00000000000E+00 0.  1.
</event>
<event>
12    1  0.8500177E-002  0.1724277E+03  0.7818608E-02  0.1175461E+00
         21   -1    0    0  501  502  0.00000000000E+00  0.00000000000E+00  0.62795962538E+03  0.62795962538E+03  0.00000000000E+00 0. -1.
         21   -1    0    0  502  503 -0.00000000000E+00 -0.00000000000E+00 -0.11568824470E+03  0.11568824470E+03  0.00000000000E+00 0. -1.
         -6    2    1    2    0  503 -0.10870309946E+02 -0.79897336734E+01 -0.30063524403E+02  0.17456222037E+03  0.17142390090E+03 0.  0.
        -24    2    3    3    0    0  0.28831750992E+02 -0.24718282614E+02 -0.69699665124E+02  0.11583223107E+03  0.84361123010E+02 0.  0.
          6    2    1    2  501    0  0.10870309946E+02  0.79897336734E+01  0.54233490508E+03  0.56908564971E+03  0.17189917961E+03 0.  0.
         24    2    5    5    0    0 -0.61771947546E+01 -0.54954162943E+02  0.22978895777E+03  0.24977449939E+03  0.80785008956E+02 0.  0.
          5    1    5    5  501    0  0.17047504700E+02  0.62943896616E+02  0.31254594731E+03  0.31931115032E+03  0.47000000000E+01 0. -1.
        -13    1    6    6    0    0 -0.27736534483E+02 -0.54422007051E+02  0.21529071324E+03  0.22378820658E+03  0.00000000000E+00 0.  1.
         14    1    6    6    0    0  0.21559339729E+02 -0.53215589144E+00  0.14498244526E+02  0.25986292805E+02  0.00000000000E+00 0. -1.
         -5    1    3    3    0  503 -0.39702060938E+02  0.16728548941E+02  0.39636140721E+02  0.58729989304E+02  0.47000000000E+01 0.  1.
         13    1    4    4    0    0  0.34353867336E+02  0.21083969022E+02 -0.12201751152E+02  0.42114186230E+02  0.00000000000E+00 0. -1.
        -14    1    4    4    0    0 -0.55221163436E+01 -0.45802251636E+02 -0.57497913972E+02  0.73718044840E+02  0.00000000000E+00 0.  1.
</event>
<event>
12    1  0.8500177E-002  0.2150707E+03  0.7818608E-02  0.1138485E+00
         21   -1    0    0  503  502  0.00000000000E+00  0.00000000000E+00  0.56604964630E+03  0.56604964630E+03  0.00000000000E+00 0.  1.
         21   -1    0    0  501  503 -0.00000000000E+00 -0.00000000000E+00 -0.14201887436E+03  0.14201887436E+03  0.00000000000E+00 0. -1.
          6    2    1    2  501    0 -0.89227713481E+02 -0.92658550089E+02 -0.23164502706E+02  0.21184373928E+03  0.16671527804E+03 0.  0.
         24    2    3    3    0    0 -0.20759666756E+02 -0.96331886869E+02  0.23693617645E+02  0.12866236956E+03  0.79257943661E+02 0.  0.
         -6    2    1    2    0  502  0.89227713481E+02  0.92658550089E+02  0.44719527465E+03  0.49622478137E+03  0.17236075023E+03 0.  0.
        -24    2    5    5    0    0 -0.10507427046E+02  0.61140211554E+02  0.28908071309E+03  0.30658615530E+03  0.81110298056E+02 0.  0.
          5    1    3    3  501    0 -0.68468046726E+02  0.36733367805E+01 -0.46858120352E+02  0.83181369720E+02  0.47000000000E+01 0. -1.
        -11    1    4    4    0    0 -0.16496717943E+02  0.10436919565E+02  0.19455677035E+01  0.19617752842E+02  0.00000000000E+00 0.  1.
         12    1    4    4    0    0 -0.42629488127E+01 -0.10676880643E+03  0.21748049942E+02  0.10904461672E+03  0.00000000000E+00 0. -1.
         -5    1    5    5    0  502  0.99735140528E+02  0.31518338535E+02  0.15811456156E+03  0.18963862607E+03  0.47000000000E+01 0.  1.
         13    1    6    6    0    0 -0.15105857656E+02  0.80658896508E+02  0.23266435546E+03  0.24671187005E+03  0.00000000000E+00 0. -1.
        -14    1    6    6    0    0  0.45984306099E+01 -0.19518684954E+02  0.56416357628E+02  0.59874285252E+02  0.00000000000E+00 0.  1.
</event>
<event>
12    1  0.8500177E-002  0.1794195E+03  0.7818608E-02  0.1168488E+00
         21   -1    0    0  503  502  0.00000000000E+00  0.00000000000E+00  0.30035339546E+03  0.30035339546E+03  0.00000000000E+00 0.  1.
         21   -1    0    0  501  503 -0.00000000000E+00 -0.00000000000E+00 -0.11029297299E+03  0.11029297299E+03  0.00000000000E+00 0.  1.
          6    2    1    2  501    0  0.17363232158E+02 -0.44877796823E+02  0.13101860163E+03  0.22176207649E+03  0.17232830911E+03 0.  0.
         24    2    3    3    0    0  0.68095628624E+02 -0.11778264744E+02  0.12042913128E+03  0.16008888980E+03  0.79683968392E+02 0.  0.
         -6    2    1    2    0  502 -0.17363232158E+02  0.44877796823E+02  0.59041820840E+02  0.18888429196E+03  0.17284629201E+03 0.  0.
        -24    2    5    5    0    0  0.40017864879E+02 -0.70396087026E+01 -0.45442221955E+01  0.88618235078E+02  0.78622872199E+02 0.  0.
          5    1    3    3  501    0 -0.50732396466E+02 -0.33099532079E+02  0.10589470350E+02  0.61673186697E+02  0.47000000000E+01 0. -1.
        -11    1    4    4    0    0  0.76233612564E+02 -0.30057199525E+02  0.11099676957E+03  0.13796840864E+03  0.00000000000E+00 0.  1.
         12    1    4    4    0    0 -0.81379839394E+01  0.18278934781E+02  0.94323617087E+01  0.22120481159E+02  0.00000000000E+00 0. -1.
         -5    1    5    5    0  502 -0.57381097037E+02  0.51917405525E+02  0.63586043036E+02  0.10026605688E+03  0.47000000000E+01 0.  1.
         11    1    6    6    0    0  0.25909684141E+02 -0.13429521428E+02  0.35340221644E+02  0.45832248951E+02  0.00000000000E+00 0. -1.
        -12    1    6    6    0    0  0.14108180738E+02  0.63899127255E+01 -0.39884443840E+02  0.42785986126E+02  0.00000000000E+00 0.  1.
</event>
<event>
12    1  0.8500177E-002  0.2634300E+03  0.7818608E-02  0.1105113E+00
         21   -1    0    0  501  502  0.00000000000E+00  0.00000000000E+00  0.10593621026E+04  0.10593621026E+04  0.00000000000E+00 0.  1.
         21   -1    0    0  502  503 -0.00000000000E+00 -0.00000000000E+00 -0.66827497325E+02  0.66827497325E+02  0.00000000000E+00 0.  1.
         -6    2    1    2    0  503  0.11980959471E+03  0.15935736672E+03  0.41650564609E+03  0.49282076413E+03  0.17218084396E+03 0.  0.
        -24    2    3    3    0    0  0.35614993625E+01  0.10619203931E+03  0.18613394118E+03  0.22931861209E+03  0.81558250963E+02 0.  0.
          6    2    1    2  501    0 -0.11980959471E+03 -0.15935736672E+03  0.57602895924E+03  0.63336883584E+03  0.17203956236E+03 0.  0.
         24    2    5    5    0    0 -0.11977140056E+03 -0.18600804877E+03  0.50389336658E+03  0.55632408234E+03  0.81509368264E+02 0.  0.
          5    1    5    5  501    0 -0.38194156107E-01  0.26650682054E+02  0.72135592659E+02  0.77044753494E+02  0.47000000000E+01 0. -1.
        -13    1    6    6    0    0 -0.31587075605E+02 -0.33973529579E+01  0.50734080975E+02  0.59860106287E+02  0.00000000000E+00 0.  1.
         14    1    6    6    0    0 -0.88184324952E+02 -0.18261069582E+03  0.45315928560E+03  0.49646397606E+03  0.00000000000E+00 0. -1.
         -5    1    3    3    0  503  0.11624809535E+03  0.53165327405E+02  0.23037170491E+03  0.26350215205E+03  0.47000000000E+01 0.  1.
         11    1    4    4    0    0  0.15529080353E+02  0.33416892139E+02  0.13406734637E+03  0.13903918289E+03  0.00000000000E+00 0. -1.
        -12    1    4    4    0    0 -0.11967580991E+02  0.72775147175E+02  0.52066594810E+02  0.90279429197E+02  0.00000000000E+00 0.  1.
</event>
<event>
12    1  0.8500177E-002  0.1763169E+03  0.7818608E-02  0.1171497E+00
         21   -1    0    0  503  502  0.00000000000E+00  0.00000000000E+00  0.47623366627E+03  0.47623366627E+03  0.00000000000E+00 0. -1.
         21   -1    0    0  501  503 -0.00000000000E+00 -0.00000000000E+00 -0.84729533772E+02  0.84729533772E+02  0.00000000000E+00 0. -1.
          6    2    1    2  501    0 -0.67569661745E+01  0.31895638732E+02  0.61086557219E+02  0.18659904911E+03  0.17327622253E+03 0.  0.
         24    2    3    3    0    0  0.43371050353E+02  0.83436291183E+01 -0.14800170061E+02  0.92533111732E+02  0.79954159224E+02 0.  0.
         -6    2    1    2    0  502  0.67569661745E+01 -0.31895638732E+02  0.33041757528E+03  0.37436415093E+03  0.17294436992E+03 0.  0.
        -24    2    5    5    0    0 -0.58527172706E+02 -0.15394331240E+02  0.24493841171E+03  0.26544634090E+03  0.82489508335E+02 0.  0.
          5    1    3    3  501    0 -0.50128016528E+02  0.23552009614E+02  0.75886727280E+02  0.94065937380E+02  0.47000000000E+01 0. -1.
        -13    1    4    4    0    0 -0.16183921327E+02 -0.12520646114E+02  0.12280132373E+02  0.23863938060E+02  0.00000000000E+00 0.  1.
         14    1    4    4    0    0  0.59554971681E+02  0.20864275232E+02 -0.27080302434E+02  0.68669173672E+02  0.00000000000E+00 0. -1.
         -5    1    5    5    0  502  0.65284138880E+02 -0.16501307492E+02  0.85479163572E+02  0.10891781004E+03  0.47000000000E+01 0.  1.
         13    1    6    6    0    0 -0.57056851621E+02 -0.41579180961E+02  0.13411864822E+03  0.15156557791E+03  0.00000000000E+00 0. -1.
        -14    1    6    6    0    0 -0.14703210845E+01  0.26184849721E+02  0.11081976349E+03  0.11388076299E+03  0.00000000000E+00 0.  1.
</event>
<event>
12    1  0.8500177E-002  0.1820443E+03  0.7818608E-02  0.1166221E+00
         21   -1    0    0  501  502  0.00000000000E+00  0.00000000000E+00  0.45755542171E+03  0.45755542171E+03  0.00000000000E+00 0.  1.
         21   -1    0    0  502  503 -0.00000000000E+00 -0.00000000000E+00 -0.85306583674E+02  0.85306583674E+02  0.00000000000E+00 0.  1.
         -6    2    1    2    0  503  0.50760917307E+02 -0.23342577955E+02  0.78794227849E+02  0.19836495491E+03  0.17325870346E+03 0.  0.
        -24    2    3    3    0    0 -0.16541457664E+02 -0.62226970587E+02  0.35354429957E+02  0.10919819144E+03  0.80799094092E+02 0.  0.
          6    2    1    2  501    0 -0.50760917307E+02  0.23342577955E+02  0.29345461018E+03  0.34449705047E+03  0.17158398198E+03 0.  0.
         24    2    5    5    0    0 -0.27802443667E+02  0.43903239502E+02  0.29845020253E+03  0.31292367153E+03  0.78410652956E+02 0.  0.
          5    1    5    5  501    0 -0.22958473639E+02 -0.20560661547E+02 -0.49955923477E+01  0.31573378945E+02  0.47000000000E+01 0. -1.
        -13    1    6    6    0    0 -0.31726234592E+02 -0.91325870544E+01  0.58710921491E+02  0.67356739901E+02  0.00000000000E+00 0.  1.
         14    1    6    6    0    0  0.39237909245E+01  0.53035826556E+02  0.23973928104E+03  0.24556693162E+03  0.00000000000E+00 0. -1.
         -5    1    3    3    0  503  0.67302374971E+02  0.38884392631E+02  0.43439797892E+02  0.89166763471E+02  0.47000000000E+01 0.  1.
         13    1    4    4    0    0 -0.37482435147E+02 -0.62776845764E+01  0.31451658305E+02  0.49331015379E+02  0.00000000000E+00 0. -1.
        -14    1    4    4    0    0  0.20940977482E+02 -0.55949286010E+02  0.39027716519E+01  0.59867176061E+02  0.00000000000E+00 0.  1.
</event>
<event>
12    1  0.8500177E-002  0.1812071E+03  0.7818608E-02  0.1166763E+00
         21   -1    0    0  503  502  0.00000000000E+00  0.00000000000E+00  0.40229202332E+03  0.40229202332E+03  0.00000000000E+00 0.  1.
         21   -1    0    0  501  503 -0.00000000000E+00 -0.00000000000E+00 -0.81404605049E+02  0.81404605049E+02  0.00000000000E+00 0.  1.
          6    2    1    2  501    0  0.40670003984E+02 -0.43500162248E+02  0.15720951459E+03  0.23951132422E+03  0.17060049711E+03 0.  0.
         24    2    3    3    0    0  0.91801493139E+02 -0.35657997257E+02  0.99363213619E+02  0.16176678570E+03  0.81218457401E+02 0.  0.
         -6    2    1    2    0  502 -0.40670003984E+02  0.43500162248E+02  0.16367790368E+03  0.24418530415E+03  0.17114231875E+03 0.  0.
        -24    2    5    5    0    0 -0.42552715521E+02  0.72332447002E+02  0.49633144439E+02  0.12644345790E+03  0.80509518267E+02 0.  0.
          5    1    3    3  501    0 -0.51131489154E+02 -0.78421649911E+01  0.57846300973E+02  0.77744538530E+02  0.47000000000E+01 0. -1.
        -13    1    4    4    0    0  0.19194384741E+02 -0.50076012663E+02  0.41614835655E+02  0.67880969324E+02  0.00000000000E+00 0.  1.
         14    1    4    4    0    0  0.72607108397E+02  0.14418015406E+02  0.57748377965E+02  0.93885816371E+02  0.00000000000E+00 0. -1.
         -5    1    5    5    0  502  0.18827115371E+01 -0.28832284754E+02  0.11404475924E+03  0.11774184625E+03  0.47000000000E+01 0.  1.
         13    1    6    6    0    0 -0.33419703254E+02  0.12001188024E+02 -0.14103240417E+02  0.38207413807E+02  0.00000000000E+00 0. -1.
        -14    1    6    6    0    0 -0.91330122676E+01  0.60331258978E+02  0.63736384856E+02  0.88236044094E+02  0.00000000000E+00 0.  1.
</event>
<event>
12    1  0.8500177E-002  0.2751180E+03  0.7818608E-02  0.1098622E+00
         21   -1    0    0  501  502  0.00000000000E+00  0.00000000000E+00  0.55482726433E+03  0.55482726433E+03  0.00000000000E+00 0.  1.
         21   -1    0    0  502  503 -0.00000000000E+00 -0.00000000000E+00 -0.27083998478E+03  0.27083998478E+03  0.00000000000E+00 0. -1.
         -6    2    1    2    0  503  0.21160398139E+03 -0.23977687004E+02 -0.14952726942E+03  0.31312664906E+03  0.17418013559E+03 0.  0.
        -24    2    3    3    0    0  0.15799520651E+03 -0.82998423350E+02 -0.10437213736E+03  0.22137467897E+03  0.79132685246E+02 0.  0.
          6    2    1    2  501    0 -0.21160398139E+03  0.23977687004E+02  0.43351454898E+03  0.51254060005E+03  0.17149877002E+03 0.  0.
         24    2    5    5    0    0 -0.21522482086E+03  0.11427765142E+02  0.44080394539E+03  0.49686143180E+03  0.78171905498E+02 0.  0.
          5    1    5    5  501    0  0.36208394724E+01  0.12549921862E+02 -0.72893964096E+01  0.15679168258E+02  0.47000000000E+01 0. -1.
        -13    1    6    6    0    0 -0.12365980160E+03  0.12595794727E+02  0.16721150857E+03  0.20835087995E+03  0.00000000000E+00 0.  1.
         14    1    6    6    0    0 -0.91565019254E+02 -0.11680295847E+01  0.27359243681E+03  0.28851055184E+03  0.00000000000E+00 0. -1.
         -5    1    3    3    0  503  0.53608774877E+02  0.59020736346E+02 -0.45155132059E+02  0.91751970082E+02  0.47000000000E+01 0.  1.
         11    1    4    4    0    0  0.10734535152E+03 -0.66088871805E+02 -0.29589738089E+02  0.12948481019E+03  0.00000000000E+00 0. -1.
        -12    1    4    4    0    0  0.50649854987E+02 -0.16909551546E+02 -0.74782399276E+02  0.91889868784E+02  0.00000000000E+00 0.  1.
</event>
<event>
12    1  0.8500177E-002  0.1753764E+03  0.7818608E-02  0.1174280E+00
         21   -1    0    0  503  502  0.00000000000E+00  0.00000000000E+00  0.16344449748E+03  0.16344449748E+03  0.00000000000E+00 0.  1.
         21   -1    0    0  501  503 -0.00000000000E+00 -0.00000000000E+00 -0.28141673950E+03  0.28141673950E+03  0.00000000000E+00 0.  1.
          6    2    1    2  501    0 -0.11434454588E+02 -0.66593625515E+01 -0.19318693380E+03  0.26091773519E+03  0.17487646864E+03 0.  0.
         24    2    3    3    0    0 -0.20665770917E+02 -0.15104385388E+02 -0.15867665414E+02  0.83095496555E+02  0.77445866232E+02 0.  0.
         -6    2    1    2    0  502  0.11434454588E+02  0.66593625515E+01  0.75214691781E+02  0.18394350179E+03  0.16734057526E+03 0.  0.
        -24    2    5    5    0    0 -0.45347063268E+02 -0.15568702829E+02  0.80903232413E+02  0.12252137910E+03  0.78532889080E+02 0.  0.
          5    1    3    3  501    0  0.92313163293E+01  0.84450228367E+01 -0.17731926839E+03  0.17782223864E+03  0.47000000000E+01 0. -1.
        -13    1    4    4    0    0  0.10970989914E+02 -0.23975421726E+02 -0.35953738237E+02  0.44585364861E+02  0.00000000000E+00 0.  1.
         14    1    4    4    0    0 -0.31636760832E+02  0.88710363373E+01  0.20086072823E+02  0.38510131693E+02  0.00000000000E+00 0. -1.
         -5    1    5    5    0  502  0.56781517856E+02  0.22228065381E+02 -0.56885406321E+01  0.61422122685E+02  0.47000000000E+01 0.  1.
         11    1    6    6    0    0  0.15730834309E+02 -0.34266060439E+01 -0.46005057585E+01  0.16744116289E+02  0.00000000000E+00 0. -1.
        -12    1    6    6    0    0 -0.61077897577E+02 -0.12142096785E+02  0.85503738172E+02  0.10577726281E+03  0.00000000000E+00 0.  1.
</event>
<event>
12    1  0.8500177E-002  0.1862213E+03  0.7818608E-02  0.1162154E+00
         21   -1    0    0  503  502  0.00000000000E+00  0.00000000000E+00  0.67527013139E+02  0.67527013139E+02  0.00000000000E+00 0.  1.
         21   -1    0    0  501  503 -0.00000000000E+00 -0.00000000000E+00 -0.88501226846E+03  0.88501226846E+03  0.00000000000E+00 0.  1.
          6    2    1    2  501    0  0.67753260843E+02 -0.12232292890E+02 -0.71782201681E+03  0.74132577650E+03  0.17191662438E+03 0.  0.
         24    2    3    3    0    0  0.18635721198E+02 -0.10432730364E+01 -0.16294424868E+03  0.18414613363E+03  0.83729277010E+02 0.  0.
         -6    2    1    2    0  502 -0.67753260843E+02  0.12232292890E+02 -0.99663238515E+02  0.21121350511E+03  0.17302673286E+03 0.  0.
        -24    2    5    5    0    0 -0.73644856175E+02  0.68736662495E+02 -0.54448630078E+02  0.13845427548E+03  0.77824414345E+02 0.  0.
          5    1    3    3  501    0  0.49117539645E+02 -0.11189019853E+02 -0.55487776813E+03  0.55717964287E+03  0.47000000000E+01 0. -1.
        -13    1    4    4    0    0  0.21649051013E+02  0.32891443917E+02 -0.13327292231E+03  0.13896834284E+03  0.00000000000E+00 0.  1.
         14    1    4    4    0    0 -0.30133298154E+01 -0.33934716954E+02 -0.29671326376E+02  0.45177790785E+02  0.00000000000E+00 0. -1.
         -5    1    5    5    0  502  0.58915953321E+01 -0.56504369606E+02 -0.45214608437E+02  0.72759229629E+02  0.47000000000E+01 0.  1.
         13    1    6    6    0    0 -0.21335507772E+02  0.44016672459E+02  0.11982196703E+02  0.50361139623E+02  0.00000000000E+00 0. -1.
        -14    1    6    6    0    0 -0.52309348404E+02  0.24719990036E+02 -0.66430826780E+02  0.88093135854E+02  0.00000000000E+00 0.  1.
</event>
<event>
12    1  0.8500177E-002  0.1927560E+03  0.7818608E-02  0.1156463E+00
         21   -1    0    0  501  502  0.00000000000E+00  0.00000000000E+00  0.15529516883E+03  0.15529516883E+03  0.00000000000E+00 0. -1.
         21   -1    0    0  502  503 -0.00000000000E+00 -0.00000000000E+00 -0.24912005286E+03  0.24912005286E+03  0.00000000000E+00 0. -1.
         -6    2    1    2    0  503 -0.22712012500E+01 -0.80712890788E+02 -0.14722934905E+01  0.19067736830E+03  0.17273089486E+03 0.  0.
        -24    2    3    3    0    0 -0.99121022144E+01 -0.78266502959E+02  0.60778703248E+02  0.12773577017E+03  0.79990505408E+02 0.  0.
          6    2    1    2  501    0  0.22712012500E+01  0.80712890788E+02 -0.92352590545E+02  0.21373785339E+03  0.17502896874E+03 0.  0.
         24    2    5    5    0    0  0.44625505632E+02  0.52794385316E+02  0.90748716007E+01  0.10023476918E+03  0.72013698592E+02 0.  0.
          5    1    5    5  501    0 -0.42354304382E+02  0.27918505472E+02 -0.10142746215E+03  0.11350308421E+03  0.47000000000E+01 0. -1.
        -11    1    6    6    0    0  0.62053799027E+02  0.28206108712E+02  0.14298331270E+02  0.69646972795E+02  0.00000000000E+00 0.  1.
         12    1    6    6    0    0 -0.17428293395E+02  0.24588276604E+02 -0.52234596692E+01  0.30587796389E+02  0.00000000000E+00 0. -1.
         -5    1    3    3    0  503  0.76409009644E+01 -0.24463878293E+01 -0.62250996738E+02  0.62941598136E+02  0.47000000000E+01 0.  1.
         11    1    4    4    0    0 -0.70905599649E+01 -0.94854887841E+02  0.55367917763E+02  0.11006058380E+03  0.00000000000E+00 0. -1.
        -12    1    4    4    0    0 -0.28215422495E+01  0.16588384882E+02  0.54107854845E+01  0.17675186370E+02  0.00000000000E+00 0.  1.
</event>
<event>
12    1  0.8500177E-002  0.1939098E+03  0.7818608E-02  0.1155053E+00
         21   -1    0    0  501  502  0.00000000000E+00  0.00000000000E+00  0.14461020725E+03  0.14461020725E+03  0.00000000000E+00 0. -1.
         21   -1    0    0  502  503 -0.00000000000E+00 -0.00000000000E+00 -0.35595770127E+03  0.35595770127E+03  0.00000000000E+00 0. -1.
         -6    2    1    2    0  503  0.72573400956E+02 -0.51116042645E+02 -0.23584287153E+03  0.30511710395E+03  0.17203150504E+03 0.  0.
        -24    2    3    3    0    0 -0.65138684963E+01 -0.40131081968E+02 -0.19517671115E+03  0.21538811114E+03  0.81517823948E+02 0.  0.
          6    2    1    2  501    0 -0.72573400956E+02  0.51116042645E+02  0.24495377513E+02  0.19545080458E+03  0.17239850680E+03 0.  0.
         24    2    5    5    0    0  0.26009769364E+02  0.32083552098E+01  0.16895418745E+02  0.85479729473E+02  0.79589743879E+02 0.  0.
          5    1    5    5  501    0 -0.98583170321E+02  0.47907687435E+02  0.75999587672E+01  0.10997107510E+03  0.47000000000E+01 0. -1.
        -13    1    6    6    0    0  0.41183710514E+02  0.10881887739E+02 -0.18323436134E+02  0.46370915499E+02  0.00000000000E+00 0.  1.
         14    1    6    6    0    0 -0.15173941149E+02 -0.76735325288E+01  0.35218854880E+02  0.39108813975E+02  0.00000000000E+00 0. -1.
         -5    1    3    3    0  503  0.79087269453E+02 -0.10984960677E+02 -0.40666160378E+02  0.89728992809E+02  0.47000000000E+01 0.  1.
         11    1    4    4    0    0  0.22081342607E+02 -0.38771392087E+02 -0.48329529322E+02  0.65776515111E+02  0.00000000000E+00 0. -1.
        -12    1    4    4    0    0 -0.28595211103E+02 -0.13596898808E+01 -0.14684718183E+03  0.14961159603E+03  0.00000000000E+00 0.  1.
</event>
<event>
12    1  0.8500177E-002  0.2059872E+03  0.7818608E-02  0.1145889E+00
         21   -1    0    0  501  502  0.00000000000E+00  0.00000000000E+00  0.10356550098E+04  0.10356550098E+04  0.00000000000E+00 0.  1.
         21   -1    0    0  502  503 -0.00000000000E+00 -0.00000000000E+00 -0.42813503917E+02  0.42813503917E+02  0.00000000000E+00 0.  1.
         -6    2    1    2    0  503  0.72317909968E+02  0.76071671321E+02  0.36210225668E+03  0.41659186259E+03  0.17723982736E+03 0.  0.
        -24    2    3    3    0    0 -0.23834154900E+02  0.38621764810E+02  0.11858603748E+03  0.15207351901E+03  0.83689899286E+02 0.  0.
          6    2    1    2  501    0 -0.72317909968E+02 -0.76071671321E+02  0.63073924918E+03  0.66187665110E+03  0.17097345273E+03 0.  0.
         24    2    5    5    0    0 -0.68627795319E+02 -0.11759430837E+03  0.51820621488E+03  0.54177869050E+03  0.80301137492E+02 0.  0.
          5    1    5    5  501    0 -0.36901146494E+01  0.41522637049E+02  0.11253303430E+03  0.12009796060E+03  0.47000000000E+01 0. -1.
        -11    1    6    6    0    0  0.26745043385E+01 -0.74368442159E+02  0.26032018962E+03  0.27074788879E+03  0.00000000000E+00 0.  1.
         12    1    6    6    0    0 -0.71302299658E+02 -0.43225866211E+02  0.25788602526E+03  0.27103080171E+03  0.00000000000E+00 0. -1.
         -5    1    3    3    0  503  0.96152064868E+02  0.37449906511E+02  0.24351621920E+03  0.26451834358E+03  0.47000000000E+01 0.  1.
         11    1    4    4    0    0  0.13174256311E+02 -0.73152861567E+01 -0.43777132972E+01  0.15691998427E+02  0.00000000000E+00 0. -1.
        -12    1    4    4    0    0 -0.37008411211E+02  0.45937050967E+02  0.12296375078E+03  0.13638152058E+03  0.00000000000E+00 0.  1.
</event>
<event>
12    1  0.8500177E-002  0.2758249E+03  0.7818608E-02  0.1098661E+00
         21   -1    0    0  503  502  0.00000000000E+00  0.00000000000E+00  0.16801657687E+04  0.16801657687E+04  0.00000000000E+00 0.  1.
         21   -1    0    0  501  503 -0.00000000000E+00 -0.00000000000E+00 -0.48147596000E+02  0.48147596000E+02  0.00000000000E+00 0.  1.
          6    2    1    2  501    0  0.73718297206E+02  0.20218233591E+03  0.10603602874E+04  0.10956474460E+04  0.17253203308E+03 0.  0.
         24    2    3    3    0    0  0.92913095751E+02  0.14249323680E+03  0.95060062010E+03  0.96915434966E+03  0.81740128739E+02 0.  0.
         -6    2    1    2    0  502 -0.73718297206E+02 -0.20218233591E+03  0.57165788533E+03  0.63266591877E+03  0.16480698596E+03 0.  0.
        -24    2    5    5    0    0 -0.88119324900E+02 -0.10051622337E+03  0.24424627403E+03  0.28949855254E+03  0.79275740052E+02 0.  0.
          5    1    3    3  501    0 -0.19194798544E+02  0.59689099111E+02  0.10975966732E+03  0.12649309631E+03  0.47000000000E+01 0. -1.
        -11    1    4    4    0    0  0.66081498688E+02  0.80983962953E+02  0.36344972125E+03  0.37818099714E+03  0.00000000000E+00 0.  1.
         12    1    4    4    0    0  0.26831597063E+02  0.61509273846E+02  0.58715089885E+03  0.59097335252E+03  0.00000000000E+00 0. -1.
         -5    1    5    5    0  502  0.14401027694E+02 -0.10166611254E+03  0.32741161130E+03  0.34316736624E+03  0.47000000000E+01 0.  1.
         13    1    6    6    0    0  0.13878009157E+02 -0.18886229484E+02  0.24897037836E+02  0.34192854448E+02  0.00000000000E+00 0. -1.
        -14    1    6    6    0    0 -0.10199733406E+03 -0.81629993886E+02  0.21934923619E+03  0.25530569809E+03  0.00000000000E+00 0.  1.
</event>
<event>
12    1  0.8500177E-002  0.1726634E+03  0.7818608E-02  0.1176663E+00
         21   -1    0    0  503  502  0.00000000000E+00  0.00000000000E+00  0.13223393537E+03  0.13223393537E+03  0.00000000000E+00 0. -1.
         21   -1    0    0  501  503 -0.00000000000E+00 -0.00000000000E+00 -0.28476547605E+03  0.28476547605E+03  0.00000000000E+00 0. -1.
          6    2    1    2  501    0 -0.99222680702E+01 -0.18615450149E+02 -0.17642401822E+03  0.24269077786E+03  0.16531301542E+03 0.  0.
         24    2    3    3    0    0 -0.42526765924E+02 -0.62484836544E+02 -0.11522740205E+03  0.16050384354E+03  0.82287599242E+02 0.  0.
         -6    2    1    2    0  502  0.99222680702E+01  0.18615450149E+02  0.23892477539E+02  0.17430863356E+03  0.17136995904E+03 0.  0.
        -24    2    5    5    0    0 -0.37767834677E+02  0.28902752889E+02 -0.33646024081E+02  0.98724616290E+02  0.79703930044E+02 0.  0.
          5    1    3    3  501    0  0.32604497853E+02  0.43869386395E+02 -0.61196616162E+02  0.82186934318E+02  0.47000000000E+01 0. -1.
        -11    1    4    4    0    0 -0.53669631782E+02 -0.72455546489E+01 -0.44650388709E+02  0.70189633492E+02  0.00000000000E+00 0.  1.
         12    1    4    4    0    0  0.11142865859E+02 -0.55239281895E+02 -0.70577013346E+02  0.90314210048E+02  0.00000000000E+00 0. -1.
         -5    1    5    5    0  502  0.47690102747E+02 -0.10287302741E+02  0.57538501620E+02  0.75584017268E+02  0.47000000000E+01 0.  1.
         13    1    6    6    0    0  0.20161050886E+02  0.17744175219E+02  0.61631186895E+01  0.27555539534E+02  0.00000000000E+00 0. -1.
        -14    1    6    6    0    0 -0.57928885563E+02  0.11158577670E+02 -0.39809142770E+02  0.71169076756E+02  0.00000000000E+00 0.  1.
</event>
<event>
12    1  0.8500177E-002  0.2011341E+03  0.7818608E-02  0.1149373E+00
         21   -1    0    0  501  502  0.00000000000E+00  0.00000000000E+00  0.69661179825E+03  0.69661179825E+03  0.00000000000E+00 0.  1.
         21   -1    0    0  502  503 -0.00000000000E+00 -0.00000000000E+00 -0.72100077115E+02  0.72100077115E+02  0.00000000000E+00 0. -1.
         -6    2    1    2    0  503 -0.98714600085E+02 -0.39767618444E+02  0.48482505381E+03  0.52382968956E+03  0.16738033072E+03 0.  0.
        -24    2    3    3    0    0 -0.19909908270E+02  0.77820015698E+01  0.93367528308E+02  0.12167023102E+03  0.75027900006E+02 0.  0.
          6    2    1    2  501    0  0.98714600085E+02  0.39767618444E+02  0.13968666733E+03  0.24488218581E+03  0.17067186104E+03 0.  0.
         24    2    5    5    0    0  0.80512962512E+02 -0.65338275390E+01  0.15494498812E+03  0.19263249812E+03  0.81082069262E+02 0.  0.
          5    1    5    5  501    0  0.18201637573E+02  0.46301445983E+02 -0.15258320786E+02  0.52249687690E+02  0.47000000000E+01 0. -1.
        -11    1    6    6    0    0 -0.13900189366E+02 -0.10313756241E+02  0.11211494076E+02  0.20622473945E+02  0.00000000000E+00 0.  1.
         12    1    6    6    0    0  0.94413151878E+02  0.37799287018E+01  0.14373349404E+03  0.17201002418E+03  0.00000000000E+00 0. -1.
         -5    1    3    3    0  503 -0.78804691815E+02 -0.47549620014E+02  0.39145752550E+03  0.40215945853E+03  0.47000000000E+01 0.  1.
         11    1    4    4    0    0  0.16138288495E+02  0.22052609943E+02  0.72847970066E+02  0.77804811571E+02  0.00000000000E+00 0. -1.
        -12    1    4    4    0    0 -0.36048196765E+02 -0.14270608374E+02  0.20519558242E+02  0.43865419453E+02  0.00000000000E+00 0.  1.
</event>
<event>
12    1  0.8500177E-002  0.1930731E+03  0.7818608E-02  0.1155878E+00
         21   -1    0    0  501  502  0.00000000000E+00  0.00000000000E+00  0.63228498783E+03  0.63228498783E+03  0.00000000000E+00 0.  1.
         21   -1    0    0  502  503 -0.00000000000E+00 -0.00000000000E+00 -0.60875255070E+02  0.60875255070E+02  0.00000000000E+00 0.  1.
         -6    2    1    2    0  503  0.65986328931E+02 -0.55974936102E+02  0.22023143807E+03  0.29240667820E+03  0.17179170546E+03 0.  0.
        -24    2    3    3    0    0  0.36156594043E+02 -0.43341177512E+02  0.64369795200E+02  0.13314473467E+03  0.10197202006E+03 0.  0.
          6    2    1    2  501    0 -0.65986328931E+02  0.55974936102E+02  0.35117829469E+03  0.40075356470E+03  0.17259732293E+03 0.  0.
         24    2    5    5    0    0 -0.51655226927E+02  0.24030572099E+02  0.35198291301E+03  0.36541859213E+03  0.79956522912E+02 0.  0.
          5    1    5    5  501    0 -0.14331102004E+02  0.31944364003E+02 -0.80461832012E+00  0.35334972575E+02  0.47000000000E+01 0. -1.
        -11    1    6    6    0    0  0.12025806659E+02  0.25528681628E+02  0.17630238850E+03  0.17854653680E+03  0.00000000000E+00 0.  1.
         12    1    6    6    0    0 -0.63681033586E+02 -0.14981095296E+01  0.17568052451E+03  0.18687205533E+03  0.00000000000E+00 0. -1.
         -5    1    3    3    0  503  0.29829734888E+02 -0.12633758590E+02  0.15586164287E+03  0.15926194353E+03  0.47000000000E+01 0.  1.
         13    1    4    4    0    0  0.33765814670E+02  0.56761109136E+01  0.75430793833E+02  0.82838114016E+02  0.00000000000E+00 0. -1.
        -14    1    4    4    0    0  0.23907793732E+01 -0.49017288425E+02 -0.11060998633E+02  0.50306620651E+02  0.00000000000E+00 0.  1.
</event>
<event>
12    1  0.8500177E-002  0.2612929E+03  0.7818608E-02  0.1106446E+00
         21   -1    0    0  501  502  0.00000000000E+00  0.00000000000E+00  0.29563605955E+03  0.29563605955E+03  0.00000000000E+00 0. -1.
         21   -1    0    0  502  503 -0.00000000000E+00 -0.00000000000E+00 -0.11193617611E+04  0.11193617611E+04  0.00000000000E+00 0. -1.
         -6    2    1    2    0  503  0.15464699314E+03  0.12159051982E+03  0.21868644781E+03  0.34033645035E+03  0.17118758713E+03 0.  0.
        -24    2    3    3    0    0  0.16644552499E+03  0.94103920997E+02  0.12467358299E+03  0.24156789655E+03  0.79068866271E+02 0.  0.
          6    2    1    2  501    0 -0.15464699314E+03 -0.12159051982E+03 -0.10424121494E+04  0.10746613703E+04  0.17197099956E+03 0.  0.
         24    2    5    5    0    0 -0.71242200624E+01 -0.48596582526E+02 -0.48115354782E+03  0.48974736700E+03  0.77015352748E+02 0.  0.
          5    1    5    5  501    0 -0.14752277307E+03 -0.72993937295E+02 -0.56125860159E+03  0.58491400335E+03  0.47000000000E+01 0. -1.
        -13    1    6    6    0    0 -0.20857145160E+02 -0.14307532112E+02 -0.41890220654E+02  0.48933797786E+02  0.00000000000E+00 0.  1.
         14    1    6    6    0    0  0.13732925097E+02 -0.34289050414E+02 -0.43926332716E+03  0.44081356921E+03  0.00000000000E+00 0. -1.
         -5    1    3    3    0  503 -0.11798531850E+02  0.27486598824E+02  0.94012864819E+02  0.98768553803E+02  0.47000000000E+01 0.  1.
         11    1    4    4    0    0  0.94324790596E+02  0.39223825488E+02  0.10937030981E+03  0.14965807454E+03  0.00000000000E+00 0. -1.
        -12    1    4    4    0    0  0.72120734389E+02  0.54880095509E+02  0.15303273180E+02  0.91909822010E+02  0.00000000000E+00 0.  1.
</event>
<event>
12    1  0.8500177E-002  0.2110142E+03  0.7818608E-02  0.1140887E+00
         21   -1    0    0  503  502  0.00000000000E+00  0.00000000000E+00  0.71735141617E+03  0.71735141617E+03  0.00000000000E+00 0.  1.
         21   -1    0    0  501  503 -0.00000000000E+00 -0.00000000000E+00 -0.62406525943E+02  0.62406525943E+02  0.00000000000E+00 0.  1.
          6    2    1    2  501    0  0.89067621527E+02 -0.82570296708E+02  0.29246954240E+03  0.36064585298E+03  0.17255753515E+03 0.  0.
         24    2    3    3    0    0  0.12711339385E+03 -0.43467739589E+02  0.21757122845E+03  0.26786472237E+03  0.79793550863E+02 0.  0.
         -6    2    1    2    0  502 -0.89067621527E+02  0.82570296708E+02  0.36247534783E+03  0.41911208913E+03  0.17180125253E+03 0.  0.
        -24    2    5    5    0    0  0.42913452319E+01  0.78613720285E+02  0.24874392642E+03  0.27184200600E+03  0.76328255794E+02 0.  0.
          5    1    3    3  501    0 -0.38045772325E+02 -0.39102557118E+02  0.74898313949E+02  0.92781130611E+02  0.47000000000E+01 0. -1.
        -11    1    4    4    0    0  0.65746980135E+02  0.14450235446E+02  0.65348208652E+02  0.93818244896E+02  0.00000000000E+00 0.  1.
         12    1    4    4    0    0  0.61366413717E+02 -0.57917975035E+02  0.15222301979E+03  0.17404647747E+03  0.00000000000E+00 0. -1.
         -5    1    5    5    0  502 -0.93358966759E+02  0.39565764224E+01  0.11373142140E+03  0.14727008313E+03  0.47000000000E+01 0.  1.
         13    1    6    6    0    0  0.96983676351E+01  0.33536398283E+02  0.20778086072E+03  0.21069322349E+03  0.00000000000E+00 0. -1.
        -14    1    6    6    0    0 -0.54070224032E+01  0.45077322003E+02  0.40963065704E+02  0.61148782507E+02  0.00000000000E+00 0.  1.
</event>
<event>
12    1  0.8500177E-002  0.2540836E+03  0.7818608E-02  0.1111099E+00
         21   -1    0    0  503  502  0.00000000000E+00  0.00000000000E+00  0.15969739683E+03  0.15969739683E+03  0.00000000000E+00 0. -1.
         21   -1    0    0  501  503 -0.00000000000E+00 -0.00000000000E+00 -0.41731500617E+03  0.41731500617E+03  0.00000000000E+00 0. -1.
          6    2    1    2  501    0  0.11576044048E+03 -0.14372273541E+03 -0.18692374342E+03  0.31543454432E+03  0.17464753545E+03 0.  0.
         24    2    3    3    0    0  0.59838917913E+02 -0.11478422205E+02 -0.33512697337E+02  0.10526124886E+03  0.79021385435E+02 0.  0.
         -6    2    1    2    0  502 -0.11576044048E+03  0.14372273541E+03 -0.70693865916E+02  0.26157785869E+03  0.17137283688E+03 0.  0.
        -24    2    5    5    0    0 -0.15127073749E+03  0.11800951635E+03 -0.53614908636E+02  0.21429222017E+03  0.78977941382E+02 0.  0.
          5    1    3    3  501    0  0.55921522571E+02 -0.13224431321E+03 -0.15341104609E+03  0.21017329546E+03  0.47000000000E+01 0. -1.
        -11    1    4    4    0    0  0.27863429092E+01  0.21100645046E+02 -0.33348678129E+02  0.39561790419E+02  0.00000000000E+00 0.  1.
         12    1    4    4    0    0  0.57052575004E+02 -0.32579067252E+02 -0.16401920751E+00  0.65699458444E+02  0.00000000000E+00 0. -1.
         -5    1    5    5    0  502  0.35510297012E+02  0.25713219056E+02 -0.17078957280E+02  0.47285638516E+02  0.47000000000E+01 0.  1.
         13    1    6    6    0    0 -0.55299792926E+02  0.65724413071E+02  0.12138620091E+02  0.86747401510E+02  0.00000000000E+00 0. -1.
        -14    1    6    6    0    0 -0.95970944569E+02  0.52285103284E+02 -0.65753528727E+02  0.12754481866E+03  0.00000000000E+00 0.  1.
</event>
<event>
12    1  0.8500177E-002  0.2052782E+03  0.7818608E-02  0.1148615E+00
         21   -1    0    0  503  502  0.00000000000E+00  0.00000000000E+00  0.81031184002E+02  0.81031184002E+02  0.00000000000E+00 0.  1.
         21   -1    0    0  501  503 -0.00000000000E+00 -0.00000000000E+00 -0.77703196865E+03  0.77703196865E+03  0.00000000000E+00 0. -1.
          6    2    1    2  501    0  0.58647122078E+02 -0.52923207045E+02 -0.62061880874E+03  0.65368712144E+03  0.18946977648E+03 0.  0.
         24    2    3    3    0    0  0.77386509623E+02  0.15030267414E+02 -0.51519062286E+03  0.52677757997E+03  0.76541884425E+02 0.  0.
         -6    2    1    2    0  502 -0.58647122078E+02  0.52923207045E+02 -0.75381975906E+02  0.20437603121E+03  0.17276217488E+03 0.  0.
        -24    2    5    5    0    0 -0.28487170344E+02  0.10198966993E+03 -0.53246495693E+02  0.14249542073E+03  0.79097054178E+02 0.  0.
          5    1    3    3  501    0 -0.18739387544E+02 -0.67953474459E+02 -0.10542818588E+03  0.12690954146E+03  0.47000000000E+01 0. -1.
        -11    1    4    4    0    0  0.49994838282E+02 -0.24879836402E+02 -0.19110716932E+03  0.19909907152E+03  0.00000000000E+00 0.  1.
         12    1    4    4    0    0  0.27391671340E+02  0.39910103816E+02 -0.32408345354E+03  0.32767850845E+03  0.00000000000E+00 0. -1.
         -5    1    5    5    0  502 -0.30159951734E+02 -0.49066462887E+02 -0.22135480214E+02  0.61880610478E+02  0.47000000000E+01 0.  1.
         11    1    6    6    0    0 -0.14394533158E+02  0.52711805110E+02 -0.69791820314E+02  0.88637662230E+02  0.00000000000E+00 0. -1.
        -12    1    6    6    0    0 -0.14092637186E+02  0.49277864822E+02  0.16545324622E+02  0.53857758505E+02  0.00000000000E+00 0.  1.
</event>
<event>
12    1  0.8500177E-002  0.2145631E+03  0.7818608E-02  0.1138047E+00
         21   -1    0    0  503  502  0.00000000000E+00  0.00000000000E+00  0.54177208474E+03  0.54177208474E+03  0.00000000000E+00 0. -1.
         21   -1    0    0  501  503 -0.00000000000E+00 -0.00000000000E+00 -0.99398683310E+02  0.99398683310E+02  0.00000000000E+00 0.  1.
          6    2    1    2  501    0  0.12286574399E+03 -0.38656795126E+02  0.98783166742E+02  0.23621053943E+03  0.17160118312E+03 0.  0.
         24    2    3    3    0    0  0.66673352992E+02  0.30664216106E+02  0.99284100888E+02  0.14684987504E+03  0.79510521079E+02 0.  0.
         -6    2    1    2    0  502 -0.12286574399E+03  0.38656795126E+02  0.34359023469E+03  0.40496022863E+03  0.17131315927E+03 0.  0.
        -24    2    5    5    0    0 -0.14810432319E+03  0.54244356778E+02  0.32479451049E+03  0.36952963158E+03  0.78634176950E+02 0.  0.
          5    1    3    3  501    0  0.56192390994E+02 -0.69321011232E+02 -0.50093414635E+00  0.89360664382E+02  0.47000000000E+01 0. -1.
        -11    1    4    4    0    0  0.69800268551E+02 -0.17135311141E+01  0.43466440678E+02  0.82245639057E+02  0.00000000000E+00 0.  1.
         12    1    4    4    0    0 -0.31269155586E+01  0.32377747220E+02  0.55817660210E+02  0.64604235986E+02  0.00000000000E+00 0. -1.
         -5    1    5    5    0  502  0.25238579205E+02 -0.15587561653E+02  0.18795724202E+02  0.35430597043E+02  0.47000000000E+01 0.  1.
         13    1    6    6    0    0 -0.38557365197E+02  0.51565580735E+02  0.92697406914E+02  0.11286491384E+03  0.00000000000E+00 0. -1.
        -14    1    6    6    0    0 -0.10954695799E+03  0.26787760432E+01  0.23209710357E+03  0.25666471774E+03  0.00000000000E+00 0.  1.
</event>
<event>
12    1  0.8500177E-002  0.1962192E+03  0.7818608E-02  0.1153327E+00
         21   -1    0    0  501  502  0.00000000000E+00  0.00000000000E+00  0.47904951055E+02  0.47904951055E+02  0.00000000000E+00 0. -1.
         21   -1    0    0  502  503 -0.00000000000E+00 -0.00000000000E+00 -0.88302510619E+03  0.88302510619E+03  0.00000000000E+00 0.  1.
         -6    2    1    2    0  503 -0.52337891009E+02 -0.79124243733E+02 -0.27384679839E+03  0.33688877653E+03  0.17176168950E+03 0.  0.
        -24    2    3    3    0    0 -0.90094929454E+02 -0.94123995483E+02 -0.22533639488E+03  0.27343851448E+03  0.83759820357E+02 0.  0.
          6    2    1    2  501    0  0.52337891009E+02  0.79124243733E+02 -0.56127335675E+03  0.59404128072E+03  0.16987454613E+03 0.  0.
         24    2    5    5    0    0  0.26371486619E+02  0.91315208946E+02 -0.54771902872E+03  0.56196818299E+03  0.82329712613E+02 0.  0.
          5    1    5    5  501    0  0.25966404390E+02 -0.12190965213E+02 -0.13554328028E+02  0.32073097731E+02  0.47000000000E+01 0. -1.
        -11    1    6    6    0    0  0.49795279215E+02  0.58016723461E+02 -0.44419031605E+03  0.45072225029E+03  0.00000000000E+00 0.  1.
         12    1    6    6    0    0 -0.23423792596E+02  0.33298485485E+02 -0.10352871267E+03  0.11124593270E+03  0.00000000000E+00 0. -1.
         -5    1    3    3    0  503  0.37757038445E+02  0.14999751750E+02 -0.48510403511E+02  0.63450262045E+02  0.47000000000E+01 0.  1.
         13    1    4    4    0    0 -0.26582720594E+01 -0.35962362399E+02 -0.16439040274E+02  0.39630795662E+02  0.00000000000E+00 0. -1.
        -14    1    4    4    0    0 -0.87436657395E+02 -0.58161633085E+02 -0.20889735460E+03  0.23380771882E+03  0.00000000000E+00 0.  1.
</event>
<event>
12    1  0.8500177E-002  0.1771696E+03  0.7818608E-02  0.1171111E+00
         21   -1    0    0  503  502  0.00000000000E+00  0.00000000000E+00  0.61108334706E+03  0.61108334706E+03  0.00000000000E+00 0. -1.
         21   -1    0    0  501  503 -0.00000000000E+00 -0.00000000000E+00 -0.19040574718E+03  0.19040574718E+03  0.00000000000E+00 0. -1.
          6    2    1    2  501    0 -0.25768753493E+02 -0.31195703677E+02 -0.13322800271E+03  0.21993902563E+03  0.17025355710E+03 0.  0.
         24    2    3    3    0    0 -0.31361660586E+02  0.40000436899E+02 -0.40374951540E+02  0.10270443110E+03  0.79589413549E+02 0.  0.
         -6    2    1    2    0  502  0.25768753493E+02  0.31195703677E+02  0.55390560259E+03  0.58155006862E+03  0.17248728982E+03 0.  0.
        -24    2    5    5    0    0  0.10670367640E+02 -0.48090087127E+02  0.26468632089E+03  0.28124342403E+03  0.81317291327E+02 0.  0.
          5    1    3    3  501    0  0.55929070925E+01 -0.71196140576E+02 -0.92853051166E+02  0.11723459453E+03  0.47000000000E+01 0. -1.
        -11    1    4    4    0    0 -0.45986091979E+02 -0.20647594965E+01 -0.35039477145E+02  0.57851092002E+02  0.00000000000E+00 0.  1.
         12    1    4    4    0    0  0.14624431393E+02  0.42065196395E+02 -0.53354743950E+01  0.44853339099E+02  0.00000000000E+00 0. -1.
         -5    1    5    5    0  502  0.15098385854E+02  0.79285790804E+02  0.28921928170E+03  0.30030664459E+03  0.47000000000E+01 0.  1.
         13    1    6    6    0    0  0.19782081161E+02  0.46200979675E+01  0.17956004146E+03  0.18070551881E+03  0.00000000000E+00 0. -1.
        -14    1    6    6    0    0 -0.91117135210E+01 -0.52710185095E+02  0.85126279428E+02  0.10053790522E+03  0.00000000000E+00 0.  1.
</event>
<event>
12    1  0.8500177E-002  0.5130607E+03  0.7818608E-02  0.1010453E+00
         21   -1    0    0  501  502  0.00000000000E+00  0.00000000000E+00  0.14423867914E+04  0.14423867914E+04  0.00000000000E+00 0.  1.
         21   -1    0    0  502  503 -0.00000000000E+00 -0.00000000000E+00 -0.33409146929E+03  0.33409146929E+03  0.00000000000E+00 0.  1.
         -6    2    1    2    0  503  0.12182456509E+03 -0.46760298811E+03 -0.44616890742E+02  0.51455992687E+03  0.17113582984E+03 0.  0.
        -24    2    3    3    0    0  0.78853740386E+02 -0.15936043425E+03 -0.66756191682E+02  0.20251473394E+03  0.70300554463E+02 0.  0.
          6    2    1    2  501    0 -0.12182456509E+03  0.46760298811E+03  0.11529122129E+04  0.12619183338E+04  0.17244573513E+03 0.  0.
         24    2    5    5    0    0 -0.12626710487E+03  0.30098769718E+03  0.64247718082E+03  0.72493937404E+03  0.78887214006E+02 0.  0.
          5    1    5    5  501    0  0.44425397796E+01  0.16661529093E+03  0.51043503204E+03  0.53697895979E+03  0.47000000000E+01 0. -1.
        -13    1    6    6    0    0 -0.27690599623E+02  0.25603790789E+02  0.38662367702E+02  0.54010203542E+02  0.00000000000E+00 0.  1.
         14    1    6    6    0    0 -0.98576505248E+02  0.27538390639E+03  0.60381481311E+03  0.67092917049E+03  0.00000000000E+00 0. -1.
         -5    1    3    3    0  503  0.42970824706E+02 -0.30824255385E+03  0.22139300940E+02  0.31204519293E+03  0.47000000000E+01 0.  1.
         13    1    4    4    0    0 -0.97439011483E+01 -0.46540346439E+01 -0.11713669247E+02  0.15931531479E+02  0.00000000000E+00 0. -1.
        -14    1    4    4    0    0  0.88597641534E+02 -0.15470639961E+03 -0.55042522436E+02  0.18658320246E+03  0.00000000000E+00 0.  1.
</event>
<event>
12    1  0.8500177E-002  0.2232893E+03  0.7818608E-02  0.1132430E+00
         21   -1    0    0  501  502  0.00000000000E+00  0.00000000000E+00  0.38684456115E+02  0.38684456115E+02  0.00000000000E+00 0.  1.
         21   -1    0    0  502  503 -0.00000000000E+00 -0.00000000000E+00 -0.12856632288E+04  0.12856632288E+04  0.00000000000E+00 0. -1.
         -6    2    1    2    0  503 -0.11201267804E+02 -0.14228960364E+03 -0.53471853499E+03  0.57946702438E+03  0.17171581459E+03 0.  0.
        -24    2    3    3    0    0  0.36629527192E+02 -0.46579496937E+02 -0.36678927521E+03  0.38029238803E+03  0.81095969009E+02 0.  0.
          6    2    1    2  501    0  0.11201267804E+02  0.14228960364E+03 -0.71226023773E+03  0.74488066056E+03  0.16480519570E+03 0.  0.
         24    2    5    5    0    0 -0.88128794933E+01  0.89077026001E+01 -0.32070151142E+03  0.33071689614E+03  0.79794686246E+02 0.  0.
          5    1    5    5  501    0  0.20014147297E+02  0.13338190104E+03 -0.39155872631E+03  0.41416376443E+03  0.47000000000E+01 0. -1.
        -13    1    6    6    0    0  0.29502476142E+02 -0.13715063163E+02 -0.88504087858E+02  0.94294605485E+02  0.00000000000E+00 0.  1.
         14    1    6    6    0    0 -0.38315355636E+02  0.22622765763E+02 -0.23219742356E+03  0.23642229065E+03  0.00000000000E+00 0. -1.
         -5    1    3    3    0  503 -0.47830794997E+02 -0.95710106702E+02 -0.16792925978E+03  0.19917463635E+03  0.47000000000E+01 0.  1.
         13    1    4    4    0    0  0.60810558244E+02 -0.40797999605E+02 -0.23382282490E+03  0.24502145663E+03  0.00000000000E+00 0. -1.
        -14    1    4    4    0    0 -0.24181031052E+02 -0.57814973322E+01 -0.13296645030E+03  0.13527093140E+03  0.00000000000E+00 0.  1.
</event>
<event>
12    1  0.8500177E-002  0.1969773E+03  0.7818608E-02  0.1152417E+00
         21   -1    0    0  501  502  0.00000000000E+00  0.00000000000E+00  0.28111932022E+03  0.28111932022E+03  0.00000000000E+00 0.  1.
         21   -1    0    0  502  503 -0.00000000000E+00 -0.00000000000E+00 -0.14037150084E+03  0.14037150084E+03  0.00000000000E+00 0.  1.
         -6    2    1    2    0  503  0.90835995784E+02 -0.27789920560E+02  0.41149363444E+02  0.20076491677E+03  0.17201692905E+03 0.  0.
        -24    2    3    3    0    0 -0.78945394012E+01 -0.45354154033E+02  0.33944570302E+02  0.10011592314E+03  0.82168370874E+02 0.  0.
          6    2    1    2  501    0 -0.90835995784E+02  0.27789920560E+02  0.99598455943E+02  0.22072590429E+03  0.17255901768E+03 0.  0.
         24    2    5    5    0    0 -0.12831800763E+03  0.40650882892E+02  0.76617205959E+02  0.17467665441E+03  0.80769622904E+02 0.  0.
          5    1    5    5  501    0  0.37482011844E+02 -0.12860962332E+02  0.22981249984E+02  0.46049249883E+02  0.47000000000E+01 0. -1.
        -13    1    6    6    0    0 -0.12260742896E+03  0.17411200689E+02  0.83993036666E+02  0.14963476118E+03  0.00000000000E+00 0.  1.
         14    1    6    6    0    0 -0.57105786677E+01  0.23239682203E+02 -0.73758307073E+01  0.25041893224E+02  0.00000000000E+00 0. -1.
         -5    1    3    3    0  503  0.98730535186E+02  0.17564233472E+02  0.72047931424E+01  0.10064899364E+03  0.47000000000E+01 0.  1.
         13    1    4    4    0    0 -0.40840221914E+02 -0.52166363927E+01  0.22588494820E+02  0.46961442903E+02  0.00000000000E+00 0. -1.
        -14    1    4    4    0    0  0.32945682513E+02 -0.40137517640E+02  0.11356075482E+02  0.53154480234E+02  0.00000000000E+00 0.  1.
</event>
<event>
12    1  0.8500177E-002  0.2237444E+03  0.7818608E-02  0.1131327E+00
         21   -1    0    0  501  502  0.00000000000E+00  0.00000000000E+00  0.21118150602E+03  0.21118150602E+03  0.00000000000E+00 0.  1.
         21   -1    0    0  502  503 -0.00000000000E+00 -0.00000000000E+00 -0.45484343277E+03  0.45484343277E+03  0.00000000000E+00 0.  1.
         -6    2    1    2    0  503 -0.39049226056E+02 -0.13619312059E+03 -0.35305275006E+03  0.41798061418E+03  0.17317084439E+03 0.  0.
        -24    2    3    3    0    0 -0.24587378131E+01 -0.21656841486E+02 -0.23795150671E+03  0.25146392047E+03  0.78346152292E+02 0.  0.
          6    2    1    2  501    0  0.39049226056E+02  0.13619312059E+03  0.10939082332E+03  0.24804432461E+03  0.17171553976E+03 0.  0.
         24    2    5    5    0    0  0.43104402243E+02  0.14273942915E+03  0.13809047582E+03  0.21796013170E+03  0.78772491213E+02 0.  0.
          5    1    5    5  501    0 -0.40551761873E+01 -0.65463085549E+01 -0.28699652502E+02  0.30084192915E+02  0.47000000000E+01 0. -1.
        -11    1    6    6    0    0  0.35166318188E+02  0.11343061417E+03  0.57711842601E+02  0.13203723317E+03  0.00000000000E+00 0.  1.
         12    1    6    6    0    0  0.79380840557E+01  0.29308814973E+02  0.80378633217E+02  0.85922898528E+02  0.00000000000E+00 0. -1.
         -5    1    3    3    0  503 -0.36590488243E+02 -0.11453627910E+03 -0.11510124336E+03  0.16651669371E+03  0.47000000000E+01 0.  1.
         13    1    4    4    0    0  0.24382828232E+02 -0.33901007155E+00 -0.19496607873E+03  0.19648513708E+03  0.00000000000E+00 0. -1.
        -14    1    4    4    0    0 -0.26841566045E+02 -0.21317831414E+02 -0.42985427977E+02  0.54978783383E+02  0.00000000000E+00 0.  1.
</event>
<event>
12    1  0.8500177E-002  0.3183479E+03  0.7818608E-02  0.1076722E+00
         21   -1    0    0  503  502  0.00000000000E+00  0.00000000000E+00  0.84912398833E+03  0.84912398833E+03  0.00000000000E+00 0.  1.
         21   -1    0    0  501  503 -0.00000000000E+00 -0.00000000000E+00 -0.19211757506E+03  0.19211757506E+03  0.00000000000E+00 0. -1.
          6    2    1    2  501    0 -0.17298687622E+03  0.20456197668E+03  0.67639975812E+01  0.31841978925E+03  0.17197484955E+03 0.  0.
         24    2    3    3    0    0 -0.35600324176E+02  0.10071335468E+03  0.47398110778E+02  0.14140899261E+03  0.79620094156E+02 0.  0.
         -6    2    1    2    0  502  0.17298687622E+03 -0.20456197668E+03  0.65024241569E+03  0.72282177414E+03  0.16699118651E+03 0.  0.
        -24    2    5    5    0    0  0.86748132519E+02 -0.18367382083E+03  0.38101917990E+03  0.43931396710E+03  0.80992810052E+02 0.  0.
          5    1    3    3  501    0 -0.13738655204E+03  0.10384862200E+03 -0.40634113197E+02  0.17701079664E+03  0.47000000000E+01 0. -1.
        -11    1    4    4    0    0 -0.66089716536E+01  0.87641724818E+02  0.60828774636E+02  0.10688727828E+03  0.00000000000E+00 0.  1.
         12    1    4    4    0    0 -0.28991352523E+02  0.13071629861E+02 -0.13430663858E+02  0.34521714326E+02  0.00000000000E+00 0. -1.
         -5    1    5    5    0  502  0.86238743696E+02 -0.20888155845E+02  0.26922323579E+03  0.28350780705E+03  0.47000000000E+01 0.  1.
         13    1    6    6    0    0 -0.11976306559E+02 -0.23323038873E+01  0.20535111971E+02  0.23886447703E+02  0.00000000000E+00 0. -1.
        -14    1    6    6    0    0  0.98724439078E+02 -0.18134151694E+03  0.36048406793E+03  0.41542751940E+03  0.00000000000E+00 0.  1.
</event>
<event>
12    1  0.8500177E-002  0.2365439E+03  0.7818608E-02  0.1122788E+00
         21   -1    0    0  503  502  0.00000000000E+00  0.00000000000E+00  0.39473009886E+03  0.39473009886E+03  0.00000000000E+00 0.  1.
         21   -1    0    0  501  503 -0.00000000000E+00 -0.00000000000E+00 -0.17038814314E+03  0.17038814314E+03  0.00000000000E+00 0.  1.
          6    2    1    2  501    0 -0.15338525614E+03  0.34178013976E+02 -0.75369572429E+01  0.23666397308E+03  0.17679891682E+03 0.  0.
         24    2    3    3    0    0 -0.64921785149E+02  0.22256494998E+02  0.57330969742E+02  0.12622011283E+03  0.89075737639E+02 0.  0.
         -6    2    1    2    0  502  0.15338525614E+03 -0.34178013976E+02  0.23187891296E+03  0.32845426891E+03  0.17152027008E+03 0.  0.
        -24    2    5    5    0    0  0.81228887713E+02 -0.79894555201E+02  0.10020603071E+03  0.17143076249E+03  0.79787126714E+02 0.  0.
          5    1    3    3  501    0 -0.88463470991E+02  0.11921518978E+02 -0.64867926985E+02  0.11044386025E+03  0.47000000000E+01 0. -1.
        -13    1    4    4    0    0 -0.68765748800E+02  0.47316998227E+02  0.56606910440E+02  0.10085617898E+03  0.00000000000E+00 0.  1.
         14    1    4    4    0    0  0.38439636515E+01 -0.25060503229E+02  0.72405930242E+00  0.25363933853E+02  0.00000000000E+00 0. -1.
         -5    1    5    5    0  502  0.72156368427E+02  0.45716541225E+02  0.13167288226E+03  0.15702350642E+03  0.47000000000E+01 0.  1.
         13    1    6    6    0    0 -0.38029706966E+01  0.20444738025E+01  0.37462058573E+02  0.37710055579E+02  0.00000000000E+00 0. -1.
        -14    1    6    6    0    0  0.85031858409E+02 -0.81939029004E+02  0.62743972133E+02  0.13372070691E+03  0.00000000000E+00 0.  1.
</event>
<event>
12    1  0.8500177E-002  0.2557003E+03  0.7818608E-02  0.1110814E+00
         21   -1    0    0  503  502  0.00000000000E+00  0.00000000000E+00  0.11542602973E+04  0.11542602973E+04  0.00000000000E+00 0.  1.
         21   -1    0    0  501  503 -0.00000000000E+00 -0.00000000000E+00 -0.10302145584E+03  0.10302145584E+03  0.00000000000E+00 0. -1.
          6    2    1    2  501    0  0.16151040782E+03 -0.84812833855E+02  0.93305990954E+02  0.26580910919E+03  0.16932113265E+03 0.  0.
         24    2    3    3    0    0  0.62730584202E+02  0.17377489661E+02  0.20862802034E+02  0.10621455604E+03  0.81296814610E+02 0.  0.
         -6    2    1    2    0  502 -0.16151040782E+03  0.84812833855E+02  0.95793285049E+03  0.99147264393E+03  0.17917541404E+03 0.  0.
        -24    2    5    5    0    0 -0.14339671154E+03  0.16397405877E+02  0.81914063986E+03  0.83560685387E+03  0.80099529166E+02 0.  0.
          5    1    3    3  501    0  0.98779823616E+02 -0.10219032352E+03  0.72443188920E+02  0.15959455315E+03  0.47000000000E+01 0. -1.
        -13    1    4    4    0    0 -0.16840737085E+02  0.12509341754E+02  0.15931452659E+02  0.26342081173E+02  0.00000000000E+00 0.  1.
         14    1    4    4    0    0  0.79571321287E+02  0.48681479071E+01  0.49313493748E+01  0.79872474871E+02  0.00000000000E+00 0. -1.
         -5    1    5    5    0  502 -0.18113696280E+02  0.68415427978E+02  0.13879221063E+03  0.15586579006E+03  0.47000000000E+01 0.  1.
         11    1    6    6    0    0 -0.14464450451E+03  0.27865795546E+02  0.79838911671E+03  0.81186434639E+03  0.00000000000E+00 0. -1.
        -12    1    6    6    0    0  0.12477929760E+01 -0.11468389668E+02  0.20751523144E+02  0.23742507486E+02  0.00000000000E+00 0.  1.
</event>
<event>
12    1  0.8500177E-002  0.1896928E+03  0.7818608E-02  0.1158959E+00
         21   -1    0    0  501  502  0.00000000000E+00  0.00000000000E+00  0.35277642496E+02  0.35277642496E+02  0.00000000000E+00 0. -1.
         21   -1    0    0  502  503 -0.00000000000E+00 -0.00000000000E+00 -0.10267402338E+04  0.10267402338E+04  0.00000000000E+00 0. -1.
         -6    2    1    2    0  503  0.42235339466E+02 -0.67519722548E+02 -0.43966759452E+03  0.47884335581E+03  0.17216454018E+03 0.  0.
        -24    2    3    3    0    0  0.24698051271E+02 -0.39002939833E+02 -0.98572730809E+02  0.13607731399E+03  0.81665348038E+02 0.  0.
          6    2    1    2  501    0 -0.42235339466E+02  0.67519722548E+02 -0.55179499676E+03  0.58317452047E+03  0.17109081227E+03 0.  0.
         24    2    5    5    0    0 -0.27322470242E+02  0.11260218823E+03 -0.42352173113E+03  0.44631348490E+03  0.79995624216E+02 0.  0.
          5    1    5    5  501    0 -0.14912869224E+02 -0.45082465682E+02 -0.12827326564E+03  0.13686103557E+03  0.47000000000E+01 0. -1.
        -11    1    6    6    0    0 -0.62273844558E+01  0.71729433368E+02 -0.12486690043E+03  0.14413755497E+03  0.00000000000E+00 0.  1.
         12    1    6    6    0    0 -0.21095085787E+02  0.40872754863E+02 -0.29865483069E+03  0.30217592993E+03  0.00000000000E+00 0. -1.
         -5    1    3    3    0  503  0.17537288195E+02 -0.28516782716E+02 -0.34109486371E+03  0.34276604182E+03  0.47000000000E+01 0.  1.
         13    1    4    4    0    0  0.28847841825E+02 -0.54597945350E+02 -0.36045434902E+02  0.71501097836E+02  0.00000000000E+00 0. -1.
        -14    1    4    4    0    0 -0.41497905542E+01  0.15595005518E+02 -0.62527295907E+02  0.64576216150E+02  0.00000000000E+00 0.  1.
</event>
<event>
12    1  0.8500177E-002  0.1979335E+03  0.7818608E-02  0.1151767E+00
         21   -1    0    0  501  502  0.00000000000E+00  0.00000000000E+00  0.52402372772E+03  0.52402372772E+03  0.00000000000E+00 0.  1.
         21   -1    0    0  502  503 -0.00000000000E+00 -0.00000000000E+00 -0.78972841207E+02  0.78972841207E+02  0.00000000000E+00 0.  1.
         -6    2    1    2    0  503 -0.75052929595E+02  0.57186750220E+02  0.14973776450E+03  0.24819156531E+03  0.17399536870E+03 0.  0.
        -24    2    3    3    0    0 -0.51811075881E+02  0.10801503189E+03  0.91723692642E+02  0.16749819188E+03  0.72737705452E+02 0.  0.
          6    2    1    2  501    0  0.75052929595E+02 -0.57186750220E+02  0.29531312202E+03  0.35480500362E+03  0.17254994616E+03 0.  0.
         24    2    5    5    0    0  0.90136189620E+02  0.99596059167E+01  0.14138198602E+03  0.18612476618E+03  0.80186259324E+02 0.  0.
          5    1    5    5  501    0 -0.15083260026E+02 -0.67146356137E+02  0.15393113599E+03  0.16868023744E+03  0.47000000000E+01 0. -1.
        -13    1    6    6    0    0  0.58011059181E+02 -0.15204964442E+01  0.22160331677E+02  0.62118235622E+02  0.00000000000E+00 0.  1.
         14    1    6    6    0    0  0.32125130439E+02  0.11480102361E+02  0.11922165435E+03  0.12400653056E+03  0.00000000000E+00 0. -1.
         -5    1    3    3    0  503 -0.23241853713E+02 -0.50828281666E+02  0.58014071856E+02  0.80693373423E+02  0.47000000000E+01 0.  1.
         11    1    4    4    0    0 -0.86676075126E+01  0.44701513675E+02  0.77036754706E+02  0.89487509298E+02  0.00000000000E+00 0. -1.
        -12    1    4    4    0    0 -0.43143468368E+02  0.63313518212E+02  0.14686937936E+02  0.78010682584E+02  0.00000000000E+00 0.  1.
</event>
<event>
12    1  0.8500177E-002  0.2033920E+03  0.7818608E-02  0.1146985E+00
         21   -1    0    0  501  502  0.00000000000E+00  0.00000000000E+00  0.25096226584E+03  0.25096226584E+03  0.00000000000E+00 0. -1.
         21   -1    0    0  502  503 -0.00000000000E+00 -0.00000000000E+00 -0.20476637276E+03  0.20476637276E+03  0.00000000000E+00 0. -1.
         -6    2    1    2    0  503 -0.82511723334E+02  0.70841541342E+02 -0.77880724552E+02  0.21779279056E+03  0.17187665314E+03 0.  0.
        -24    2    3    3    0    0 -0.12471320202E+03  0.49564166613E+02 -0.63059716179E+02  0.16803895886E+03  0.79060575006E+02 0.  0.
          6    2    1    2  501    0  0.82511723334E+02 -0.70841541342E+02  0.12407661763E+03  0.23793584804E+03  0.17144022945E+03 0.  0.
         24    2    5    5    0    0  0.40628275619E+02 -0.11240303898E+03  0.95094047263E+02  0.17202939415E+03  0.79158920377E+02 0.  0.
          5    1    5    5  501    0  0.41883447715E+02  0.41561497642E+02  0.28982570369E+02  0.65906453887E+02  0.47000000000E+01 0. -1.
        -13    1    6    6    0    0  0.70330420671E+01 -0.91336873491E+02  0.31094150844E+02  0.96740551769E+02  0.00000000000E+00 0.  1.
         14    1    6    6    0    0  0.33595233552E+02 -0.21066165493E+02  0.63999896418E+02  0.75288842384E+02  0.00000000000E+00 0. -1.
         -5    1    3    3    0  503  0.42201478690E+02  0.21277374729E+02 -0.14821008373E+02  0.49753831694E+02  0.47000000000E+01 0.  1.
         13    1    4    4    0    0 -0.84663284497E+02 -0.72204441465E+01 -0.23858639685E+02  0.88256678179E+02  0.00000000000E+00 0. -1.
        -14    1    4    4    0    0 -0.40049917527E+02  0.56784610759E+02 -0.39201076494E+02  0.79782280685E+02  0.00000000000E+00 0.  1.
</event>
<event>
12    1  0.8500177E-002  0.1860001E+03  0.7818608E-02  0.1162190E+00
         21   -1    0    0  501  502  0.00000000000E+00  0.00000000000E+00  0.30316505987E+03  0.30316505987E+03  0.00000000000E+00 0.  1.
         21   -1    0    0  502  503 -0.00000000000E+00 -0.00000000000E+00 -0.14776039580E+03  0.14776039580E+03  0.00000000000E+00 0.  1.
         -6    2    1    2    0  503 -0.45365444382E+02 -0.52989966191E+02 -0.30231220548E+02  0.18813903746E+03  0.17209419124E+03 0.  0.
        -24    2    3    3    0    0  0.34670039435E+01 -0.79445558155E+02  0.18741590135E+02  0.11394380485E+03  0.79424974892E+02 0.  0.
          6    2    1    2  501    0  0.45365444382E+02  0.52989966191E+02  0.18563588463E+03  0.26278641821E+03  0.17242406988E+03 0.  0.
         24    2    5    5    0    0  0.28561629652E+02 -0.78155248631E+01  0.47094108876E+02  0.11048543476E+03  0.95458509761E+02 0.  0.
          5    1    5    5  501    0  0.16803814730E+02  0.60805491054E+02  0.13854177575E+03  0.15230098345E+03  0.47000000000E+01 0. -1.
        -11    1    6    6    0    0 -0.34253336375E+02  0.59933516869E+01  0.23544220225E+02  0.41994542780E+02  0.00000000000E+00 0.  1.
         12    1    6    6    0    0  0.62814966028E+02 -0.13808876550E+02  0.23549888651E+02  0.68490891979E+02  0.00000000000E+00 0. -1.
         -5    1    3    3    0  503 -0.48832448325E+02  0.26455591964E+02 -0.48972810684E+02  0.74195232609E+02  0.47000000000E+01 0.  1.
         11    1    4    4    0    0 -0.32470005728E+02 -0.59821028616E+02  0.25022184323E+02  0.72518731683E+02  0.00000000000E+00 0. -1.
        -12    1    4    4    0    0  0.35937009671E+02 -0.19624529539E+02 -0.62805941872E+01  0.41425073169E+02  0.00000000000E+00 0.  1.
</event>
<event>
12    1  0.8500177E-002  0.3497234E+03  0.7818608E-02  0.1062964E+00
         21   -1    0    0  501  502  0.00000000000E+00  0.00000000000E+00  0.14382663647E+04  0.14382663647E+04  0.00000000000E+00 0. -1.
         21   -1    0    0  502  503 -0.00000000000E+00 -0.00000000000E+00 -0.10753016127E+03  0.10753016127E+03  0.00000000000E+00 0.  1.
         -6    2    1    2    0  503  0.12553736165E+03 -0.27505022760E+03  0.30926614808E+03  0.46685331965E+03  0.17576750224E+03 0.  0.
        -24    2    3    3    0    0  0.62550761947E+02 -0.26716188248E+03  0.24429187536E+03  0.37589572597E+03  0.79567626390E+02 0.  0.
          6    2    1    2  501    0 -0.12553736165E+03  0.27505022760E+03  0.10214700554E+04  0.10789432063E+04  0.17118735822E+03 0.  0.
         24    2    5    5    0    0 -0.13575606513E+03  0.19939277905E+03  0.61863559970E+03  0.66891130502E+03  0.80902034695E+02 0.  0.
          5    1    5    5  501    0  0.10218703472E+02  0.75657448551E+02  0.40283445566E+03  0.41003190130E+03  0.47000000000E+01 0. -1.
        -13    1    6    6    0    0 -0.22278723832E+02  0.37415155554E+02  0.47198722068E+02  0.64218025239E+02  0.00000000000E+00 0.  1.
         14    1    6    6    0    0 -0.11347734129E+03  0.16197762350E+03  0.57143687763E+03  0.60469327978E+03  0.00000000000E+00 0. -1.
         -5    1    3    3    0  503  0.62986599707E+02 -0.78883451227E+01  0.64974272718E+02  0.90957593672E+02  0.47000000000E+01 0.  1.
         11    1    4    4    0    0  0.23311864857E+00  0.35412954514E+01  0.15854405863E+02  0.16246762848E+02  0.00000000000E+00 0. -1.
        -12    1    4    4    0    0  0.62317643298E+02 -0.27070317793E+03  0.22843746950E+03  0.35964896313E+03  0.00000000000E+00 0.  1.
</event>
<event>
12    1  0.8500177E-002  0.2069721E+03  0.7818608E-02  0.1147316E+00
         21   -1    0    0  501  502  0.00000000000E+00  0.00000000000E+00  0.13573725096E+04  0.13573725096E+04  0.00000000000E+00 0.  1.
         21   -1    0    0  502  503 -0.00000000000E+00 -0.00000000000E+00 -0.16110279758E+03  0.16110279758E+03  0.00000000000E+00 0.  1.
         -6    2    1    2    0  503 -0.78267099687E+02 -0.25369293800E+02 -0.93085947382E+02  0.21261334288E+03  0.17254014029E+03 0.  0.
        -24    2    3    3    0    0 -0.87301704313E+02 -0.81866389843E+01 -0.12790075584E+03  0.17247572218E+03  0.75502733476E+02 0.  0.
          6    2    1    2  501    0  0.78267099687E+02  0.25369293800E+02  0.12893556594E+04  0.13058619643E+04  0.18991606943E+03 0.  0.
         24    2    5    5    0    0  0.54305344356E+01  0.28259214564E+02  0.10942712209E+04  0.10975507908E+04  0.79750608101E+02 0.  0.
          5    1    5    5  501    0  0.72836565251E+02 -0.28899207638E+01  0.19508443853E+03  0.20831117357E+03  0.47000000000E+01 0. -1.
        -13    1    6    6    0    0  0.38828871263E+02 -0.74742794473E+00  0.62246886119E+03  0.62367918279E+03  0.00000000000E+00 0.  1.
         14    1    6    6    0    0 -0.33398336827E+02  0.29006642508E+02  0.47180235971E+03  0.47387160797E+03  0.00000000000E+00 0. -1.
         -5    1    3    3    0  503  0.90346046268E+01 -0.17182654815E+02  0.34814808462E+02  0.40137620701E+02  0.47000000000E+01 0.  1.
         13    1    4    4    0    0  0.30337445922E+01  0.12819761021E+02  0.15124117028E+01  0.13260364552E+02  0.00000000000E+00 0. -1.
        -14    1    4    4    0    0 -0.90335448906E+02 -0.21006400006E+02 -0.12941316755E+03  0.15921535763E+03  0.00000000000E+00 0.  1.
</event>
<event>
12    1  0.8500177E-002  0.1756008E+03  0.7818608E-02  0.1172596E+00
         21   -1    0    0  503  502  0.00000000000E+00  0.00000000000E+00  0.88220770600E+03  0.88220770600E+03  0.00000000000E+00 0. -1.
         21   -1    0    0  501  503 -0.00000000000E+00 -0.00000000000E+00 -0.36060605026E+02  0.36060605026E+02  0.00000000000E+00 0. -1.
          6    2    1    2  501    0 -0.52811770333E+01 -0.61431110106E+01  0.32801869482E+03  0.37119183178E+03  0.17355541820E+03 0.  0.
         24    2    3    3    0    0 -0.28485407759E+02  0.60066489942E+02  0.19765544479E+03  0.22307426179E+03  0.79215211604E+02 0.  0.
         -6    2    1    2    0  502  0.52811770333E+01  0.61431110106E+01  0.51812840616E+03  0.54707647925E+03  0.17541379716E+03 0.  0.
        -24    2    5    5    0    0  0.52749853516E+02  0.75215286745E+01  0.16615556073E+03  0.19188336388E+03  0.79827529929E+02 0.  0.
          5    1    3    3  501    0  0.23204230726E+02 -0.66209600952E+02  0.13036325003E+03  0.14811756999E+03  0.47000000000E+01 0. -1.
        -13    1    4    4    0    0 -0.36335039311E+02  0.11629562322E+02  0.30435799567E+02  0.48803890182E+02  0.00000000000E+00 0.  1.
         14    1    4    4    0    0  0.78496315520E+01  0.48436927619E+02  0.16721964522E+03  0.17427037161E+03  0.00000000000E+00 0. -1.
         -5    1    5    5    0  502 -0.47468676483E+02 -0.13784176639E+01  0.35197284543E+03  0.35519311536E+03  0.47000000000E+01 0.  1.
         13    1    6    6    0    0 -0.64837298989E+01  0.31135668844E+02  0.47213594437E+02  0.56926198955E+02  0.00000000000E+00 0. -1.
        -14    1    6    6    0    0  0.59233583415E+02 -0.23614140170E+02  0.11894196629E+03  0.13495716493E+03  0.00000000000E+00 0.  1.
</event>
<event>
12    1  0.8500177E-002  0.2801708E+03  0.7818608E-02  0.1095746E+00
         21   -1    0    0  501  502  0.00000000000E+00  0.00000000000E+00  0.51716239960E+03  0.51716239960E+03  0.00000000000E+00 0.  1.
         21   -1    0    0  502  503 -0.00000000000E+00 -0.00000000000E+00 -0.24420952352E+03  0.24420952352E+03  0.00000000000E+00 0. -1.
         -6    2    1    2    0  503 -0.94105932759E+02  0.20031881652E+03 -0.98639718302E+02  0.29599387740E+03  0.16999713704E+03 0.  0.
        -24    2    3    3    0    0 -0.82029466544E+02  0.22345596749E+03 -0.97454776394E+02  0.26944839043E+03  0.80272030479E+02 0.  0.
          6    2    1    2  501    0  0.94105932759E+02 -0.20031881652E+03  0.37159259438E+03  0.46537804572E+03  0.17179090317E+03 0.  0.
         24    2    5    5    0    0  0.97677934705E+02 -0.66071712405E+02  0.22607593082E+03  0.26730676175E+03  0.80225483944E+02 0.  0.
          5    1    5    5  501    0 -0.35720019460E+01 -0.13424710411E+03  0.14551666356E+03  0.19807128397E+03  0.47000000000E+01 0. -1.
        -13    1    6    6    0    0  0.28861506649E+02 -0.38945765469E+02  0.16312906181E+03  0.17017887654E+03  0.00000000000E+00 0.  1.
         14    1    6    6    0    0  0.68816428056E+02 -0.27125946937E+02  0.62946869015E+02  0.97127885216E+02  0.00000000000E+00 0. -1.
         -5    1    3    3    0  503 -0.12076466215E+02 -0.23137150970E+02 -0.11849419077E+01  0.26545486972E+02  0.47000000000E+01 0.  1.
         13    1    4    4    0    0 -0.68867759231E+02  0.17433766902E+03 -0.10964044052E+03  0.21715758633E+03  0.00000000000E+00 0. -1.
        -14    1    4    4    0    0 -0.13161707313E+02  0.49118298463E+02  0.12185664131E+02  0.52290804101E+02  0.00000000000E+00 0.  1.
</event>
<event>
12    1  0.8500177E-002  0.3221858E+03  0.7818608E-02  0.1074722E+00
         21   -1    0    0  501  502  0.00000000000E+00  0.00000000000E+00  0.86439435720E+02  0.86439435720E+02  0.00000000000E+00 0.  1.
         21   -1    0    0  502  503 -0.00000000000E+00 -0.00000000000E+00 -0.15723753376E+04  0.15723753376E+04  0.00000000000E+00 0. -1.
         -6    2    1    2    0  503 -0.27085901428E+03 -0.28147313741E+02 -0.11479889122E+04  0.11923431742E+04  0.17218253625E+03 0.  0.
        -24    2    3    3    0    0 -0.14106672040E+03 -0.80386463178E+02 -0.69367708977E+03  0.71695250305E+03  0.80443667735E+02 0.  0.
          6    2    1    2  501    0  0.27085901428E+03  0.28147313741E+02 -0.33794698972E+03  0.46647159910E+03  0.17096990384E+03 0.  0.
         24    2    5    5    0    0  0.17799159541E+03  0.72247800909E+02 -0.27873243942E+03  0.34773801740E+03  0.79556289436E+02 0.  0.
          5    1    5    5  501    0  0.92867418869E+02 -0.44100487167E+02 -0.59214550302E+02  0.11873358170E+03  0.47000000000E+01 0. -1.
        -11    1    6    6    0    0  0.45127578491E+02 -0.16121837998E+02 -0.74101029388E+02  0.88246102222E+02  0.00000000000E+00 0.  1.
         12    1    6    6    0    0  0.13286401692E+03  0.88369638906E+02 -0.20463141003E+03  0.25949191518E+03  0.00000000000E+00 0. -1.
         -5    1    3    3    0  503 -0.12979229388E+03  0.52239149437E+02 -0.45431182241E+03  0.47539067120E+03  0.47000000000E+01 0.  1.
         13    1    4    4    0    0 -0.12175930341E+03 -0.27576840249E+02 -0.46565402043E+03  0.48209903218E+03  0.00000000000E+00 0. -1.
        -14    1    4    4    0    0 -0.19307416988E+02 -0.52809622929E+02 -0.22802306935E+03  0.23485347087E+03  0.00000000000E+00 0.  1.
</event>
<event>
12    1  0.8500177E-002  0.3373521E+03  0.7818608E-02  0.1068014E+00
         21   -1    0    0  503  502  0.00000000000E+00  0.00000000000E+00  0.12887438044E+03  0.12887438044E+03  0.00000000000E+00 0. -1.
         21   -1    0    0  501  503 -0.00000000000E+00 -0.00000000000E+00 -0.97693818801E+03  0.97693818801E+03  0.00000000000E+00 0. -1.
          6    2    1    2  501    0 -0.27555740214E+03 -0.87957814973E+02 -0.59773563106E+03  0.68636311735E+03  0.17360295256E+03 0.  0.
         24    2    3    3    0    0 -0.11400882279E+03 -0.32376943586E+02 -0.40401676499E+03  0.42802948458E+03  0.77028664303E+02 0.  0.
         -6    2    1    2    0  502  0.27555740214E+03  0.87957814973E+02 -0.25032817652E+03  0.41944945110E+03  0.17206157905E+03 0.  0.
        -24    2    5    5    0    0  0.15656309040E+03  0.25132534734E+02 -0.21803459557E+03  0.28098780503E+03  0.79192273187E+02 0.  0.
          5    1    3    3  501    0 -0.16154857934E+03 -0.55580871387E+02 -0.19371886607E+03  0.25833363277E+03  0.47000000000E+01 0. -1.
        -11    1    4    4    0    0  0.76707548500E+01 -0.13833440526E+02 -0.77186100373E+02  0.78790219238E+02  0.00000000000E+00 0.  1.
         12    1    4    4    0    0 -0.12167957764E+03 -0.18543503060E+02 -0.32683066462E+03  0.34923926534E+03  0.00000000000E+00 0. -1.
         -5    1    5    5    0  502  0.11899431173E+03  0.62825280239E+02 -0.32293580946E+02  0.13846164607E+03  0.47000000000E+01 0.  1.
         13    1    6    6    0    0  0.89503663785E+02  0.18256976870E+02 -0.60306387950E+02  0.10945813566E+03  0.00000000000E+00 0. -1.
        -14    1    6    6    0    0  0.67059426615E+02  0.68755578635E+01 -0.15772820762E+03  0.17152966937E+03  0.00000000000E+00 0.  1.
</event>
<event>
12    1  0.8500177E-002  0.2188095E+03  0.7818608E-02  0.1134812E+00
         21   -1    0    0  501  502  0.00000000000E+00  0.00000000000E+00  0.15620842301E+03  0.15620842301E+03  0.00000000000E+00 0.  1.
         21   -1    0    0  502  503 -0.00000000000E+00 -0.00000000000E+00 -0.30854520530E+03  0.30854520530E+03  0.00000000000E+00 0.  1.
         -6    2    1    2    0  503 -0.63375617440E+02  0.11935396082E+03 -0.96341020680E+02  0.23889279336E+03  0.17183229500E+03 0.  0.
        -24    2    3    3    0    0  0.26097790843E+02  0.75887344670E+02 -0.22347844343E+02  0.11482862587E+03  0.79032926083E+02 0.  0.
          6    2    1    2  501    0  0.63375617440E+02 -0.11935396082E+03 -0.55995761610E+02  0.22586083495E+03  0.17209228511E+03 0.  0.
         24    2    5    5    0    0  0.74390628888E+02 -0.71080945594E+02 -0.96099133121E+02  0.16197042187E+03  0.80080632375E+02 0.  0.
          5    1    5    5  501    0 -0.11015011448E+02 -0.48273015228E+02  0.40103371511E+02  0.63890413076E+02  0.47000000000E+01 0. -1.
        -13    1    6    6    0    0  0.16090697601E+02 -0.64998818760E+02 -0.72748734870E+02  0.98874341538E+02  0.00000000000E+00 0.  1.
         14    1    6    6    0    0  0.58299931287E+02 -0.60821268348E+01 -0.23350398251E+02  0.63096080333E+02  0.00000000000E+00 0. -1.
         -5    1    3    3    0  503 -0.89473408283E+02  0.43466616152E+02 -0.73993176337E+02  0.12406416749E+03  0.47000000000E+01 0.  1.
         11    1    4    4    0    0  0.28892179600E+02  0.76408418704E+02 -0.44140455475E+02  0.92851409793E+02  0.00000000000E+00 0. -1.
        -12    1    4    4    0    0 -0.27943887573E+01 -0.52107403448E+00  0.21792611132E+02  0.21977216080E+02  0.00000000000E+00 0.  1.
</event>
<event>
12    1  0.8500177E-002  0.1756075E+03  0.7818608E-02  0.1172184E+00
         21   -1    0    0  503  502  0.00000000000E+00  0.00000000000E+00  0.32185260241E+02  0.32185260241E+02  0.00000000000E+00 0.  1.
         21   -1    0    0  501  503 -0.00000000000E+00 -0.00000000000E+00 -0.10098591354E+04  0.10098591354E+04  0.00000000000E+00 0.  1.
          6    2    1    2  501    0  0.33309558647E+02 -0.59993276863E+01 -0.36909106187E+03  0.40863219373E+03  0.17206550835E+03 0.  0.
         24    2    3    3    0    0  0.68019877809E+02 -0.59444528786E+01 -0.35669449428E+03  0.37147611541E+03  0.78112110311E+02 0.  0.
         -6    2    1    2    0  502 -0.33309558647E+02  0.59993276863E+01 -0.60858281324E+03  0.63341220187E+03  0.17231499724E+03 0.  0.
        -24    2    5    5    0    0  0.15220658921E+02 -0.52352960132E+02 -0.38799999349E+03  0.40009044575E+03  0.80968320576E+02 0.  0.
          5    1    3    3  501    0 -0.34710319162E+02 -0.54874807616E-01 -0.12396567598E+02  0.37156078316E+02  0.47000000000E+01 0. -1.
        -11    1    4    4    0    0  0.56904096487E+02 -0.95657927819E+01 -0.35500495125E+03  0.35966386530E+03  0.00000000000E+00 0.  1.
         12    1    4    4    0    0  0.11115781322E+02  0.36213399033E+01 -0.16895430246E+01  0.11812250113E+02  0.00000000000E+00 0. -1.
         -5    1    5    5    0  502 -0.48530217568E+02  0.58352287819E+02 -0.22058281975E+03  0.23332175612E+03  0.47000000000E+01 0.  1.
         11    1    6    6    0    0  0.37095834406E+02 -0.38134654446E+02 -0.12568285708E+03  0.13647905833E+03  0.00000000000E+00 0. -1.
        -12    1    6    6    0    0 -0.21875175484E+02 -0.14218305686E+02 -0.26231713641E+03  0.26361138742E+03  0.00000000000E+00 0.  1.
</event>
<event>
12    1  0.8500177E-002  0.2929714E+03  0.7818608E-02  0.1088854E+00
         21   -1    0    0  501  502  0.00000000000E+00  0.00000000000E+00  0.39681740693E+03  0.39681740693E+03  0.00000000000E+00 0.  1.
         21   -1    0    0  502  503 -0.00000000000E+00 -0.00000000000E+00 -0.32992078118E+03  0.32992078118E+03  0.00000000000E+00 0. -1.
         -6    2    1    2    0  503  0.12036119949E+03  0.20303742163E+03 -0.18005413134E+03  0.34357119973E+03  0.17294700387E+03 0.  0.
        -24    2    3    3    0    0  0.14246619659E+03  0.12038218105E+03 -0.15327481395E+03  0.25379513649E+03  0.78296334719E+02 0.  0.
          6    2    1    2  501    0 -0.12036119949E+03 -0.20303742163E+03  0.24695075710E+03  0.38316698837E+03  0.17355475108E+03 0.  0.
         24    2    5    5    0    0 -0.92778967328E+02 -0.18463352920E+03  0.12178303311E+03  0.25359642105E+03  0.82356303544E+02 0.  0.
          5    1    5    5  501    0 -0.27582232165E+02 -0.18403892429E+02  0.12516772399E+03  0.12957056732E+03  0.47000000000E+01 0. -1.
        -11    1    6    6    0    0 -0.10897107302E+02 -0.11335829610E+03  0.62939851234E+02  0.13011639065E+03  0.00000000000E+00 0.  1.
         12    1    6    6    0    0 -0.81881860025E+02 -0.71275233098E+02  0.58843181875E+02  0.12348003040E+03  0.00000000000E+00 0. -1.
         -5    1    3    3    0  503 -0.22104997095E+02  0.82655240575E+02 -0.26779317390E+02  0.89776063240E+02  0.47000000000E+01 0.  1.
         11    1    4    4    0    0 -0.78511648333E+01  0.18009675120E+02 -0.22024611535E+02  0.29513940781E+02  0.00000000000E+00 0. -1.
        -12    1    4    4    0    0  0.15031736142E+03  0.10237250593E+03 -0.13125020242E+03  0.22428119571E+03  0.00000000000E+00 0.  1.
</event>
<event>
12    1  0.8500177E-002  0.1963708E+03  0.7818608E-02  0.1153181E+00
         21   -1    0    0  501  502  0.00000000000E+00  0.00000000000E+00  0.43667444240E+03  0.43667444240E+03  0.00000000000E+00 0. -1.
         21   -1    0    0  502  503 -0.00000000000E+00 -0.00000000000E+00 -0.95617299045E+02  0.95617299045E+02  0.00000000000E+00 0.  1.
         -6    2    1    2    0  503  0.50933261622E+01 -0.93491283165E+02  0.92815137883E+02  0.21577070325E+03  0.17080920514E+03 0.  0.
        -24    2    3    3    0    0  0.54739196031E+02 -0.10588069814E+02  0.57012473234E+02  0.11261268865E+03  0.79515462247E+02 0.  0.
          6    2    1    2  501    0 -0.50933261622E+01  0.93491283165E+02  0.24824200547E+03  0.31652103820E+03  0.17261202838E+03 0.  0.
         24    2    5    5    0    0  0.41003502793E+02  0.49525073662E+02  0.22784216524E+03  0.24946741265E+03  0.78663317684E+02 0.  0.
          5    1    5    5  501    0 -0.46096828955E+02  0.43966209503E+02  0.20399840226E+02  0.67053625547E+02  0.47000000000E+01 0. -1.
        -11    1    6    6    0    0  0.61167222714E+02  0.52906576430E+02  0.17408050736E+03  0.19194936314E+03  0.00000000000E+00 0.  1.
         12    1    6    6    0    0 -0.20163719921E+02 -0.33815027678E+01  0.53761657876E+02  0.57518049511E+02  0.00000000000E+00 0. -1.
         -5    1    3    3    0  503 -0.49645869869E+02 -0.82903213351E+02  0.35802664649E+02  0.10315801459E+03  0.47000000000E+01 0.  1.
         11    1    4    4    0    0  0.56399323745E+02 -0.52057208249E+01  0.74874383367E+02  0.93883739448E+02  0.00000000000E+00 0. -1.
        -12    1    4    4    0    0 -0.16601277132E+01 -0.53823489888E+01 -0.17861910133E+02  0.18728949203E+02  0.00000000000E+00 0.  1.
</event>
<event>
12    1  0.8500177E-002  0.2851480E+03  0.7818608E-02  0.1093344E+00
         21   -1    0    0  503  502  0.00000000000E+00  0.00000000000E+00  0.47150982422E+03  0.47150982422E+03  0.00000000000E+00 0. -1.
         21   -1    0    0  501  503 -0.00000000000E+00 -0.00000000000E+00 -0.18361364314E+03  0.18361364314E+03  0.00000000000E+00 0.  1.
          6    2    1    2  501    0 -0.13527123185E+02 -0.22327964402E+03  0.57160197971E+02  0.29082066549E+03  0.17684057439E+03 0.  0.
         24    2    3    3    0    0 -0.74871453380E+02 -0.11515509637E+03  0.15285955082E+02  0.15955914460E+03  0.79743522934E+02 0.  0.
         -6    2    1    2    0  502  0.13527123185E+02  0.22327964402E+03  0.23073598311E+03  0.36430280186E+03  0.17158279356E+03 0.  0.
        -24    2    5    5    0    0  0.39314867742E+02  0.15084076934E+03  0.22763274225E+03  0.28720469269E+03  0.79820258294E+02 0.  0.
          5    1    3    3  501    0  0.61344330194E+02 -0.10812454765E+03  0.41874242889E+02  0.13126152090E+03  0.47000000000E+01 0. -1.
        -13    1    4    4    0    0 -0.44769083341E+02 -0.11066401255E+03 -0.10269268895E+02  0.11981757960E+03  0.00000000000E+00 0.  1.
         14    1    4    4    0    0 -0.30102370038E+02 -0.44910838179E+01  0.25555223977E+02  0.39741564996E+02  0.00000000000E+00 0. -1.
         -5    1    5    5    0  502 -0.25787744557E+02  0.72438874679E+02  0.31032408532E+01  0.77098109172E+02  0.47000000000E+01 0.  1.
         11    1    6    6    0    0 -0.24165228671E+02  0.52805964077E+02  0.83120019985E+02  0.10139707018E+03  0.00000000000E+00 0. -1.
        -12    1    6    6    0    0  0.63480096413E+02  0.98034805264E+02  0.14451272227E+03  0.18580762251E+03  0.00000000000E+00 0.  1.
</event>
<event>
12    1  0.8500177E-002  0.2329513E+03  0.7818608E-02  0.1124621E+00
         21   -1    0    0  503  502  0.00000000000E+00  0.00000000000E+00  0.25766470533E+03  0.25766470533E+03  0.00000000000E+00 0. -1.
         21   -1    0    0  501  503 -0.00000000000E+00 -0.00000000000E+00 -0.39440409367E+03  0.39440409367E+03  0.00000000000E+00 0. -1.
          6    2    1    2  501    0  0.13118438315E+03 -0.86261051225E+02 -0.29104922584E+03  0.37264472013E+03  0.17176764609E+03 0.  0.
         24    2    3    3    0    0  0.55903414716E+01 -0.69886799795E-01 -0.91291030011E+02  0.12139144766E+03  0.79815879390E+02 0.  0.
         -6    2    1    2    0  502 -0.13118438315E+03  0.86261051225E+02  0.15430983749E+03  0.27942407887E+03  0.17209293584E+03 0.  0.
        -24    2    5    5    0    0 -0.83772476442E+02  0.64057653663E+02  0.17799919031E+03  0.22176859172E+03  0.79852274360E+02 0.  0.
          5    1    3    3  501    0  0.12559404168E+03 -0.86191164425E+02 -0.19975819582E+03  0.25125327247E+03  0.47000000000E+01 0. -1.
        -11    1    4    4    0    0 -0.12674869364E+01 -0.12821549719E+02  0.11690355654E+02  0.17397214594E+02  0.00000000000E+00 0.  1.
         12    1    4    4    0    0  0.68578284080E+01  0.12751662919E+02 -0.10298138567E+03  0.10399423307E+03  0.00000000000E+00 0. -1.
         -5    1    5    5    0  502 -0.47411906707E+02  0.22203397562E+02 -0.23689352824E+02  0.57655487146E+02  0.47000000000E+01 0.  1.
         11    1    6    6    0    0 -0.13998911513E+02  0.56670318744E+02  0.10737231583E+03  0.12221419212E+03  0.00000000000E+00 0. -1.
        -12    1    6    6    0    0 -0.69773564929E+02  0.73873349187E+01  0.70626874488E+02  0.99554399602E+02  0.00000000000E+00 0.  1.
</event>
<event>
12    1  0.8500177E-002  0.2131706E+03  0.7818608E-02  0.1139287E+00
         21   -1    0    0  501  502  0.00000000000E+00  0.00000000000E+00  0.32894365179E+03  0.32894365179E+03  0.00000000000E+00 0.  1.
         21   -1    0    0  502  503 -0.00000000000E+00 -0.00000000000E+00 -0.61005362171E+03  0.61005362171E+03  0.00000000000E+00 0.  1.
         -6    2    1    2    0  503  0.11989250189E+03 -0.37157663605E+02 -0.55386934667E+03  0.59347533174E+03  0.17229861354E+03 0.  0.
        -24    2    3    3    0    0  0.11746032689E+03  0.20658391940E+02 -0.42967549510E+03  0.45638115053E+03  0.97154649499E+02 0.  0.
          6    2    1    2  501    0 -0.11989250189E+03  0.37157663605E+02  0.27275937674E+03  0.34552194176E+03  0.17097611136E+03 0.  0.
         24    2    5    5    0    0 -0.10396474165E+03  0.38820443625E+02  0.29067086033E+03  0.32103991513E+03  0.79128905670E+02 0.  0.
          5    1    5    5  501    0 -0.15927760245E+02 -0.16627800209E+01 -0.17911483581E+02  0.24482026629E+02  0.47000000000E+01 0. -1.
        -13    1    6    6    0    0 -0.11797551651E+01  0.30550427942E+02  0.43007097113E+02  0.52766759155E+02  0.00000000000E+00 0.  1.
         14    1    6    6    0    0 -0.10278498648E+03  0.82700156832E+01  0.24766376321E+03  0.26827315597E+03  0.00000000000E+00 0. -1.
         -5    1    3    3    0  503  0.24321750051E+01 -0.57816055545E+02 -0.12419385157E+03  0.13709418121E+03  0.47000000000E+01 0.  1.
         11    1    4    4    0    0  0.23469093877E+02 -0.32105644410E+02 -0.18154684635E+03  0.18585162951E+03  0.00000000000E+00 0. -1.
        -12    1    4    4    0    0  0.93991233013E+02  0.52764036350E+02 -0.24812864875E+03  0.27052952103E+03  0.00000000000E+00 0.  1.
</event>
<event>
12    1  0.8500177E-002  0.1798333E+03  0.7818608E-02  0.1169920E+00
         21   -1    0    0  501  502  0.00000000000E+00  0.00000000000E+00  0.26960963051E+03  0.26960963051E+03  0.00000000000E+00 0.  1.
         21   -1    0    0  502  503 -0.00000000000E+00 -0.00000000000E+00 -0.11504801663E+03  0.11504801663E+03  0.00000000000E+00 0.  1.
         -6    2    1    2    0  503 -0.14939454518E+02  0.32271415735E+01  0.69251205460E+02  0.19270640632E+03  0.17918266611E+03 0.  0.
        -24    2    3    3    0    0  0.55212794084E+01 -0.63288373622E+02  0.11754012369E+02  0.10231297399E+03  0.79334009597E+02 0.  0.
          6    2    1    2  501    0  0.14939454518E+02 -0.32271415735E+01  0.85310408420E+02  0.19195124081E+03  0.17127116313E+03 0.  0.
         24    2    5    5    0    0  0.73007499430E+02 -0.23231024914E+02  0.53723792089E+02  0.12272799674E+03  0.79411207368E+02 0.  0.
          5    1    5    5  501    0 -0.58068044912E+02  0.20003883341E+02  0.31586616331E+02  0.69223244072E+02  0.47000000000E+01 0. -1.
        -11    1    6    6    0    0  0.81128451069E+02  0.98160982784E+00  0.53505883891E+02  0.97188830334E+02  0.00000000000E+00 0.  1.
         12    1    6    6    0    0 -0.81209516391E+01 -0.24212634742E+02  0.21790819750E+00  0.25539166405E+02  0.00000000000E+00 0. -1.
         -5    1    3    3    0  503 -0.20460733926E+02  0.66515515195E+02  0.57497193091E+02  0.90393432327E+02  0.47000000000E+01 0.  1.
         13    1    4    4    0    0  0.22588146308E+02  0.77670582138E+01 -0.10254549527E+02  0.25994371178E+02  0.00000000000E+00 0. -1.
        -14    1    4    4    0    0 -0.17066866900E+02 -0.71055431836E+02  0.22008561895E+02  0.76318602816E+02  0.00000000000E+00 0.  1.
</event>
<event>
12    1  0.8500177E-002  0.2052197E+03  0.7818608E-02  0.1145519E+00
         21   -1    0    0  501  502  0.00000000000E+00  0.00000000000E+00  0.15910078251E+04  0.15910078251E+04  0.00000000000E+00 0. -1.
         21   -1    0    0  502  503 -0.00000000000E+00 -0.00000000000E+00 -0.32408748738E+02  0.32408748738E+02  0.00000000000E+00 0. -1.
         -6    2    1    2    0  503 -0.10471502481E+03  0.39183278291E+02  0.43065359238E+03  0.47705100131E+03  0.17208885933E+03 0.  0.
        -24    2    3    3    0    0 -0.92677338645E+02 -0.33918246204E+02  0.22173754344E+03  0.25533779856E+03  0.79311516667E+02 0.  0.
          6    2    1    2  501    0  0.10471502481E+03 -0.39183278291E+02  0.11279454840E+04  0.11463655726E+04  0.17144225070E+03 0.  0.
         24    2    5    5    0    0  0.12688212034E+03 -0.68677728375E+02  0.97901024927E+03  0.99285629968E+03  0.80541050464E+02 0.  0.
          5    1    5    5  501    0 -0.22167095539E+02  0.29494450084E+02  0.14893523476E+03  0.15350927289E+03  0.47000000000E+01 0. -1.
        -11    1    6    6    0    0  0.33381345959E+02 -0.11402825872E+01  0.83247392859E+02  0.89698065310E+02  0.00000000000E+00 0.  1.
         12    1    6    6    0    0  0.93500774385E+02 -0.67537445788E+02  0.89576285641E+03  0.90315823437E+03  0.00000000000E+00 0. -1.
         -5    1    3    3    0  503 -0.12037686160E+02  0.73101524495E+02  0.20891604894E+03  0.22171320276E+03  0.47000000000E+01 0.  1.
         11    1    4    4    0    0 -0.85013814451E+02 -0.39621191101E+02  0.22614014581E+03  0.24481942933E+03  0.00000000000E+00 0. -1.
        -12    1    4    4    0    0 -0.76635241935E+01  0.57029448960E+01 -0.44026023667E+01  0.10518369225E+02  0.00000000000E+00 0.  1.
</event>
<event>
12    1  0.8500177E-002  0.2569424E+03  0.7818608E-02  0.1109005E+00
         21   -1    0    0  501  502  0.00000000000E+00  0.00000000000E+00  0.11384762164E+03  0.11384762164E+03  0.00000000000E+00 0. -1.
         21   -1    0    0  502  503 -0.00000000000E+00 -0.00000000000E+00 -0.63418425761E+03  0.63418425761E+03  0.00000000000E+00 0.  1.
         -6    2    1    2    0  503  0.17874038260E+03  0.66298423428E+02 -0.36972541317E+03  0.45020114777E+03  0.17216441846E+03 0.  0.
        -24    2    3    3    0    0  0.16284532610E+03  0.38830760889E+02 -0.37422759389E+03  0.41780539283E+03  0.80552008215E+02 0.  0.
          6    2    1    2  501    0 -0.17874038260E+03 -0.66298423428E+02 -0.15061122280E+03  0.29783073148E+03  0.17226665046E+03 0.  0.
         24    2    5    5    0    0 -0.70396900227E+02 -0.94337791480E+02 -0.61118615330E+02  0.15445872192E+03  0.79162296418E+02 0.  0.
          5    1    5    5  501    0 -0.10834348237E+03  0.28039368053E+02 -0.89492607472E+02  0.14337200956E+03  0.47000000000E+01 0. -1.
        -13    1    6    6    0    0  0.14191864718E+01 -0.36190972043E+02 -0.49486846319E+02  0.61324941959E+02  0.00000000000E+00 0.  1.
         14    1    6    6    0    0 -0.71816086698E+02 -0.58146819438E+02 -0.11631769011E+02  0.93133779960E+02  0.00000000000E+00 0. -1.
         -5    1    3    3    0  503  0.15895056504E+02  0.27467662538E+02  0.45021807168E+01  0.32395754935E+02  0.47000000000E+01 0.  1.
         11    1    4    4    0    0  0.22443819362E+02 -0.21449112003E+02 -0.43014995702E+02  0.53047896175E+02  0.00000000000E+00 0. -1.
        -12    1    4    4    0    0  0.14040150674E+03  0.60279872892E+02 -0.33121259819E+03  0.36475749666E+03  0.00000000000E+00 0.  1.
</event>
<event>
12    1  0.8500177E-002  0.2346671E+03  0.7818608E-02  0.1123913E+00
         21   -1    0    0  503  502  0.00000000000E+00  0.00000000000E+00  0.43903928518E+03  0.43903928518E+03  0.00000000000E+00 0.  1.
         21   -1    0    0  501  503 -0.00000000000E+00 -0.00000000000E+00 -0.12386139310E+03  0.12386139310E+03  0.00000000000E+00 0. -1.
          6    2    1    2  501    0  0.14538628792E+03 -0.62285419901E+02  0.15279867189E+03  0.27753134049E+03  0.16929136001E+03 0.  0.
         24    2    3    3    0    0  0.13659337720E+03 -0.85811885794E+02  0.73817806155E+02  0.19452003386E+03  0.79796896097E+02 0.  0.
         -6    2    1    2    0  502 -0.14538628792E+03  0.62285419901E+02  0.16237922019E+03  0.28536933779E+03  0.17335513132E+03 0.  0.
        -24    2    5    5    0    0 -0.45646351955E+02  0.37365294345E+02  0.53672891069E+01  0.97635739345E+02  0.77615559888E+02 0.  0.
          5    1    3    3  501    0  0.87929107219E+01  0.23526465894E+02  0.78980865735E+02  0.83011306631E+02  0.47000000000E+01 0. -1.
        -13    1    4    4    0    0  0.10337461292E+03 -0.44474974040E+02  0.84116517225E+02  0.14049883410E+03  0.00000000000E+00 0.  1.
         14    1    4    4    0    0  0.33218764283E+02 -0.41336911754E+02 -0.10298711071E+02  0.54021199760E+02  0.00000000000E+00 0. -1.
         -5    1    5    5    0  502 -0.99739935969E+02  0.24920125556E+02  0.15701193108E+03  0.18773359845E+03  0.47000000000E+01 0.  1.
         13    1    6    6    0    0 -0.89965003284E+01  0.48443657237E+02 -0.18372137935E+02  0.52585743286E+02  0.00000000000E+00 0. -1.
        -14    1    6    6    0    0 -0.36649851627E+02 -0.11078362892E+02  0.23739427042E+02  0.45049996059E+02  0.00000000000E+00 0.  1.
</event>
<event>
12    1  0.8500177E-002  0.1729226E+03  0.7818608E-02  0.1174939E+00
         21   -1    0    0  501  502  0.00000000000E+00  0.00000000000E+00  0.10403903414E+04  0.10403903414E+04  0.00000000000E+00 0. -1.
         21   -1    0    0  502  503 -0.00000000000E+00 -0.00000000000E+00 -0.14943906046E+03  0.14943906046E+03  0.00000000000E+00 0. -1.
         -6    2    1    2    0  503  0.15030019009E+02  0.16875761955E+02 -0.89430142524E+02  0.19431447526E+03  0.17102535511E+03 0.  0.
        -24    2    3    3    0    0  0.35711051915E+02  0.72164625979E+02 -0.66764219466E+02  0.13090786933E+03  0.78717194948E+02 0.  0.
          6    2    1    2  501    0 -0.15030019009E+02 -0.16875761955E+02  0.98038142345E+03  0.99551492659E+03  0.17143961270E+03 0.  0.
         24    2    5    5    0    0 -0.16884718297E+02 -0.76623513234E+02  0.65119587881E+03  0.66091300416E+03  0.81201416238E+02 0.  0.
          5    1    5    5  501    0  0.18546992872E+01  0.59747751280E+02  0.32918554464E+03  0.33460192243E+03  0.47000000000E+01 0. -1.
        -13    1    6    6    0    0  0.15805926805E+02  0.96868277051E+01  0.16469081779E+03  0.16573088854E+03  0.00000000000E+00 0.  1.
         14    1    6    6    0    0 -0.32690645101E+02 -0.86310340940E+02  0.48650506102E+03  0.49518211562E+03  0.00000000000E+00 0. -1.
         -5    1    3    3    0  503 -0.20681032905E+02 -0.55288864024E+02 -0.22665923058E+02  0.63406605927E+02  0.47000000000E+01 0.  1.
         13    1    4    4    0    0 -0.47605533128E+01  0.22223370238E+02 -0.62478547724E+02  0.66483907664E+02  0.00000000000E+00 0. -1.
        -14    1    4    4    0    0  0.40471605228E+02  0.49941255741E+02 -0.42856717421E+01  0.64423961668E+02  0.00000000000E+00 0.  1.
</event>
<event>
12    1  0.8500177E-002  0.1775640E+03  0.7818608E-02  0.1170200E+00
         21   -1    0    0  503  502  0.00000000000E+00  0.00000000000E+00  0.17054303199E+02  0.17054303199E+02  0.00000000000E+00 0. -1.
         21   -1    0    0  501  503 -0.00000000000E+00 -0.00000000000E+00 -0.22411320529E+04  0.22411320529E+04  0.00000000000E+00 0. -1.
          6    2    1    2  501    0  0.24688638403E+02 -0.38126374385E+02 -0.15851630908E+04  0.15950771175E+04  0.17165615937E+03 0.  0.
         24    2    3    3    0    0 -0.17714479844E+02 -0.16919460000E+02 -0.39207965035E+03  0.40104280329E+03  0.80677177212E+02 0.  0.
         -6    2    1    2    0  502 -0.24688638403E+02  0.38126374385E+02 -0.63891465895E+03  0.66310923865E+03  0.17157730522E+03 0.  0.
        -24    2    5    5    0    0 -0.31164932734E+02 -0.20583899566E+02 -0.18261734769E+03  0.20298081645E+03  0.80356494532E+02 0.  0.
          5    1    3    3  501    0  0.42403118247E+02 -0.21206914386E+02 -0.11930834404E+04  0.11940343142E+04  0.47000000000E+01 0. -1.
        -11    1    4    4    0    0  0.76049167025E+01  0.16966295528E+02 -0.23130828997E+02  0.29677014541E+02  0.00000000000E+00 0.  1.
         12    1    4    4    0    0 -0.25319396546E+02 -0.33885755528E+02 -0.36894882136E+03  0.37136578875E+03  0.00000000000E+00 0. -1.
         -5    1    5    5    0  502  0.64762943311E+01  0.58710273951E+02 -0.45629731126E+03  0.46012842220E+03  0.47000000000E+01 0.  1.
         11    1    6    6    0    0  0.83544229443E+01  0.14542173805E+02 -0.47642068310E+01  0.17434702992E+02  0.00000000000E+00 0. -1.
        -12    1    6    6    0    0 -0.39519355679E+02 -0.35126073371E+02 -0.17785314086E+03  0.18554611346E+03  0.00000000000E+00 0.  1.
</event>
<event>
12    1  0.8500177E-002  0.2243463E+03  0.7818608E-02  0.1131751E+00
         21   -1    0    0  501  502  0.00000000000E+00  0.00000000000E+00  0.32968500964E+03  0.32968500964E+03  0.00000000000E+00 0. -1.
         21   -1    0    0  502  503 -0.00000000000E+00 -0.00000000000E+00 -0.17160487428E+03  0.17160487428E+03  0.00000000000E+00 0. -1.
         -6    2    1    2    0  503  0.94835000551E+02 -0.10950440192E+03 -0.11531766654E+02  0.22464247851E+03  0.17130782276E+03 0.  0.
        -24    2    3    3    0    0  0.92903388512E+02 -0.14059628021E+03  0.88675808449E+01  0.18711036694E+03  0.80828842753E+02 0.  0.
          6    2    1    2  501    0 -0.94835000551E+02  0.10950440192E+03  0.16961190201E+03  0.27664740540E+03  0.16364809268E+03 0.  0.
         24    2    5    5    0    0 -0.10555794133E+03  0.76530965267E+02  0.64658424367E+02  0.16601489908E+03  0.79879704886E+02 0.  0.
          5    1    5    5  501    0  0.10722940779E+02  0.32973436657E+02  0.10495347765E+03  0.11063250632E+03  0.47000000000E+01 0. -1.
        -13    1    6    6    0    0 -0.81588847745E+01  0.10401129237E+02 -0.17880032098E+02  0.22236151601E+02  0.00000000000E+00 0.  1.
         14    1    6    6    0    0 -0.97399056556E+02  0.66129836030E+02  0.82538456465E+02  0.14377874748E+03  0.00000000000E+00 0. -1.
         -5    1    3    3    0  503  0.19316120399E+01  0.31091878289E+02 -0.20399347499E+02  0.37532111571E+02  0.47000000000E+01 0.  1.
         11    1    4    4    0    0  0.26802633635E+02 -0.50263928963E+02 -0.35034114326E+02  0.66874755261E+02  0.00000000000E+00 0. -1.
        -12    1    4    4    0    0  0.66100754877E+02 -0.90332351249E+02  0.43901695171E+02  0.12023561168E+03  0.00000000000E+00 0.  1.
</event>
<event>
12    1  0.8500177E-002  0.1883232E+03  0.7818608E-02  0.1161687E+00
         21   -1    0    0  501  502  0.00000000000E+00  0.00000000000E+00  0.40256208111E+03  0.40256208111E+03  0.00000000000E+00 0. -1.
         21   -1    0    0  502  503 -0.00000000000E+00 -0.00000000000E+00 -0.11165489681E+03  0.11165489681E+03  0.00000000000E+00 0. -1.
         -6    2    1    2    0  503 -0.61307067799E+02 -0.46544669549E+02  0.16983790844E+02  0.18180211193E+03  0.16382489409E+03 0.  0.
        -24    2    3    3    0    0 -0.16423303415E+02 -0.66318832007E+02 -0.35201513467E+02  0.11003188278E+03  0.78739801268E+02 0.  0.
          6    2    1    2  501    0  0.61307067799E+02  0.46544669549E+02  0.27392339345E+03  0.33241486600E+03  0.17187395041E+03 0.  0.
         24    2    5    5    0    0  0.10641104442E+03  0.31546452280E+02  0.16243102123E+03  0.21112202082E+03  0.76617112889E+02 0.  0.
          5    1    5    5  501    0 -0.45103976624E+02  0.14998217269E+02  0.11149237222E+03  0.12129284518E+03  0.47000000000E+01 0. -1.
        -11    1    6    6    0    0  0.24115744236E+02  0.38887542880E+02  0.28975014747E+02  0.54160516900E+02  0.00000000000E+00 0.  1.
         12    1    6    6    0    0  0.82295300188E+02 -0.73410905993E+01  0.13345600649E+03  0.15696150392E+03  0.00000000000E+00 0. -1.
         -5    1    3    3    0  503 -0.44883764384E+02  0.19774162458E+02  0.52185304311E+02  0.71770229150E+02  0.47000000000E+01 0.  1.
         13    1    4    4    0    0 -0.29292313982E+02  0.66595077872E+01 -0.79317447689E+01  0.31069297988E+02  0.00000000000E+00 0. -1.
        -14    1    4    4    0    0  0.12869010566E+02 -0.72978339794E+02 -0.27269768698E+02  0.78962584791E+02  0.00000000000E+00 0.  1.
</event>
<event>
12    1  0.8500177E-002  0.3036650E+03  0.7818608E-02  0.1084323E+00
         21   -1    0    0  503  502  0.00000000000E+00  0.00000000000E+00  0.12800142825E+04  0.12800142825E+04  0.00000000000E+00 0. -1.
         21   -1    0    0  501  503 -0.00000000000E+00 -0.00000000000E+00 -0.15213426274E+03  0.15213426274E+03  0.00000000000E+00 0. -1.
          6    2    1    2  501    0 -0.24014666960E+03  0.21171446296E+02  0.42029717219E+02  0.30655982477E+03  0.18464499987E+03 0.  0.
         24    2    3    3    0    0 -0.19602368636E+03  0.39783611377E+02  0.95424836719E+02  0.23468229612E+03  0.77213077257E+02 0.  0.
         -6    2    1    2    0  502  0.24014666960E+03 -0.21171446296E+02  0.10858503025E+04  0.11255887204E+04  0.17251213017E+03 0.  0.
        -24    2    5    5    0    0  0.79049333262E+02  0.82450061521E+01  0.65912412480E+03  0.66849463801E+03  0.78254021850E+02 0.  0.
          5    1    3    3  501    0 -0.44122983238E+02 -0.18612165081E+02 -0.53395119500E+02  0.71877528652E+02  0.47000000000E+01 0. -1.
        -13    1    4    4    0    0 -0.67742434060E+02  0.42152726889E+02  0.64772395165E+02  0.10276844327E+03  0.00000000000E+00 0.  1.
         14    1    4    4    0    0 -0.12828125230E+03 -0.23691155116E+01  0.30652441554E+02  0.13191385285E+03  0.00000000000E+00 0. -1.
         -5    1    5    5    0  502  0.16109733634E+03 -0.29416452448E+02  0.42672617772E+03  0.45709408244E+03  0.47000000000E+01 0.  1.
         11    1    6    6    0    0  0.79058971564E+02  0.29972725679E+02  0.42262405236E+03  0.43099857877E+03  0.00000000000E+00 0. -1.
        -12    1    6    6    0    0 -0.96383021861E-02 -0.21727719527E+02  0.23650007244E+03  0.23749605924E+03  0.00000000000E+00 0.  1.
</event>
<event>
12    1  0.8500177E-002  0.1851620E+03  0.7818608E-02  0.1163129E+00
         21   -1    0    0  503  502  0.00000000000E+00  0.00000000000E+00  0.70679081556E+03  0.70679081556E+03  0.00000000000E+00 0. -1.
         21   -1    0    0  501  503 -0.00000000000E+00 -0.00000000000E+00 -0.51650385560E+02  0.51650385560E+02  0.00000000000E+00 0.  1.
          6    2    1    2  501    0  0.54052345072E+02  0.36526932089E+02  0.22945285767E+03  0.29422694753E+03  0.17223533315E+03 0.  0.
         24    2    3    3    0    0  0.65912876278E+02  0.59963572863E+02  0.81702977476E+02  0.14408679491E+03  0.78393179618E+02 0.  0.
         -6    2    1    2    0  502 -0.54052345072E+02 -0.36526932089E+02  0.42568757234E+03  0.46421425359E+03  0.17328903953E+03 0.  0.
        -24    2    5    5    0    0  0.17428442881E+02 -0.33113384105E+02  0.34896582259E+03  0.35919295937E+03  0.76434219414E+02 0.  0.
          5    1    3    3  501    0 -0.11860531206E+02 -0.23436640774E+02  0.14774988019E+03  0.15014015261E+03  0.47000000000E+01 0. -1.
        -11    1    4    4    0    0  0.36831357448E+02  0.45459396273E+01 -0.46909608194E+01  0.37406143506E+02  0.00000000000E+00 0.  1.
         12    1    4    4    0    0  0.29081518830E+02  0.55417633235E+02  0.86393938296E+02  0.10668065141E+03  0.00000000000E+00 0. -1.
         -5    1    5    5    0  502 -0.71480787953E+02 -0.34135479838E+01  0.76721749751E+02  0.10502129423E+03  0.47000000000E+01 0.  1.
         11    1    6    6    0    0 -0.66448944994E+01 -0.16715804649E+02  0.31011294593E+03  0.31063420929E+03  0.00000000000E+00 0. -1.
        -12    1    6    6    0    0  0.24073337380E+02 -0.16397579456E+02  0.38852876660E+02  0.48558750080E+02  0.00000000000E+00 0.  1.
</event>
<event>
12    1  0.8500177E-002  0.1897593E+03  0.7818608E-02  0.1158912E+00
         21   -1    0    0  503  502  0.00000000000E+00  0.00000000000E+00  0.32761356878E+02  0.32761356878E+02  0.00000000000E+00 0. -1.
         21   -1    0    0  501  503 -0.00000000000E+00 -0.00000000000E+00 -0.20844040998E+04  0.20844040998E+04  0.00000000000E+00 0. -1.
          6    2    1    2  501    0 -0.63688054959E+02  0.41096603955E+02 -0.17572840866E+04  0.17674999173E+04  0.17396406896E+03 0.  0.
         24    2    3    3    0    0  0.41763282812E+01  0.43756327172E+02 -0.48107669629E+03  0.48947799189E+03  0.78878761055E+02 0.  0.
         -6    2    1    2    0  502  0.63688054959E+02 -0.41096603955E+02 -0.29435865627E+03  0.34966553937E+03  0.17284059621E+03 0.  0.
        -24    2    5    5    0    0  0.42356098465E+02 -0.42196575114E+02 -0.65513691381E+02  0.11977780533E+03  0.80498999145E+02 0.  0.
          5    1    3    3  501    0 -0.67864383240E+02 -0.26597232170E+01 -0.12762073903E+04  0.12780219254E+04  0.47000000000E+01 0. -1.
        -13    1    4    4    0    0  0.20654346038E+02 -0.16906250929E+02 -0.11620183617E+03  0.11922789128E+03  0.00000000000E+00 0.  1.
         14    1    4    4    0    0 -0.16478017757E+02  0.60662578100E+02 -0.36487486012E+03  0.37025010060E+03  0.00000000000E+00 0. -1.
         -5    1    5    5    0  502  0.21331956494E+02  0.10999711598E+01 -0.22884496489E+03  0.22988773403E+03  0.47000000000E+01 0.  1.
         13    1    6    6    0    0  0.29983970805E+02  0.19066557889E+02 -0.36269347445E+02  0.50774380342E+02  0.00000000000E+00 0. -1.
        -14    1    6    6    0    0  0.12372127660E+02 -0.61263133004E+02 -0.29244343936E+02  0.69003424991E+02  0.00000000000E+00 0.  1.
</event>
<event>
12    1  0.8500177E-002  0.2286909E+03  0.7818608E-02  0.1129895E+00
         21   -1    0    0  503  502  0.00000000000E+00  0.00000000000E+00  0.28366317264E+02  0.28366317264E+02  0.00000000000E+00 0.  1.
         21   -1    0    0  501  503 -0.00000000000E+00 -0.00000000000E+00 -0.20673800950E+04  0.20673800950E+04  0.00000000000E+00 0. -1.
          6    2    1    2  501    0 -0.12030706316E+03  0.55619817363E+02 -0.14594822555E+04  0.14772907650E+04  0.18636576115E+03 0.  0.
         24    2    3    3    0    0 -0.94597367939E+02 -0.36085797961E+02 -0.66893420437E+03  0.68101240957E+03  0.77808003248E+02 0.  0.
         -6    2    1    2    0  502  0.12030706316E+03 -0.55619817363E+02 -0.57953152226E+03  0.61845564722E+03  0.17047946722E+03 0.  0.
        -24    2    5    5    0    0  0.27911256557E+02  0.31071344463E+02 -0.24280596039E+03  0.25865217776E+03  0.78751177558E+02 0.  0.
          5    1    3    3  501    0 -0.25709695222E+02  0.91705615324E+02 -0.79054805108E+03  0.79627835547E+03  0.47000000000E+01 0. -1.
        -13    1    4    4    0    0 -0.74517948069E+02 -0.10324944845E+02 -0.25697634237E+03  0.26776177772E+03  0.00000000000E+00 0.  1.
         14    1    4    4    0    0 -0.20079419870E+02 -0.25760853116E+02 -0.41195786200E+03  0.41325063184E+03  0.00000000000E+00 0. -1.
         -5    1    5    5    0  502  0.92395806604E+02 -0.86691161826E+02 -0.33672556187E+03  0.35980346946E+03  0.47000000000E+01 0.  1.
         11    1    6    6    0    0  0.14179683862E+02  0.49111245148E+02 -0.22223842759E+03  0.22804143600E+03  0.00000000000E+00 0. -1.
        -12    1    6    6    0    0  0.13731572696E+02 -0.18039900685E+02 -0.20567532803E+02  0.30610741759E+02  0.00000000000E+00 0.  1.
</event>
<event>
12    1  0.8500177E-002  0.2544439E+03  0.7818608E-02  0.1110542E+00
         21   -1    0    0  503  502  0.00000000000E+00  0.00000000000E+00  0.96515976579E+03  0.96515976579E+03  0.00000000000E+00 0.  1.
         21   -1    0    0  501  503 -0.00000000000E+00 -0.00000000000E+00 -0.17496768366E+03  0.17496768366E+03  0.00000000000E+00 0. -1.
          6    2    1    2  501    0  0.18657099364E+03 -0.24082815537E+02 -0.52624492287E+02  0.25974032676E+03  0.17119282253E+03 0.  0.
         24    2    3    3    0    0  0.85052611364E+02  0.35984415385E+02  0.16191378406E+02  0.12309564801E+03  0.79759344119E+02 0.  0.
         -6    2    1    2    0  502 -0.18657099364E+03  0.24082815537E+02  0.84281657441E+03  0.88038712269E+03  0.17132714324E+03 0.  0.
        -24    2    5    5    0    0 -0.91738643367E+02 -0.23156716026E+02  0.25882694431E+03  0.28684628494E+03  0.79606481520E+02 0.  0.
          5    1    3    3  501    0  0.10151838228E+03 -0.60067230922E+02 -0.68815870693E+02  0.13664467875E+03  0.47000000000E+01 0. -1.
        -13    1    4    4    0    0  0.68878208912E+02 -0.10258946130E+02  0.23642242312E+02  0.73541887793E+02  0.00000000000E+00 0.  1.
         14    1    4    4    0    0  0.16174402451E+02  0.46243361515E+02 -0.74508639053E+01  0.49553760218E+02  0.00000000000E+00 0. -1.
         -5    1    5    5    0  502 -0.94832350277E+02  0.47239531563E+02  0.58398963011E+03  0.59354083775E+03  0.47000000000E+01 0.  1.
         13    1    6    6    0    0 -0.30716131209E+02 -0.36553057519E+02  0.18021213985E+03  0.18642967060E+03  0.00000000000E+00 0. -1.
        -14    1    6    6    0    0 -0.61022512158E+02  0.13396341494E+02  0.78614804454E+02  0.10041661434E+03  0.00000000000E+00 0.  1.
</event>
<event>
12    1  0.8500177E-002  0.1722550E+03  0.7818608E-02  0.1175740E+00
         21   -1    0    0  503  502  0.00000000000E+00  0.00000000000E+00  0.11590689818E+03  0.11590689818E+03  0.00000000000E+00 0. -1.
         21   -1    0    0  501  503 -0.00000000000E+00 -0.00000000000E+00 -0.45495718315E+03  0.45495718315E+03  0.00000000000E+00 0. -1.
          6    2    1    2  501    0  0.15117512556E+02  0.20463489750E+01  0.20081661083E+02  0.17255824123E+03  0.17070543862E+03 0.  0.
         24    2    3    3    0    0  0.38770832623E+02  0.20945591781E+02 -0.43183204416E+02  0.10226461325E+03  0.81555911505E+02 0.  0.
         -6    2    1    2    0  502 -0.15117512556E+02 -0.20463489750E+01 -0.35913194605E+03  0.39830584009E+03  0.17157814792E+03 0.  0.
        -24    2    5    5    0    0  0.34339396740E+01  0.63168956488E+02 -0.18215693665E+03  0.20872884676E+03  0.79902896665E+02 0.  0.
          5    1    3    3  501    0 -0.23653320067E+02 -0.18899242806E+02  0.63264865499E+02  0.70293627986E+02  0.47000000000E+01 0. -1.
        -13    1    4    4    0    0 -0.20431945645E+02 -0.12525148368E+02 -0.17029715033E+02  0.29399913921E+02  0.00000000000E+00 0.  1.
         14    1    4    4    0    0  0.59202778268E+02  0.33470740148E+02 -0.26153489383E+02  0.72864699325E+02  0.00000000000E+00 0. -1.
         -5    1    5    5    0  502 -0.18551452230E+02 -0.65215305463E+02 -0.17697500940E+03  0.18957699333E+03  0.47000000000E+01 0.  1.
         13    1    6    6    0    0  0.55146641407E-01  0.25231396753E+02 -0.16506432066E+03  0.16698160491E+03  0.00000000000E+00 0. -1.
        -14    1    6    6    0    0  0.33787930326E+01  0.37937559736E+02 -0.17092615993E+02  0.41747241856E+02  0.00000000000E+00 0.  1.
</event>
<event>
12    1  0.8500177E-002  0.2461047E+03  0.7818608E-02  0.1115849E+00
         21   -1    0    0  501  502  0.00000000000E+00  0.00000000000E+00  0.45117672856E+03  0.45117672856E+03  0.00000000000E+00 0. -1.
         21   -1    0    0  502  503 -0.00000000000E+00 -0.00000000000E+00 -0.21834334742E+03  0.21834334742E+03  0.00000000000E+00 0. -1.
         -6    2    1    2    0  503  0.12139052465E+03  0.12774871216E+03 -0.91529666201E+02  0.26257422779E+03  0.17179101365E+03 0.  0.
        -24    2    3    3    0    0  0.12858695356E+03  0.80613373409E+02 -0.14552689435E+02  0.17190409103E+03  0.79411051784E+02 0.  0.
          6    2    1    2  501    0 -0.12139052465E+03 -0.12774871216E+03  0.32436304734E+03  0.40694584818E+03  0.17128381110E+03 0.  0.
         24    2    5    5    0    0 -0.58952396691E+02 -0.13580774070E+03  0.29054161049E+03  0.33532568793E+03  0.78164966913E+02 0.  0.
          5    1    5    5  501    0 -0.62438127959E+02  0.80590285436E+01  0.33821436849E+02  0.71620160253E+02  0.47000000000E+01 0. -1.
        -13    1    6    6    0    0  0.18237730629E+02 -0.30108731176E+02  0.45581087738E+02  0.57591545134E+02  0.00000000000E+00 0.  1.
         14    1    6    6    0    0 -0.77190127320E+02 -0.10569900952E+03  0.24496052275E+03  0.27773414280E+03  0.00000000000E+00 0. -1.
         -5    1    3    3    0  503 -0.71964289087E+01  0.47135338748E+02 -0.76976976765E+02  0.90670136759E+02  0.47000000000E+01 0.  1.
         13    1    4    4    0    0  0.59040826191E+02  0.33240596743E+02 -0.46194153897E+02  0.82004001630E+02  0.00000000000E+00 0. -1.
        -14    1    4    4    0    0  0.69546127369E+02  0.47372776665E+02  0.31641464462E+02  0.89900089401E+02  0.00000000000E+00 0.  1.
</event>
<event>
12    1  0.8500177E-002  0.2354514E+03  0.7818608E-02  0.1123161E+00
         21   -1    0    0  503  502  0.00000000000E+00  0.00000000000E+00  0.82212658239E+02  0.82212658239E+02  0.00000000000E+00 0. -1.
         21   -1    0    0  501  503 -0.00000000000E+00 -0.00000000000E+00 -0.67419573269E+03  0.67419573269E+03  0.00000000000E+00 0. -1.
          6    2    1    2  501    0  0.14744937789E+03 -0.52874251660E+02 -0.26486096876E+03  0.35438498486E+03  0.17578503689E+03 0.  0.
         24    2    3    3    0    0  0.75404473877E+02  0.33678493873E+02 -0.18076047517E+03  0.21375487082E+03  0.78719246600E+02 0.  0.
         -6    2    1    2    0  502 -0.14744937789E+03  0.52874251660E+02 -0.32712210569E+03  0.40202340607E+03  0.17342704941E+03 0.  0.
        -24    2    5    5    0    0 -0.67906624040E+02  0.91515942016E+02 -0.12393800055E+03  0.18037932086E+03  0.64727074583E+02 0.  0.
          5    1    3    3  501    0  0.72044904010E+02 -0.86552745533E+02 -0.84100493591E+02  0.14063011404E+03  0.47000000000E+01 0. -1.
        -11    1    4    4    0    0 -0.12718116354E+02  0.14806483335E+02 -0.59856630749E+02  0.62958706126E+02  0.00000000000E+00 0.  1.
         12    1    4    4    0    0  0.88122590231E+02  0.18872010538E+02 -0.12090384442E+03  0.15079616469E+03  0.00000000000E+00 0. -1.
         -5    1    5    5    0  502 -0.79542753847E+02 -0.38641690356E+02 -0.20318410514E+03  0.22164408520E+03  0.47000000000E+01 0.  1.
         11    1    6    6    0    0 -0.75458585844E+02  0.69099078227E+02 -0.77818309497E+02  0.12854715120E+03  0.00000000000E+00 0. -1.
        -12    1    6    6    0    0  0.75519618040E+01  0.22416863790E+02 -0.46119691050E+02  0.51832169662E+02  0.00000000000E+00 0.  1.
</event>
<event>
12    1  0.8500177E-002  0.1850061E+03  0.7818608E-02  0.1163056E+00
         21   -1    0    0  503  502  0.00000000000E+00  0.00000000000E+00  0.11674388444E+03  0.11674388444E+03  0.00000000000E+00 0. -1.
         21   -1    0    0  501  503 -0.00000000000E+00 -0.00000000000E+00 -0.69962999870E+03  0.69962999870E+03  0.00000000000E+00 0. -1.
          6    2    1    2  501    0 -0.55936624900E+02 -0.40928083349E+02 -0.60257678317E+03  0.63032283526E+03  0.17147618792E+03 0.  0.
         24    2    3    3    0    0 -0.32840513573E+02  0.21693951530E+02 -0.50059482464E+03  0.50835005356E+03  0.79217874446E+02 0.  0.
         -6    2    1    2    0  502  0.55936624900E+02  0.40928083349E+02  0.19690668914E+02  0.18605104788E+03  0.17153208436E+03 0.  0.
        -24    2    5    5    0    0  0.75506048199E+02  0.54984059965E+02  0.62526611117E+02  0.13667959103E+03  0.77764537822E+02 0.  0.
          5    1    3    3  501    0 -0.23096111327E+02 -0.62622034879E+02 -0.10198195853E+03  0.12197278170E+03  0.47000000000E+01 0. -1.
        -11    1    4    4    0    0 -0.13942714868E+02  0.44217234052E+02 -0.16265597707E+03  0.16913465039E+03  0.00000000000E+00 0.  1.
         12    1    4    4    0    0 -0.18897798705E+02 -0.22523282522E+02 -0.33793884757E+03  0.33921540317E+03  0.00000000000E+00 0. -1.
         -5    1    5    5    0  502 -0.19569423299E+02 -0.14055976616E+02 -0.42835942203E+02  0.49371456848E+02  0.47000000000E+01 0.  1.
         11    1    6    6    0    0  0.39564241291E+02  0.67815236434E+02  0.59279267158E+02  0.98378183538E+02  0.00000000000E+00 0. -1.
        -12    1    6    6    0    0  0.35941806909E+02 -0.12831176469E+02  0.32473439591E+01  0.38301407496E+02  0.00000000000E+00 0.  1.
</event>
<event>
12    1  0.8500177E-002  0.1794762E+03  0.7818608E-02  0.1168827E+00
         21   -1    0    0  503  502  0.00000000000E+00  0.00000000000E+00  0.20052846522E+04  0.20052846522E+04  0.00000000000E+00 0. -1.
         21   -1    0    0  501  503 -0.00000000000E+00 -0.00000000000E+00 -0.15958329595E+02  0.15958329595E+02  0.00000000000E+00 0. -1.
          6    2    1    2  501    0 -0.46534994406E+02 -0.28196852815E+00  0.91569964972E+03  0.93271832689E+03  0.17114918524E+03 0.  0.
         24    2    3    3    0    0 -0.67283673976E+02 -0.28705225624E+02  0.36339758758E+03  0.37927632713E+03  0.80259846154E+02 0.  0.
         -6    2    1    2    0  502  0.46534994406E+02  0.28196852815E+00  0.10736266729E+04  0.10885246549E+04  0.17333812735E+03 0.  0.
        -24    2    5    5    0    0 -0.29884389160E+02 -0.39082053889E+02  0.71240926569E+03  0.71718982796E+03  0.66436464607E+02 0.  0.
          5    1    3    3  501    0  0.20748679570E+02  0.28423257095E+02  0.55230206214E+03  0.55344199976E+03  0.47000000000E+01 0. -1.
        -13    1    4    4    0    0 -0.18091219171E+02  0.25964758596E+02  0.15725805877E+03  0.16041059176E+03  0.00000000000E+00 0.  1.
         14    1    4    4    0    0 -0.49192454806E+02 -0.54669984220E+02  0.20613952881E+03  0.21886573538E+03  0.00000000000E+00 0. -1.
         -5    1    5    5    0  502  0.76419383566E+02  0.39364022417E+02  0.36121740724E+03  0.37133482699E+03  0.47000000000E+01 0.  1.
         11    1    6    6    0    0  0.48466446133E+01  0.16306529787E+02  0.12454823131E+03  0.12570463317E+03  0.00000000000E+00 0. -1.
        -12    1    6    6    0    0 -0.34731033774E+02 -0.55388583676E+02  0.58786103438E+03  0.59148519478E+03  0.00000000000E+00 0.  1.
</event>
<event>
12    1  0.8500177E-002  0.1915536E+03  0.7818608E-02  0.1157384E+00
         21   -1    0    0  501  502  0.00000000000E+00  0.00000000000E+00  0.47143793098E+03  0.47143793098E+03  0.00000000000E+00 0.  1.
         21   -1    0    0  502  503 -0.00000000000E+00 -0.00000000000E+00 -0.14876710091E+03  0.14876710091E+03  0.00000000000E+00 0.  1.
         -6    2    1    2    0  503  0.75745691442E+02 -0.37473497012E+02 -0.53348998542E+02  0.19884386528E+03  0.17190431747E+03 0.  0.
        -24    2    3    3    0    0  0.52245973207E+01  0.35775399509E+02 -0.30693275541E+02  0.94565404695E+02  0.81812975588E+02 0.  0.
          6    2    1    2  501    0 -0.75745691442E+02  0.37473497012E+02  0.37601982861E+03  0.42136116661E+03  0.17033099679E+03 0.  0.
         24    2    5    5    0    0  0.19257826546E+02  0.47381825173E+02  0.19005330742E+03  0.21224521695E+03  0.79447285783E+02 0.  0.
          5    1    5    5  501    0 -0.95003517988E+02 -0.99083281613E+01  0.18596652119E+03  0.20911594966E+03  0.47000000000E+01 0. -1.
        -11    1    6    6    0    0  0.44491053862E+02  0.93959649798E+01  0.12315840766E+03  0.13128492453E+03  0.00000000000E+00 0.  1.
         12    1    6    6    0    0 -0.25233227316E+02  0.37985860193E+02  0.66894899764E+02  0.80960292427E+02  0.00000000000E+00 0. -1.
         -5    1    3    3    0  503  0.70521094121E+02 -0.73248896521E+02 -0.22655723002E+02  0.10427846059E+03  0.47000000000E+01 0.  1.
         11    1    4    4    0    0  0.15743564081E+02  0.18226355698E+02  0.25312300328E+02  0.34939553516E+02  0.00000000000E+00 0. -1.
        -12    1    4    4    0    0 -0.10518966760E+02  0.17549043811E+02 -0.56005575869E+02  0.59625851179E+02  0.00000000000E+00 0.  1.
</event>
<event>
12    1  0.8500177E-002  0.1813209E+03  0.7818608E-02  0.1166654E+00
         21   -1    0    0  503  502  0.00000000000E+00  0.00000000000E+00  0.24336690183E+03  0.24336690183E+03  0.00000000000E+00 0. -1.
         21   -1    0    0  501  503 -0.00000000000E+00 -0.00000000000E+00 -0.15858481993E+03  0.15858481993E+03  0.00000000000E+00 0. -1.
          6    2    1    2  501    0  0.39161568333E+02  0.41915728305E+02 -0.35533743181E+02  0.18476990930E+03  0.17200789448E+03 0.  0.
         24    2    3    3    0    0  0.61526835141E+02 -0.15247048656E+02  0.18446552524E+02  0.10289347463E+03  0.78922543592E+02 0.  0.
         -6    2    1    2    0  502 -0.39161568333E+02 -0.41915728305E+02  0.12031582507E+03  0.21718181246E+03  0.17146861283E+03 0.  0.
        -24    2    5    5    0    0 -0.26654710115E+02 -0.90742852734E+02  0.10987916241E+03  0.16549502972E+03  0.79815008838E+02 0.  0.
          5    1    3    3  501    0 -0.22365266808E+02  0.57162776961E+02 -0.53980295704E+02  0.81876434666E+02  0.47000000000E+01 0. -1.
        -11    1    4    4    0    0  0.71392602839E+02  0.12635570651E+01 -0.61517858117E+01  0.71668296933E+02  0.00000000000E+00 0.  1.
         12    1    4    4    0    0 -0.98657676985E+01 -0.16510605721E+02  0.24598338336E+02  0.31225177701E+02  0.00000000000E+00 0. -1.
         -5    1    5    5    0  502 -0.12506858218E+02  0.48827124429E+02  0.10436662660E+02  0.51686782739E+02  0.47000000000E+01 0.  1.
         13    1    6    6    0    0 -0.75491449851E+01  0.28624530135E+01  0.54447896106E+02  0.55043224993E+02  0.00000000000E+00 0. -1.
        -14    1    6    6    0    0 -0.19105565130E+02 -0.93605305748E+02  0.55431266308E+02  0.11045180473E+03  0.00000000000E+00 0.  1.
</event>
<event>
12    1  0.8500177E-002  0.2215648E+03  0.7818608E-02  0.1132990E+00
         21   -1    0    0  503  502  0.00000000000E+00  0.00000000000E+00  0.85451844075E+03  0.85451844075E+03  0.00000000000E+00 0.  1.
         21   -1    0    0  501  503 -0.00000000000E+00 -0.00000000000E+00 -0.60318866916E+02  0.60318866916E+02  0.00000000000E+00 0.  1.
          6    2    1    2  501    0  0.37404770801E+02 -0.13189556908E+03  0.50195254362E+03  0.54809584346E+03  0.17221248372E+03 0.  0.
         24    2    3    3    0    0  0.82630041837E+02 -0.48501794958E+02  0.29056309490E+03  0.31634719572E+03  0.80426912096E+02 0.  0.
         -6    2    1    2    0  502 -0.37404770801E+02  0.13189556908E+03  0.29224703022E+03  0.36674146421E+03  0.17405578668E+03 0.  0.
        -24    2    5    5    0    0  0.20119715938E+02  0.13688117481E+03  0.21071182076E+03  0.26672145011E+03  0.87175693600E+02 0.  0.
          5    1    3    3  501    0 -0.45225271036E+02 -0.83393774122E+02  0.21138944871E+03  0.23174864774E+03  0.47000000000E+01 0. -1.
        -13    1    4    4    0    0  0.33710220026E+02 -0.51514569148E+02  0.23175441798E+03  0.23979207665E+03  0.00000000000E+00 0.  1.
         14    1    4    4    0    0  0.48919821811E+02  0.30127741903E+01  0.58808676923E+02  0.76555119070E+02  0.00000000000E+00 0. -1.
         -5    1    5    5    0  502 -0.57524486739E+02 -0.49856057292E+01  0.81535209455E+02  0.10002001410E+03  0.47000000000E+01 0.  1.
         11    1    6    6    0    0  0.45940094431E+02  0.42018945119E+02  0.57930473498E+02  0.85041306346E+02  0.00000000000E+00 0. -1.
        -12    1    6    6    0    0 -0.25820378493E+02  0.94862229689E+02  0.15278134726E+03  0.18168014377E+03  0.00000000000E+00 0.  1.
</event>
<event>
12    1  0.8500177E-002  0.2020356E+03  0.7818608E-02  0.1149709E+00
         21   -1    0    0  501  502  0.00000000000E+00  0.00000000000E+00  0.17427710447E+04  0.17427710447E+04  0.00000000000E+00 0.  1.
         21   -1    0    0  502  503 -0.00000000000E+00 -0.00000000000E+00 -0.24139168152E+02  0.24139168152E+02  0.00000000000E+00 0. -1.
         -6    2    1    2    0  503 -0.51720574349E+01 -0.85557398280E+02  0.61436999447E+03  0.64431826350E+03  0.17420882872E+03 0.  0.
        -24    2    3    3    0    0 -0.31867659384E+01  0.11678538259E+02  0.17278007823E+03  0.19212083664E+03  0.83131923508E+02 0.  0.
          6    2    1    2  501    0  0.51720574349E+01  0.85557398280E+02  0.11042618821E+04  0.11225919493E+04  0.18295234884E+03 0.  0.
         24    2    5    5    0    0 -0.59516364038E+02  0.10396168180E+02  0.61369625742E+03  0.62208168524E+03  0.81928315219E+02 0.  0.
          5    1    5    5  501    0  0.64688421473E+02  0.75161230100E+02  0.49056562464E+03  0.50051026409E+03  0.47000000000E+01 0. -1.
        -13    1    6    6    0    0  0.18181685951E+02 -0.93484430054E+01  0.90601067375E+02  0.92879063842E+02  0.00000000000E+00 0.  1.
         14    1    6    6    0    0 -0.77698049989E+02  0.19744611186E+02  0.52309519004E+03  0.52920262139E+03  0.00000000000E+00 0. -1.
         -5    1    3    3    0  503 -0.19852914965E+01 -0.97235936539E+02  0.44158991624E+03  0.45219742686E+03  0.47000000000E+01 0.  1.
         11    1    4    4    0    0  0.16501918678E+02  0.36923567884E+02  0.14223097028E+03  0.14786923984E+03  0.00000000000E+00 0. -1.
        -12    1    4    4    0    0 -0.19688684616E+02 -0.25245029625E+02  0.30549107951E+02  0.44251596799E+02  0.00000000000E+00 0.  1.
</event>
<event>
12    1  0.8500177E-002  0.2351535E+03  0.7818608E-02  0.1123211E+00
         21   -1    0    0  501  502  0.00000000000E+00  0.00000000000E+00  0.40447437714E+02  0.40447437714E+02  0.00000000000E+00 0. -1.
         21   -1    0    0  502  503 -0.00000000000E+00 -0.00000000000E+00 -0.15785534714E+04  0.15785534714E+04  0.00000000000E+00 0. -1.
         -6    2    1    2    0  503 -0.26707078229E+02 -0.15604476893E+03 -0.46813212937E+03  0.52349129123E+03  0.17272001478E+03 0.  0.
        -24    2    3    3    0    0  0.48888264536E+02 -0.10381815044E+03 -0.27045882890E+03  0.30545666268E+03  0.83591410301E+02 0.  0.
          6    2    1    2  501    0  0.26707078229E+02  0.15604476893E+03 -0.10699739043E+04  0.10955096179E+04  0.17387906438E+03 0.  0.
         24    2    5    5    0    0  0.52356693364E+02  0.26525004182E+02 -0.36258449567E+03  0.37588809397E+03  0.79872044569E+02 0.  0.
          5    1    5    5  501    0 -0.25649615135E+02  0.12951976475E+03 -0.70738940864E+03  0.71962152390E+03  0.47000000000E+01 0. -1.
        -13    1    6    6    0    0  0.35368084427E+02 -0.25100603551E+02 -0.19276597871E+03  0.19758457491E+03  0.00000000000E+00 0.  1.
         14    1    6    6    0    0  0.16988608937E+02  0.51625607733E+02 -0.16981851695E+03  0.17830351906E+03  0.00000000000E+00 0. -1.
         -5    1    3    3    0  503 -0.75595342765E+02 -0.52226618489E+02 -0.19767330047E+03  0.21803462855E+03  0.47000000000E+01 0.  1.
         13    1    4    4    0    0  0.58409129633E+02 -0.26646561256E+02 -0.12447019884E+03  0.14005176204E+03  0.00000000000E+00 0. -1.
        -14    1    4    4    0    0 -0.95208650965E+01 -0.77171589183E+02 -0.14598863006E+03  0.16540490064E+03  0.00000000000E+00 0.  1.
</event>
<event>
12    1  0.8500177E-002  0.4860717E+03  0.7818608E-02  0.1017483E+00
         21   -1    0    0  501  502  0.00000000000E+00  0.00000000000E+00  0.18515468371E+03  0.18515468371E+03  0.00000000000E+00 0.  1.
         21   -1    0    0  502  503 -0.00000000000E+00 -0.00000000000E+00 -0.18313612953E+04  0.18313612953E+04  0.00000000000E+00 0. -1.
         -6    2    1    2    0  503  0.31110065949E+03 -0.33171422849E+03 -0.13783983789E+04  0.14615908451E+04  0.17160348983E+03 0.  0.
        -24    2    3    3    0    0  0.14888039050E+03 -0.11587792677E+03 -0.44543494730E+03  0.49033208474E+03  0.80126128470E+02 0.  0.
          6    2    1    2  501    0 -0.31110065949E+03  0.33171422849E+03 -0.26780823269E+03  0.55492513393E+03  0.17147216992E+03 0.  0.
         24    2    5    5    0    0 -0.12430805437E+03  0.11926914484E+03 -0.17030939278E+03  0.25567188887E+03  0.81763098024E+02 0.  0.
          5    1    5    5  501    0 -0.18679260512E+03  0.21244508365E+03 -0.97498839909E+02  0.29925324506E+03  0.47000000000E+01 0. -1.
        -11    1    6    6    0    0 -0.94235101710E+02  0.38124927625E+02 -0.71259652760E+02  0.12414387867E+03  0.00000000000E+00 0.  1.
         12    1    6    6    0    0 -0.30072952660E+02  0.81144217210E+02 -0.99049740015E+02  0.13152801019E+03  0.00000000000E+00 0. -1.
         -5    1    3    3    0  503  0.16222026899E+03 -0.21583630172E+03 -0.93296343163E+03  0.97125876036E+03  0.47000000000E+01 0.  1.
         11    1    4    4    0    0  0.87754505963E+02 -0.88502070156E+02 -0.36483623334E+03  0.38553721856E+03  0.00000000000E+00 0. -1.
        -12    1    4    4    0    0  0.61125884537E+02 -0.27375856612E+02 -0.80598713960E+02  0.10479486618E+03  0.00000000000E+00 0.  1.
</event>
<event>
12    1  0.8500177E-002  0.2064001E+03  0.7818608E-02  0.1145264E+00
         21   -1    0    0  501  502  0.00000000000E+00  0.00000000000E+00  0.29859928220E+03  0.29859928220E+03  0.00000000000E+00 0.  1.
         21   -1    0    0  502  503 -0.00000000000E+00 -0.00000000000E+00 -0.14469982770E+03  0.14469982770E+03  0.00000000000E+00 0. -1.
         -6    2    1    2    0  503  0.57321504933E+02 -0.90963441317E+02  0.11646507802E+03  0.23353174563E+03  0.17150177618E+03 0.  0.
        -24    2    3    3    0    0  0.34859730250E+02 -0.64425538835E+02 -0.34166615835E+01  0.10862172569E+03  0.80132108848E+02 0.  0.
          6    2    1    2  501    0 -0.57321504933E+02  0.90963441317E+02  0.37434376474E+02  0.20976736427E+03  0.17618431254E+03 0.  0.
         24    2    5    5    0    0  0.34094527052E+02  0.32950818063E+02  0.44247904783E+02  0.10118159389E+03  0.77663663826E+02 0.  0.
          5    1    5    5  501    0 -0.91416031984E+02  0.58012623254E+02 -0.68135283093E+01  0.10858577038E+03  0.47000000000E+01 0. -1.
        -11    1    6    6    0    0  0.29334400237E+02 -0.20803018637E+02  0.25371557945E+02  0.44011232364E+02  0.00000000000E+00 0.  1.
         12    1    6    6    0    0  0.47601268151E+01  0.53753836700E+02  0.18876346838E+02  0.57170361528E+02  0.00000000000E+00 0. -1.
         -5    1    3    3    0  503  0.22461774683E+02 -0.26537902483E+02  0.11988173961E+03  0.12491001994E+03  0.47000000000E+01 0.  1.
         13    1    4    4    0    0  0.52540829551E+02 -0.17837455187E+02  0.11379405393E+02  0.56641013802E+02  0.00000000000E+00 0. -1.
        -14    1    4    4    0    0 -0.17681099301E+02 -0.46588083647E+02 -0.14796066977E+02  0.51980711888E+02  0.00000000000E+00 0.  1.
</event>
<event>
12    1  0.8500177E-002  0.2130202E+03  0.7818608E-02  0.1139199E+00
         21   -1    0    0  501  502  0.00000000000E+00  0.00000000000E+00  0.46173144884E+03  0.46173144884E+03  0.00000000000E+00 0. -1.
         21   -1    0    0  502  503 -0.00000000000E+00 -0.00000000000E+00 -0.99485999075E+02  0.99485999075E+02  0.00000000000E+00 0.  1.
         -6    2    1    2    0  503  0.52767743465E+02 -0.11331326484E+03  0.15009478311E+03  0.26057563906E+03  0.17247286459E+03 0.  0.
        -24    2    3    3    0    0  0.12535197639E+02 -0.14206738924E+03  0.11448709169E+03  0.19945726947E+03  0.79596695372E+02 0.  0.
          6    2    1    2  501    0 -0.52767743465E+02  0.11331326484E+03  0.21215066665E+03  0.30064180885E+03  0.17249133638E+03 0.  0.
         24    2    5    5    0    0 -0.85241702086E+02  0.89005909157E+02  0.90279958189E+02  0.17211179247E+03  0.79270414514E+02 0.  0.
          5    1    5    5  501    0  0.32473958621E+02  0.24307355681E+02  0.12187070846E+03  0.12853001638E+03  0.47000000000E+01 0. -1.
        -13    1    6    6    0    0 -0.10023097068E+03  0.78673505919E+02  0.84953159228E+02  0.15314309413E+03  0.00000000000E+00 0.  1.
         14    1    6    6    0    0  0.14989268592E+02  0.10332403238E+02  0.53267989603E+01  0.18968698341E+02  0.00000000000E+00 0. -1.
         -5    1    3    3    0  503  0.40232545827E+02  0.28754124404E+02  0.35607691417E+02  0.61118369595E+02  0.47000000000E+01 0.  1.
         13    1    4    4    0    0 -0.24517697272E+02 -0.33953065296E+02  0.59156575202E+02  0.72480538851E+02  0.00000000000E+00 0. -1.
        -14    1    4    4    0    0  0.37052894910E+02 -0.10811432395E+03  0.55330516492E+02  0.12697673062E+03  0.00000000000E+00 0.  1.
</event>
<event>
12    1  0.8500177E-002  0.1798357E+03  0.7818608E-02  0.1168787E+00
         21   -1    0    0  503  502  0.00000000000E+00  0.00000000000E+00  0.13880151936E+02  0.13880151936E+02  0.00000000000E+00 0. -1.
         21   -1    0    0  501  503 -0.00000000000E+00 -0.00000000000E+00 -0.26335374326E+04  0.26335374326E+04  0.00000000000E+00 0. -1.
          6    2    1    2  501    0 -0.51020520263E+02  0.19417654914E+02 -0.84011096251E+03  0.85914335062E+03  0.17134972649E+03 0.  0.
         24    2    3    3    0    0 -0.84196393193E+02 -0.25330804721E+02 -0.66087172715E+03  0.67138857258E+03  0.79249563685E+02 0.  0.
         -6    2    1    2    0  502  0.51020520263E+02 -0.19417654914E+02 -0.17795463181E+04  0.17882742339E+04  0.16780792126E+03 0.  0.
        -24    2    5    5    0    0  0.58311125988E+02  0.36734572918E+02 -0.77480120985E+03  0.78192387332E+03  0.79614148361E+02 0.  0.
          5    1    3    3  501    0  0.33175872930E+02  0.44748459635E+02 -0.17923923536E+03  0.18775477804E+03  0.47000000000E+01 0. -1.
        -11    1    4    4    0    0  0.11157359274E+02 -0.91262900260E+01 -0.19775695533E+03  0.19828159072E+03  0.00000000000E+00 0.  1.
         12    1    4    4    0    0 -0.95353752467E+02 -0.16204514695E+02 -0.46311477182E+03  0.47310698185E+03  0.00000000000E+00 0. -1.
         -5    1    5    5    0  502 -0.72906057252E+01 -0.56152227831E+02 -0.10047451083E+04  0.10063503606E+04  0.47000000000E+01 0.  1.
         13    1    6    6    0    0  0.55108001458E+02  0.34002407411E+02 -0.29155368899E+03  0.29865801362E+03  0.00000000000E+00 0. -1.
        -14    1    6    6    0    0  0.32031245305E+01  0.27321655061E+01 -0.48324752086E+03  0.48326585970E+03  0.00000000000E+00 0.  1.
</event>
<event>
12    1  0.8500177E-002  0.1749590E+03  0.7818608E-02  0.1173049E+00
         21   -1    0    0  503  502  0.00000000000E+00  0.00000000000E+00  0.11542553078E+03  0.11542553078E+03  0.00000000000E+00 0. -1.
         21   -1    0    0  501  503 -0.00000000000E+00 -0.00000000000E+00 -0.38146062421E+03  0.38146062421E+03  0.00000000000E+00 0. -1.
          6    2    1    2  501    0  0.17447869905E+02  0.16691052149E+02 -0.27086251066E+03  0.32186058263E+03  0.17217640833E+03 0.  0.
         24    2    3    3    0    0  0.12731613036E+02 -0.48966213038E+02 -0.10701791357E+03  0.14522462495E+03  0.84128317928E+02 0.  0.
         -6    2    1    2    0  502 -0.17447869905E+02 -0.16691052149E+02  0.48274172229E+01  0.17502557236E+03  0.17328481652E+03 0.  0.
        -24    2    5    5    0    0  0.45076150823E+02  0.63355312369E+01 -0.34900572048E+02  0.97308908494E+02  0.78606459110E+02 0.  0.
          5    1    3    3  501    0  0.47162568692E+01  0.65657265187E+02 -0.16384459708E+03  0.17663595768E+03  0.47000000000E+01 0. -1.
        -13    1    4    4    0    0 -0.78775245625E+01 -0.13645621552E+02  0.11723217953E+02  0.19639048346E+02  0.00000000000E+00 0.  1.
         14    1    4    4    0    0  0.20609137599E+02 -0.35320591486E+02 -0.11874113153E+03  0.12558557661E+03  0.00000000000E+00 0. -1.
         -5    1    5    5    0  502 -0.62524020729E+02 -0.23026583386E+02  0.39727989271E+02  0.77716663863E+02  0.47000000000E+01 0.  1.
         13    1    6    6    0    0 -0.20836607450E+02 -0.96633195016E+01 -0.75826127973E+01  0.24187599522E+02  0.00000000000E+00 0. -1.
        -14    1    6    6    0    0  0.65912758273E+02  0.15998850738E+02 -0.27317959251E+02  0.73121308972E+02  0.00000000000E+00 0.  1.
</event>
<event>
12    1  0.8500177E-002  0.1826117E+03  0.7818608E-02  0.1165362E+00
         21   -1    0    0  503  502  0.00000000000E+00  0.00000000000E+00  0.11696384961E+03  0.11696384961E+03  0.00000000000E+00 0.  1.
         21   -1    0    0  501  503 -0.00000000000E+00 -0.00000000000E+00 -0.39937969385E+03  0.39937969385E+03  0.00000000000E+00 0.  1.
          6    2    1    2  501    0  0.33013295989E+02 -0.53191434829E+02 -0.27963072333E+03  0.33397661741E+03  0.17154542575E+03 0.  0.
         24    2    3    3    0    0  0.52139614731E+02 -0.86323683110E+02 -0.26098661452E+03  0.29116009329E+03  0.80559724872E+02 0.  0.
         -6    2    1    2    0  502 -0.33013295989E+02  0.53191434829E+02 -0.27851209099E+01  0.18236692606E+03  0.17126217437E+03 0.  0.
        -24    2    5    5    0    0  0.25279568659E+02 -0.23348963945E+02 -0.88034079204E+01  0.85853711977E+02  0.78160918370E+02 0.  0.
          5    1    3    3  501    0 -0.19126318742E+02  0.33132248281E+02 -0.18644108802E+02  0.42816524121E+02  0.47000000000E+01 0. -1.
        -11    1    4    4    0    0  0.34488768902E+02 -0.22845121097E+02 -0.18941199880E+03  0.19387697137E+03  0.00000000000E+00 0.  1.
         12    1    4    4    0    0  0.17650845829E+02 -0.63478562013E+02 -0.71574615727E+02  0.97283121918E+02  0.00000000000E+00 0. -1.
         -5    1    5    5    0  502 -0.58292864648E+02  0.76540398774E+02  0.60182870104E+01  0.96513214079E+02  0.47000000000E+01 0.  1.
         11    1    6    6    0    0  0.40637833877E+02  0.77459516867E+01 -0.24179008384E+02  0.47917196873E+02  0.00000000000E+00 0. -1.
        -12    1    6    6    0    0 -0.15358265218E+02 -0.31094915632E+02  0.15375600464E+02  0.37936515104E+02  0.00000000000E+00 0.  1.
</event>
<event>
12    1  0.8500177E-002  0.2093592E+03  0.7818608E-02  0.1142097E+00
         21   -1    0    0  501  502  0.00000000000E+00  0.00000000000E+00  0.56450507361E+03  0.56450507361E+03  0.00000000000E+00 0.  1.
         21   -1    0    0  502  503 -0.00000000000E+00 -0.00000000000E+00 -0.91967977219E+02  0.91967977219E+02  0.00000000000E+00 0.  1.
         -6    2    1    2    0  503  0.33645011831E+01  0.11946296424E+03  0.36593786364E+03  0.42153754617E+03  0.17175757069E+03 0.  0.
        -24    2    3    3    0    0  0.64286687099E+01  0.10166682923E+03  0.12502475425E+03  0.17990288843E+03  0.79726959951E+02 0.  0.
          6    2    1    2  501    0 -0.33645011831E+01 -0.11946296424E+03  0.10659923275E+03  0.23493550466E+03  0.17189699018E+03 0.  0.
         24    2    5    5    0    0  0.62234969734E+02 -0.56071996999E+02  0.50472804184E+02  0.12772556437E+03  0.82152635544E+02 0.  0.
          5    1    5    5  501    0 -0.65599470917E+02 -0.63390967244E+02  0.56126428563E+02  0.10720994029E+03  0.47000000000E+01 0. -1.
        -13    1    6    6    0    0  0.13429556418E+02  0.21686258598E+02  0.10099813418E+02  0.27434522570E+02  0.00000000000E+00 0.  1.
         14    1    6    6    0    0  0.48805413315E+02 -0.77758255597E+02  0.40372990766E+02  0.10029104180E+03  0.00000000000E+00 0. -1.
         -5    1    3    3    0  503 -0.30641675268E+01  0.17796135011E+02  0.24091310939E+03  0.24163465774E+03  0.47000000000E+01 0.  1.
         13    1    4    4    0    0 -0.27087552617E+01  0.10642083125E+03  0.13035863414E+03  0.16830360713E+03  0.00000000000E+00 0. -1.
        -14    1    4    4    0    0  0.91374239716E+01 -0.47540020190E+01 -0.53338798864E+01  0.11599281300E+02  0.00000000000E+00 0.  1.
</event>
<event>
12    1  0.8500177E-002  0.1774836E+03  0.7818608E-02  0.1170315E+00
         21   -1    0    0  501  502  0.00000000000E+00  0.00000000000E+00  0.14996119372E+03  0.14996119372E+03  0.00000000000E+00 0.  1.
         21   -1    0    0  502  503 -0.00000000000E+00 -0.00000000000E+00 -0.40076128654E+03  0.40076128654E+03  0.00000000000E+00 0.  1.
         -6    2    1    2    0  503 -0.20607626027E+02  0.38291426746E+02 -0.31543884497E+03  0.36183467881E+03  0.17184807901E+03 0.  0.
        -24    2    3    3    0    0 -0.76817005503E+02  0.30420306126E+02 -0.25028758390E+03  0.27530014409E+03  0.79498725269E+02 0.  0.
          6    2    1    2  501    0  0.20607626027E+02 -0.38291426746E+02  0.64638752149E+02  0.18888780145E+03  0.17207418646E+03 0.  0.
         24    2    5    5    0    0  0.36306355877E+02 -0.64083040744E+02 -0.90200056915E+01  0.10914220547E+03  0.80036697361E+02 0.  0.
          5    1    5    5  501    0 -0.15698729850E+02  0.25791613999E+02  0.73658757840E+02  0.79745595980E+02  0.47000000000E+01 0. -1.
        -11    1    6    6    0    0  0.15058879644E+02 -0.35448741729E+02  0.35310411934E+02  0.52251395552E+02  0.00000000000E+00 0.  1.
         12    1    6    6    0    0  0.21247476234E+02 -0.28634299016E+02 -0.44330417625E+02  0.56890809919E+02  0.00000000000E+00 0. -1.
         -5    1    3    3    0  503  0.56209379476E+02  0.78711206198E+01 -0.65151261066E+02  0.86534534721E+02  0.47000000000E+01 0.  1.
         11    1    4    4    0    0  0.73754556662E+01  0.12047593388E+02 -0.10823589770E+03  0.10915379702E+03  0.00000000000E+00 0. -1.
        -12    1    4    4    0    0 -0.84192461169E+02  0.18372712738E+02 -0.14205168620E+03  0.16614634707E+03  0.00000000000E+00 0.  1.
</event>
<event>
12    1  0.8500177E-002  0.1976917E+03  0.7818608E-02  0.1152153E+00
         21   -1    0    0  501  502  0.00000000000E+00  0.00000000000E+00  0.89463860963E+02  0.89463860963E+02  0.00000000000E+00 0. -1.
         21   -1    0    0  502  503 -0.00000000000E+00 -0.00000000000E+00 -0.66170933286E+03  0.66170933286E+03  0.00000000000E+00 0.  1.
         -6    2    1    2    0  503 -0.64137487858E+02 -0.67207747258E+02 -0.50830372549E+03  0.54539407635E+03  0.17450364618E+03 0.  0.
        -24    2    3    3    0    0 -0.93816716008E+02 -0.25799084067E+02 -0.22853407350E+03  0.26098471970E+03  0.80112622153E+02 0.  0.
          6    2    1    2  501    0  0.64137487858E+02  0.67207747258E+02 -0.63941746408E+02  0.20577911748E+03  0.17212204860E+03 0.  0.
         24    2    5    5    0    0 -0.90108124986E+01 -0.52145281593E+01 -0.60463306027E+02  0.10267795662E+03  0.82332043305E+02 0.  0.
          5    1    5    5  501    0  0.73148300357E+02  0.72422275417E+02 -0.34784403806E+01  0.10310116085E+03  0.47000000000E+01 0. -1.
        -13    1    6    6    0    0 -0.37844985109E+02 -0.17523885046E+02 -0.93895638558E+01  0.42749191272E+02  0.00000000000E+00 0.  1.
         14    1    6    6    0    0  0.28834172611E+02  0.12309356887E+02 -0.51073742171E+02  0.59928765351E+02  0.00000000000E+00 0. -1.
         -5    1    3    3    0  503  0.29679228150E+02 -0.41408663190E+02 -0.27976965200E+03  0.28440935665E+03  0.47000000000E+01 0.  1.
         11    1    4    4    0    0  0.10157593508E+02  0.11067040563E+02 -0.37324980928E+02  0.40234441639E+02  0.00000000000E+00 0. -1.
        -12    1    4    4    0    0 -0.10397430952E+03 -0.36866124630E+02 -0.19120909257E+03  0.22075027806E+03  0.00000000000E+00 0.  1.
</event>
<event>
12    1  0.8500177E-002  0.1792050E+03  0.7818608E-02  0.1169429E+00
         21   -1    0    0  503  502  0.00000000000E+00  0.00000000000E+00  0.24409200780E+03  0.24409200780E+03  0.00000000000E+00 0.  1.
         21   -1    0    0  501  503 -0.00000000000E+00 -0.00000000000E+00 -0.17422075982E+03  0.17422075982E+03  0.00000000000E+00 0.  1.
          6    2    1    2  501    0  0.36484541196E+02 -0.32736191235E+02 -0.71839678421E+02  0.18984741510E+03  0.16875521225E+03 0.  0.
         24    2    3    3    0    0 -0.42454579996E+02 -0.28524795740E+02 -0.27112936918E+02  0.98898571721E+02  0.80185789299E+02 0.  0.
         -6    2    1    2    0  502 -0.36484541196E+02  0.32736191235E+02  0.14171092639E+03  0.22846535252E+03  0.17237067814E+03 0.  0.
        -24    2    5    5    0    0 -0.24999630573E+02  0.25853463457E+02  0.14562387253E+01  0.87494637384E+02  0.79748403359E+02 0.  0.
          5    1    3    3  501    0  0.78939121191E+02 -0.42113954945E+01 -0.44726741503E+02  0.90948843379E+02  0.47000000000E+01 0. -1.
        -13    1    4    4    0    0 -0.11840620951E+02 -0.53956390479E+02 -0.17626470139E+02  0.57984349850E+02  0.00000000000E+00 0.  1.
         14    1    4    4    0    0 -0.30613959045E+02  0.25431594739E+02 -0.94864667784E+01  0.40914221870E+02  0.00000000000E+00 0. -1.
         -5    1    5    5    0  502 -0.11484910623E+02  0.68827277777E+01  0.14025468767E+03  0.14097071514E+03  0.47000000000E+01 0.  1.
         11    1    6    6    0    0  0.13060509970E+02 -0.61850454678E+01  0.27703135716E+02  0.31245726693E+02  0.00000000000E+00 0. -1.
        -12    1    6    6    0    0 -0.38060140543E+02  0.32038508925E+02 -0.26246896991E+02  0.56248910691E+02  0.00000000000E+00 0.  1.
</event>
<event>
12    1  0.8500177E-002  0.1920904E+03  0.7818608E-02  0.1156666E+00
         21   -1    0    0  503  502  0.00000000000E+00  0.00000000000E+00  0.56641882319E+02  0.56641882319E+02  0.00000000000E+00 0.  1.
         21   -1    0    0  501  503 -0.00000000000E+00 -0.00000000000E+00 -0.79598792040E+03  0.79598792040E+03  0.00000000000E+00 0.  1.
          6    2    1    2  501    0 -0.77662012991E+02  0.32461040572E+02 -0.55234469188E+03  0.58479343968E+03  0.17266615482E+03 0.  0.
         24    2    3    3    0    0 -0.10662771723E+03 -0.10589479477E+01 -0.49307673620E+03  0.51064910596E+03  0.79165966032E+02 0.  0.
         -6    2    1    2    0  502  0.77662012991E+02 -0.32461040572E+02 -0.18700134620E+03  0.26783636304E+03  0.17228379631E+03 0.  0.
        -24    2    5    5    0    0 -0.19954396434E+02 -0.47617043539E+02 -0.11207938943E+03  0.14376357223E+03  0.73760520551E+02 0.  0.
          5    1    3    3  501    0  0.28965704237E+02  0.33519988519E+02 -0.59267955682E+02  0.74144333721E+02  0.47000000000E+01 0. -1.
        -11    1    4    4    0    0  0.32013023381E+01  0.17559701221E+02 -0.35844740409E+02  0.40042937687E+02  0.00000000000E+00 0.  1.
         12    1    4    4    0    0 -0.10982901957E+03 -0.18618649168E+02 -0.45723199579E+03  0.47060616827E+03  0.00000000000E+00 0. -1.
         -5    1    5    5    0  502  0.97616409425E+02  0.15156002968E+02 -0.74921956765E+02  0.12407279081E+03  0.47000000000E+01 0.  1.
         11    1    6    6    0    0 -0.36956120344E+02 -0.37040288415E+02 -0.32255559144E+02  0.61466729964E+02  0.00000000000E+00 0. -1.
        -12    1    6    6    0    0  0.17001723910E+02 -0.10576755125E+02 -0.79823830289E+02  0.82296842265E+02  0.00000000000E+00 0.  1.
</event>
<event>
12    1  0.8500177E-002  0.2367740E+03  0.7818608E-02  0.1122307E+00
         21   -1    0    0  501  502  0.00000000000E+00  0.00000000000E+00  0.60648385727E+02  0.60648385727E+02  0.00000000000E+00 0. -1.
         21   -1    0    0  502  503 -0.00000000000E+00 -0.00000000000E+00 -0.98015093292E+03  0.98015093292E+03  0.00000000000E+00 0.  1.
         -6    2    1    2    0  503  0.13656488591E+03 -0.80608818999E+02 -0.59056749870E+03  0.63550907229E+03  0.17307241457E+03 0.  0.
        -24    2    3    3    0    0  0.25608539366E+02  0.14530010682E+02 -0.15574240711E+03  0.17675242872E+03  0.78222791985E+02 0.  0.
          6    2    1    2  501    0 -0.13656488591E+03  0.80608818999E+02 -0.32893504849E+03  0.40529024635E+03  0.17582425287E+03 0.  0.
         24    2    5    5    0    0 -0.48484418781E+02  0.65288731529E+02 -0.28207149795E+03  0.30423998094E+03  0.79901681582E+02 0.  0.
          5    1    5    5  501    0 -0.88080467128E+02  0.15320087469E+02 -0.46863550543E+02  0.10105026541E+03  0.47000000000E+01 0. -1.
        -13    1    6    6    0    0 -0.65915317889E+02  0.36314110330E+02 -0.14883239473E+03  0.16677717309E+03  0.00000000000E+00 0.  1.
         14    1    6    6    0    0  0.17430899108E+02  0.28974621200E+02 -0.13323910322E+03  0.13746280785E+03  0.00000000000E+00 0. -1.
         -5    1    3    3    0  503  0.11095634654E+03 -0.95138829681E+02 -0.43482509158E+03  0.45875664357E+03  0.47000000000E+01 0.  1.
         13    1    4    4    0    0  0.26013701577E+02  0.45519646480E+02 -0.92524878002E+02  0.10634662164E+03  0.00000000000E+00 0. -1.
        -14    1    4    4    0    0 -0.40516221134E+00 -0.30989635797E+02 -0.63217529112E+02  0.70405807078E+02  0.00000000000E+00 0.  1.
</event>
<event>
12    1  0.8500177E-002  0.2040979E+03  0.7818608E-02  0.1146721E+00
         21   -1    0    0  501  502  0.00000000000E+00  0.00000000000E+00  0.57786494043E+03  0.57786494043E+03  0.00000000000E+00 0. -1.
         21   -1    0    0  502  503 -0.00000000000E+00 -0.00000000000E+00 -0.15467655559E+03  0.15467655559E+03  0.00000000000E+00 0.  1.
         -6    2    1    2    0  503  0.95700248796E+02  0.43830277146E+02 -0.57594610362E+02  0.21023102819E+03  0.17262767813E+03 0.  0.
        -24    2    3    3    0    0  0.52849149504E+02 -0.39688220125E+02 -0.57643154357E+01  0.10289964615E+03  0.78656992226E+02 0.  0.
          6    2    1    2  501    0 -0.95700248796E+02 -0.43830277146E+02  0.48078299521E+03  0.52231046783E+03  0.17486081753E+03 0.  0.
         24    2    5    5    0    0 -0.22038380409E+02 -0.66270327846E+02  0.15886798430E+03  0.19128027135E+03  0.80446623362E+02 0.  0.
          5    1    5    5  501    0 -0.73661868387E+02  0.22440050700E+02  0.32191501091E+03  0.33103019648E+03  0.47000000000E+01 0. -1.
        -11    1    6    6    0    0  0.65090051302E+01 -0.58506714424E+02  0.46312130343E+02  0.74901376472E+02  0.00000000000E+00 0.  1.
         12    1    6    6    0    0 -0.28547385539E+02 -0.77636134226E+01  0.11255585395E+03  0.11637889488E+03  0.00000000000E+00 0. -1.
         -5    1    3    3    0  503  0.42851099292E+02  0.83518497271E+02 -0.51830294926E+02  0.10733138203E+03  0.47000000000E+01 0.  1.
         13    1    4    4    0    0  0.70696211630E+02 -0.42577643561E+02 -0.12771052440E+02  0.83509938633E+02  0.00000000000E+00 0. -1.
        -14    1    4    4    0    0 -0.17847062126E+02  0.28894234354E+01  0.70067370041E+01  0.19389707521E+02  0.00000000000E+00 0.  1.
</event>
<event>
12    1  0.8500177E-002  0.1862323E+03  0.7818608E-02  0.1162314E+00
         21   -1    0    0  501  502  0.00000000000E+00  0.00000000000E+00  0.90850362496E+03  0.90850362496E+03  0.00000000000E+00 0.  1.
         21   -1    0    0  502  503 -0.00000000000E+00 -0.00000000000E+00 -0.40150100890E+02  0.40150100890E+02  0.00000000000E+00 0.  1.
         -6    2    1    2    0  503 -0.23639674692E+01 -0.66606328360E+02  0.54662364707E+03  0.57691110066E+03  0.17200876494E+03 0.  0.
        -24    2    3    3    0    0  0.64420417094E+02 -0.54679861977E+02  0.31210827958E+03  0.33273505309E+03  0.78493056550E+02 0.  0.
          6    2    1    2  501    0  0.23639674692E+01  0.66606328360E+02  0.32172987701E+03  0.37174262519E+03  0.17389788471E+03 0.  0.
         24    2    5    5    0    0 -0.13283843202E+02  0.21648717238E+01  0.57627165549E+02  0.99401134574E+02  0.79865813622E+02 0.  0.
          5    1    5    5  501    0  0.15647810671E+02  0.64441456636E+02  0.26410271146E+03  0.27234149062E+03  0.47000000000E+01 0. -1.
        -11    1    6    6    0    0 -0.45173827286E+02  0.51197015231E+01  0.47643999977E+02  0.65854663837E+02  0.00000000000E+00 0.  1.
         12    1    6    6    0    0  0.31889984084E+02 -0.29548297993E+01  0.99831655721E+01  0.33546470736E+02  0.00000000000E+00 0. -1.
         -5    1    3    3    0  503 -0.66784384563E+02 -0.11926466383E+02  0.23451536749E+03  0.24417604757E+03  0.47000000000E+01 0.  1.
         13    1    4    4    0    0  0.90457430165E+01  0.39805509103E+01 -0.49097209044E+00  0.98950141922E+01  0.00000000000E+00 0. -1.
        -14    1    4    4    0    0  0.55374674078E+02 -0.58660412887E+02  0.31259925167E+03  0.32284003890E+03  0.00000000000E+00 0.  1.
</event>
<event>
12    1  0.8500177E-002  0.1924583E+03  0.7818608E-02  0.1156984E+00
         21   -1    0    0  501  502  0.00000000000E+00  0.00000000000E+00  0.97183449201E+03  0.97183449201E+03  0.00000000000E+00 0. -1.
         21   -1    0    0  502  503 -0.00000000000E+00 -0.00000000000E+00 -0.45460526114E+02  0.45460526114E+02  0.00000000000E+00 0. -1.
         -6    2    1    2    0  503 -0.63733005354E+02 -0.57128526032E+02  0.25327714552E+03  0.31810300644E+03  0.17237936594E+03 0.  0.
        -24    2    3    3    0    0 -0.16008847438E+02  0.33686255958E+02  0.13777159716E+03  0.16354382172E+03  0.79840601226E+02 0.  0.
          6    2    1    2  501    0  0.63733005354E+02  0.57128526032E+02  0.67309682037E+03  0.69919201168E+03  0.16877373951E+03 0.  0.
         24    2    5    5    0    0  0.13083370621E+02  0.12503320934E+02  0.13505378384E+03  0.15691054087E+03  0.77806720051E+02 0.  0.
          5    1    5    5  501    0  0.50649634733E+02  0.44625205098E+02  0.53804303653E+03  0.54228147081E+03  0.47000000000E+01 0. -1.
        -11    1    6    6    0    0 -0.10967086361E+02 -0.16678432102E+02  0.38022522481E+01  0.20320044360E+02  0.00000000000E+00 0.  1.
         12    1    6    6    0    0  0.24050456982E+02  0.29181753036E+02  0.13125153159E+03  0.13659049651E+03  0.00000000000E+00 0. -1.
         -5    1    3    3    0  503 -0.47724157916E+02 -0.90814781989E+02  0.11550554837E+03  0.15455918472E+03  0.47000000000E+01 0.  1.
         11    1    4    4    0    0 -0.27469174478E+02  0.86042821978E+01  0.66361441983E+01  0.29540271300E+02  0.00000000000E+00 0. -1.
        -12    1    4    4    0    0  0.11460327040E+02  0.25081973760E+02  0.13113545296E+03  0.13400355042E+03  0.00000000000E+00 0.  1.
</event>
<event>
12    1  0.8500177E-002  0.1820051E+03  0.7818608E-02  0.1166239E+00
         21   -1    0    0  501  502  0.00000000000E+00  0.00000000000E+00  0.34564259162E+03  0.34564259162E+03  0.00000000000E+00 0. -1.
         21   -1    0    0  502  503 -0.00000000000E+00 -0.00000000000E+00 -0.18880688492E+03  0.18880688492E+03  0.00000000000E+00 0. -1.
         -6    2    1    2    0  503  0.11276629715E+02  0.52932859153E+02 -0.10973087192E+03  0.21252460441E+03  0.17377224540E+03 0.  0.
        -24    2    3    3    0    0 -0.45660094647E+02 -0.17418482157E+02 -0.40631404671E+02  0.98560012629E+02  0.75332046832E+02 0.  0.
          6    2    1    2  501    0 -0.11276629715E+02 -0.52932859153E+02  0.26656657862E+03  0.32192487214E+03  0.17218836345E+03 0.  0.
         24    2    5    5    0    0  0.24783898884E+02  0.88134582772E+01  0.22269056513E+03  0.23790009009E+03  0.79457198373E+02 0.  0.
          5    1    5    5  501    0 -0.36060528599E+02 -0.61746317430E+02  0.43876013484E+02  0.84024782048E+02  0.47000000000E+01 0. -1.
        -13    1    6    6    0    0  0.16650312285E+02 -0.50698456062E+01  0.30491994582E+01  0.17670140095E+02  0.00000000000E+00 0.  1.
         14    1    6    6    0    0  0.81335865994E+01  0.13883303883E+02  0.21964136568E+03  0.22022994999E+03  0.00000000000E+00 0. -1.
         -5    1    3    3    0  503  0.56936724362E+02  0.70351341310E+02 -0.69099467248E+02  0.11396459178E+03  0.47000000000E+01 0.  1.
         13    1    4    4    0    0 -0.66730248299E+02 -0.10123245714E+02 -0.30944061543E+02  0.74249182397E+02  0.00000000000E+00 0. -1.
        -14    1    4    4    0    0  0.21070153652E+02 -0.72952364430E+01 -0.96873431279E+01  0.24310830231E+02  0.00000000000E+00 0.  1.
</event>
<event>
12    1  0.8500177E-002  0.1751649E+03  0.7818608E-02  0.1173419E+00
         21   -1    0    0  501  502  0.00000000000E+00  0.00000000000E+00  0.66332623397E+03  0.66332623397E+03  0.00000000000E+00 0.  1.
         21   -1    0    0  502  503 -0.00000000000E+00 -0.00000000000E+00 -0.52581376442E+02  0.52581376442E+02  0.00000000000E+00 0.  1.
         -6    2    1    2    0  503  0.23506412089E+02 -0.25644800812E+02  0.44047048102E+03  0.47402215518E+03  0.17167571678E+03 0.  0.
        -24    2    3    3    0    0  0.35514119155E+02 -0.77401179560E+02  0.25888915355E+03  0.28476894845E+03  0.82568546805E+02 0.  0.
          6    2    1    2  501    0 -0.23506412089E+02  0.25644800812E+02  0.17027437652E+03  0.24188545524E+03  0.16824090745E+03 0.  0.
         24    2    5    5    0    0 -0.43006120132E+02  0.42586241308E+02  0.38138050198E+02  0.10716593270E+03  0.79792931651E+02 0.  0.
          5    1    5    5  501    0  0.19499708043E+02 -0.16941440496E+02  0.13213632632E+03  0.13471952254E+03  0.47000000000E+01 0. -1.
        -13    1    6    6    0    0  0.11678426974E+02  0.13274834419E+02 -0.16729353818E+02  0.24340874360E+02  0.00000000000E+00 0.  1.
         14    1    6    6    0    0 -0.54684547106E+02  0.29311406889E+02  0.54867404016E+02  0.82825058343E+02  0.00000000000E+00 0. -1.
         -5    1    3    3    0  503 -0.12007707065E+02  0.51756378749E+02  0.18158132747E+03  0.18925320672E+03  0.47000000000E+01 0.  1.
         11    1    4    4    0    0  0.39868647916E+02  0.91164143698E+00  0.77856777821E+02  0.87475813969E+02  0.00000000000E+00 0. -1.
        -12    1    4    4    0    0 -0.43545287616E+01 -0.78312820997E+02  0.18103237573E+03  0.19729313448E+03  0.00000000000E+00 0.  1.
</event>
<event>
12    1  0.8500177E-002  0.2290857E+03  0.7818608E-02  0.1127830E+00
         21   -1    0    0  501  502  0.00000000000E+00  0.00000000000E+00  0.10585100289E+03  0.10585100289E+03  0.00000000000E+00 0. -1.
         21   -1    0    0  502  503 -0.00000000000E+00 -0.00000000000E+00 -0.49296820022E+03  0.49296820022E+03  0.00000000000E+00 0.  1.
         -6    2    1    2    0  503 -0.12980070680E+03 -0.69463910379E+02 -0.16608895707E+03  0.28048962218E+03  0.17150926552E+03 0.  0.
        -24    2    3    3    0    0 -0.26210256403E+02 -0.47289539355E+02 -0.15867063893E+02  0.96610881339E+02  0.78476879420E+02 0.  0.
          6    2    1    2  501    0  0.12980070680E+03  0.69463910379E+02 -0.22102824027E+03  0.31832958093E+03  0.17551860519E+03 0.  0.
         24    2    5    5    0    0  0.74199880845E+02  0.75975007591E+01 -0.20733400220E+03  0.23389897841E+03  0.78472920775E+02 0.  0.
          5    1    5    5  501    0  0.55600825956E+02  0.61866409620E+02 -0.13694238062E+02  0.84430602523E+02  0.47000000000E+01 0. -1.
        -11    1    6    6    0    0  0.80891760262E+02  0.10073577291E+02 -0.21076641073E+03  0.22598104728E+03  0.00000000000E+00 0.  1.
         12    1    6    6    0    0 -0.66918794172E+01 -0.24760765318E+01  0.34324085226E+01  0.79179311308E+01  0.00000000000E+00 0. -1.
         -5    1    3    3    0  503 -0.10359045040E+03 -0.22174371025E+02 -0.15022189317E+03  0.18387874084E+03  0.47000000000E+01 0.  1.
         13    1    4    4    0    0 -0.30122514389E+02 -0.62653902102E+02  0.58024220387E+01  0.69760629464E+02  0.00000000000E+00 0. -1.
        -14    1    4    4    0    0  0.39122579859E+01  0.15364362748E+02 -0.21669485932E+02  0.26850251875E+02  0.00000000000E+00 0.  1.
</event>
<event>
12    1  0.8500177E-002  0.2026891E+03  0.7818608E-02  0.1147533E+00
         21   -1    0    0  503  502  0.00000000000E+00  0.00000000000E+00  0.66469325818E+03  0.66469325818E+03  0.00000000000E+00 0.  1.
         21   -1    0    0  501  503 -0.00000000000E+00 -0.00000000000E+00 -0.32584146810E+03  0.32584146810E+03  0.00000000000E+00 0.  1.
          6    2    1    2  501    0  0.40955719670E+02 -0.99481923638E+02 -0.27643854610E+03  0.34278438396E+03  0.17178137272E+03 0.  0.
         24    2    3    3    0    0  0.35780230701E+02 -0.23093625476E+02 -0.24300604867E+03  0.25910774644E+03  0.79191818572E+02 0.  0.
         -6    2    1    2    0  502 -0.40955719670E+02  0.99481923638E+02  0.61529033618E+03  0.64775034231E+03  0.17153508117E+03 0.  0.
        -24    2    5    5    0    0  0.10295190315E+02  0.82170892983E+01  0.16541202286E+03  0.18583204591E+03  0.83659431505E+02 0.  0.
          5    1    3    3  501    0  0.51754889687E+01 -0.76388298162E+02 -0.33432497424E+02  0.83676637517E+02  0.47000000000E+01 0. -1.
        -13    1    4    4    0    0  0.36213803686E+02 -0.43685850375E+02 -0.22402132972E+03  0.23109619052E+03  0.00000000000E+00 0.  1.
         14    1    4    4    0    0 -0.43357298466E+00  0.20592224899E+02 -0.18984718950E+02  0.28011555927E+02  0.00000000000E+00 0. -1.
         -5    1    5    5    0  502 -0.51250909985E+02  0.91264834339E+02  0.44987831332E+03  0.46191829641E+03  0.47000000000E+01 0.  1.
         11    1    6    6    0    0 -0.20471986482E+02  0.35936189200E+02  0.10232527087E+03  0.11036744531E+03  0.00000000000E+00 0. -1.
        -12    1    6    6    0    0  0.30767176797E+02 -0.27719099902E+02  0.63086751988E+02  0.75464600601E+02  0.00000000000E+00 0.  1.
</event>
<event>
12    1  0.8500177E-002  0.2753319E+03  0.7818608E-02  0.1099190E+00
         21   -1    0    0  501  502  0.00000000000E+00  0.00000000000E+00  0.18443174951E+03  0.18443174951E+03  0.00000000000E+00 0. -1.
         21   -1    0    0  502  503 -0.00000000000E+00 -0.00000000000E+00 -0.82690283988E+03  0.82690283988E+03  0.00000000000E+00 0.  1.
         -6    2    1    2    0  503 -0.18794231730E+03 -0.10408488652E+03  0.43384723348E+02  0.27227719145E+03  0.16154459611E+03 0.  0.
        -24    2    3    3    0    0 -0.50558709007E+02 -0.89579473868E+02  0.22632741629E+02  0.13250095038E+03  0.80396490367E+02 0.  0.
          6    2    1    2  501    0  0.18794231730E+03  0.10408488652E+03 -0.68585581372E+03  0.73905739793E+03  0.17219657951E+03 0.  0.
         24    2    5    5    0    0  0.58989169282E+02  0.52460472644E+01 -0.29350787201E+03  0.31437277625E+03  0.95792110390E+02 0.  0.
          5    1    5    5  501    0  0.12895314802E+03  0.98838839251E+02 -0.39234794171E+03  0.42468462168E+03  0.47000000000E+01 0. -1.
        -13    1    6    6    0    0  0.28191964247E+02  0.50378119856E+02 -0.16127898328E+03  0.17129988983E+03  0.00000000000E+00 0.  1.
         14    1    6    6    0    0  0.30797205035E+02 -0.45132072592E+02 -0.13222888873E+03  0.14307288642E+03  0.00000000000E+00 0. -1.
         -5    1    3    3    0  503 -0.13738360829E+03 -0.14505412647E+02  0.20751981719E+02  0.13977624107E+03  0.47000000000E+01 0.  1.
         13    1    4    4    0    0 -0.63392112379E+02 -0.81144522170E+02 -0.25528732772E+01  0.10300247838E+03  0.00000000000E+00 0. -1.
        -14    1    4    4    0    0  0.12833403373E+02 -0.84349516979E+01  0.25185614906E+02  0.29498472002E+02  0.00000000000E+00 0.  1.
</event>
<event>
12    1  0.8500177E-002  0.1940921E+03  0.7818608E-02  0.1157228E+00
         21   -1    0    0  503  502  0.00000000000E+00  0.00000000000E+00  0.11718941833E+04  0.11718941833E+04  0.00000000000E+00 0. -1.
         21   -1    0    0  501  503 -0.00000000000E+00 -0.00000000000E+00 -0.11490600801E+03  0.11490600801E+03  0.00000000000E+00 0. -1.
          6    2    1    2  501    0  0.22435845491E+02 -0.58518684327E+02 -0.27132661199E+02  0.18544206163E+03  0.17240873916E+03 0.  0.
         24    2    3    3    0    0  0.23804289397E+02 -0.48224828681E+02  0.48702802132E+02  0.10875475107E+03  0.81014533569E+02 0.  0.
         -6    2    1    2    0  502 -0.22435845491E+02  0.58518684327E+02  0.10841208364E+04  0.11013581296E+04  0.18369523162E+03 0.  0.
        -24    2    5    5    0    0  0.44413997855E+02 -0.10205842282E+02  0.71695205080E+03  0.72184927696E+03  0.70493780337E+02 0.  0.
          5    1    3    3  501    0 -0.13684439061E+01 -0.10293855646E+02 -0.75835463331E+02  0.76687310563E+02  0.47000000000E+01 0. -1.
        -13    1    4    4    0    0 -0.25957700666E+02 -0.10746399018E+02  0.35155116132E+02  0.45001883360E+02  0.00000000000E+00 0.  1.
         14    1    4    4    0    0  0.49761990063E+02 -0.37478429663E+02  0.13547686000E+02  0.63752867708E+02  0.00000000000E+00 0. -1.
         -5    1    5    5    0  502 -0.66849843346E+02  0.68724526608E+02  0.36716878564E+03  0.37950885268E+03  0.47000000000E+01 0.  1.
         11    1    6    6    0    0  0.57648625558E+02 -0.28944717139E+01  0.36179518378E+03  0.36637070980E+03  0.00000000000E+00 0. -1.
        -12    1    6    6    0    0 -0.13234627703E+02 -0.73113705676E+01  0.35515686703E+03  0.35547856715E+03  0.00000000000E+00 0.  1.
</event>
<event>
12    1  0.8500177E-002  0.2287562E+03  0.7818608E-02  0.1127882E+00
         21   -1    0    0  503  502  0.00000000000E+00  0.00000000000E+00  0.12401173351E+04  0.12401173351E+04  0.00000000000E+00 0. -1.
         21   -1    0    0  501  503 -0.00000000000E+00 -0.00000000000E+00 -0.50549574216E+02  0.50549574216E+02  0.00000000000E+00 0. -1.
          6    2    1    2  501    0  0.11833606926E+03  0.93384226206E+02  0.86073378361E+03  0.89009082443E+03  0.16933691415E+03 0.  0.
         24    2    3    3    0    0  0.73155455590E+02  0.60697377803E+02  0.79185335030E+03  0.80134217935E+03  0.77985047767E+02 0.  0.
         -6    2    1    2    0  502 -0.11833606926E+03 -0.93384226206E+02  0.32883397731E+03  0.40057608493E+03  0.17206212886E+03 0.  0.
        -24    2    5    5    0    0  0.13882378911E+01 -0.46584250248E+02  0.89768873527E+02  0.12910166381E+03  0.80229479427E+02 0.  0.
          5    1    3    3  501    0  0.45180613666E+02  0.32686848402E+02  0.68880433314E+02  0.88748645078E+02  0.47000000000E+01 0. -1.
        -13    1    4    4    0    0  0.23971618523E+02  0.42205696215E+02  0.15733631579E+03  0.16465319782E+03  0.00000000000E+00 0.  1.
         14    1    4    4    0    0  0.49183837067E+02  0.18491681589E+02  0.63451703451E+03  0.63668898153E+03  0.00000000000E+00 0. -1.
         -5    1    5    5    0  502 -0.11972430715E+03 -0.46799975957E+02  0.23906510378E+03  0.27147442111E+03  0.47000000000E+01 0.  1.
         13    1    6    6    0    0 -0.11438248090E+02 -0.50374975891E+02  0.15924910345E+02  0.54056215969E+02  0.00000000000E+00 0. -1.
        -14    1    6    6    0    0  0.12826485981E+02  0.37907256428E+01  0.73843963183E+02  0.75045447844E+02  0.00000000000E+00 0.  1.
</event>
<event>
12    1  0.8500177E-002  0.2379615E+03  0.7818608E-02  0.1123462E+00
         21   -1    0    0  503  502  0.00000000000E+00  0.00000000000E+00  0.13344387027E+03  0.13344387027E+03  0.00000000000E+00 0.  1.
         21   -1    0    0  501  503 -0.00000000000E+00 -0.00000000000E+00 -0.42805082163E+03  0.42805082163E+03  0.00000000000E+00 0. -1.
          6    2    1    2  501    0  0.14129668015E+03  0.33617272366E+02 -0.21387591507E+03  0.31021167307E+03  0.17144533309E+03 0.  0.
         24    2    3    3    0    0  0.10932834085E+03  0.87183730282E+02 -0.13798317854E+03  0.21185956283E+03  0.79318521558E+02 0.  0.
         -6    2    1    2    0  502 -0.14129668015E+03 -0.33617272366E+02 -0.80731036303E+02  0.25128301883E+03  0.18849610741E+03 0.  0.
        -24    2    5    5    0    0 -0.14973904687E+03  0.19334579115E+01 -0.10013048056E+02  0.17154437174E+03  0.83076410159E+02 0.  0.
          5    1    3    3  501    0  0.31968339296E+02 -0.53566457916E+02 -0.75892736527E+02  0.98352110239E+02  0.47000000000E+01 0. -1.
        -11    1    4    4    0    0  0.97688245565E+02  0.52251159233E+02 -0.60867366720E+02  0.12640416644E+03  0.00000000000E+00 0.  1.
         12    1    4    4    0    0  0.11640095284E+02  0.34932571049E+02 -0.77115811820E+02  0.85455396383E+02  0.00000000000E+00 0. -1.
         -5    1    5    5    0  502  0.84423667278E+01 -0.35550730277E+02 -0.70717988247E+02  0.79738647098E+02  0.47000000000E+01 0.  1.
         11    1    6    6    0    0 -0.11864827964E+03 -0.43892286312E+01 -0.42526738348E+02  0.12611583193E+03  0.00000000000E+00 0. -1.
        -12    1    6    6    0    0 -0.31090767231E+02  0.63226865427E+01  0.32513690292E+02  0.45428539802E+02  0.00000000000E+00 0.  1.
</event>
<event>
12    1  0.8500177E-002  0.1821501E+03  0.7818608E-02  0.1165857E+00
         21   -1    0    0  503  502  0.00000000000E+00  0.00000000000E+00  0.51264752908E+02  0.51264752908E+02  0.00000000000E+00 0.  1.
         21   -1    0    0  501  503 -0.00000000000E+00 -0.00000000000E+00 -0.67836016943E+03  0.67836016943E+03  0.00000000000E+00 0.  1.
          6    2    1    2  501    0 -0.30056205878E+02 -0.47279958921E+02 -0.23276739202E+03  0.29525958487E+03  0.17279697232E+03 0.  0.
         24    2    3    3    0    0  0.84486257076E+01  0.50730607144E+01 -0.37614715483E+02  0.89516740818E+02  0.80630421333E+02 0.  0.
         -6    2    1    2    0  502  0.30056205878E+02  0.47279958921E+02 -0.39432802450E+03  0.43436533747E+03  0.17332018191E+03 0.  0.
        -24    2    5    5    0    0 -0.39320665014E+02  0.42915073879E+02 -0.31216793068E+03  0.32664081170E+03  0.76534859085E+02 0.  0.
          5    1    3    3  501    0 -0.38504831585E+02 -0.52353019635E+02 -0.19515267653E+03  0.20574284405E+03  0.47000000000E+01 0. -1.
        -13    1    4    4    0    0 -0.27817478147E+01 -0.34474032276E+02 -0.33584219598E+02  0.48208887441E+02  0.00000000000E+00 0.  1.
         14    1    4    4    0    0  0.11230373522E+02  0.39547092991E+02 -0.40304958846E+01  0.41307853376E+02  0.00000000000E+00 0. -1.
         -5    1    5    5    0  502  0.69376870891E+02  0.43648850422E+01 -0.82160093821E+02  0.10772452577E+03  0.47000000000E+01 0.  1.
         11    1    6    6    0    0 -0.54104399472E+02  0.37205458331E+01 -0.18021660110E+03  0.18819976572E+03  0.00000000000E+00 0. -1.
        -12    1    6    6    0    0  0.14783734458E+02  0.39194528046E+02 -0.13195132958E+03  0.13844104598E+03  0.00000000000E+00 0.  1.
</event>
<event>
12    1  0.8500177E-002  0.1815050E+03  0.7818608E-02  0.1167205E+00
         21   -1    0    0  503  502  0.00000000000E+00  0.00000000000E+00  0.22586042228E+03  0.22586042228E+03  0.00000000000E+00 0. -1.
         21   -1    0    0  501  503 -0.00000000000E+00 -0.00000000000E+00 -0.19912413348E+03  0.19912413348E+03  0.00000000000E+00 0. -1.
          6    2    1    2  501    0  0.41532120102E+02  0.35449708954E+02 -0.99486441456E+02  0.20390482861E+03  0.16940492387E+03 0.  0.
         24    2    3    3    0    0  0.43832508996E+02 -0.81332502242E+01 -0.33960772849E+01  0.98262913605E+02  0.87502161374E+02 0.  0.
         -6    2    1    2    0  502 -0.41532120102E+02 -0.35449708954E+02  0.12622273025E+03  0.22107972715E+03  0.17309670493E+03 0.  0.
        -24    2    5    5    0    0 -0.47561867701E+00 -0.62882855672E+02  0.13672647298E+03  0.17037832224E+03  0.79875932085E+02 0.  0.
          5    1    3    3  501    0 -0.23003888940E+01  0.43582959178E+02 -0.96090364171E+02  0.10564191501E+03  0.47000000000E+01 0. -1.
        -11    1    4    4    0    0  0.37247385689E+01 -0.39200829924E+02  0.17883288119E+02  0.43248014268E+02  0.00000000000E+00 0.  1.
         12    1    4    4    0    0  0.40107770427E+02  0.31067579700E+02 -0.21279365404E+02  0.55014899337E+02  0.00000000000E+00 0. -1.
         -5    1    5    5    0  502 -0.41056501425E+02  0.27433146719E+02 -0.10503742725E+02  0.50701404905E+02  0.47000000000E+01 0.  1.
         11    1    6    6    0    0  0.32038799357E+02 -0.11129244245E+02  0.22119193116E+02  0.40492017063E+02  0.00000000000E+00 0. -1.
        -12    1    6    6    0    0 -0.32514418034E+02 -0.51753611428E+02  0.11460727986E+03  0.12988630518E+03  0.00000000000E+00 0.  1.
</event>
<event>
12    1  0.8500177E-002  0.1747982E+03  0.7818608E-02  0.1173604E+00
         21   -1    0    0  501  502  0.00000000000E+00  0.00000000000E+00  0.19052270603E+03  0.19052270603E+03  0.00000000000E+00 0. -1.
         21   -1    0    0  502  503 -0.00000000000E+00 -0.00000000000E+00 -0.27182141287E+03  0.27182141287E+03  0.00000000000E+00 0. -1.
         -6    2    1    2    0  503  0.11649531571E+02 -0.15996277315E+02 -0.19008717120E+03  0.25645738036E+03  0.17101363341E+03 0.  0.
        -24    2    3    3    0    0  0.23805762260E+02 -0.99225586091E+01 -0.20665208662E+02  0.86426337920E+02  0.79857933551E+02 0.  0.
          6    2    1    2  501    0 -0.11649531571E+02  0.15996277315E+02  0.10878846436E+03  0.20588673854E+03  0.17367448476E+03 0.  0.
         24    2    5    5    0    0 -0.55778167700E+02  0.51003577827E+02  0.99573077391E+02  0.14861666807E+03  0.80371309202E+02 0.  0.
          5    1    5    5  501    0  0.44128636129E+02 -0.35007300512E+02  0.92153869639E+01  0.57270070478E+02  0.47000000000E+01 0. -1.
        -13    1    6    6    0    0 -0.69652671689E+02  0.50238097775E+02  0.10319615299E+03  0.13425649754E+03  0.00000000000E+00 0.  1.
         14    1    6    6    0    0  0.13874503989E+02  0.76548005210E+00 -0.36230755965E+01  0.14360170522E+02  0.00000000000E+00 0. -1.
         -5    1    3    3    0  503 -0.12156230689E+02 -0.60737187063E+01 -0.16942196254E+03  0.17003104244E+03  0.47000000000E+01 0.  1.
         11    1    4    4    0    0  0.23153896518E+02  0.33135678175E+02 -0.56298901990E+01  0.40813867199E+02  0.00000000000E+00 0. -1.
        -12    1    4    4    0    0  0.65186574181E+00 -0.43058236784E+02 -0.15035318463E+02  0.45612470720E+02  0.00000000000E+00 0.  1.
</event>
<event>
12    1  0.8500177E-002  0.3425936E+03  0.7818608E-02  0.1065817E+00
         21   -1    0    0  501  502  0.00000000000E+00  0.00000000000E+00  0.11184041236E+03  0.11184041236E+03  0.00000000000E+00 0.  1.
         21   -1    0    0  502  503 -0.00000000000E+00 -0.00000000000E+00 -0.13462945102E+04  0.13462945102E+04  0.00000000000E+00 0. -1.
         -6    2    1    2    0  503 -0.13250294115E+03  0.26401312708E+03 -0.96078141924E+03  0.10196521580E+04  0.17125894721E+03 0.  0.
        -24    2    3    3    0    0 -0.13846448568E+03  0.20481687994E+03 -0.89110690196E+03  0.92791141430E+03  0.76326364831E+02 0.  0.
          6    2    1    2  501    0  0.13250294115E+03 -0.26401312708E+03 -0.27367267860E+03  0.43848276460E+03  0.17352359826E+03 0.  0.
         24    2    5    5    0    0  0.73744758361E+02 -0.23407847218E+03 -0.15104141167E+03  0.29916612798E+03  0.80348264256E+02 0.  0.
          5    1    5    5  501    0  0.58758182784E+02 -0.29934654902E+02 -0.12263126693E+03  0.13931663661E+03  0.47000000000E+01 0. -1.
        -11    1    6    6    0    0  0.26621639966E+02 -0.16136413875E+03 -0.13267190040E+03  0.21059185679E+03  0.00000000000E+00 0.  1.
         12    1    6    6    0    0  0.47123118396E+02 -0.72714333430E+02 -0.18369511267E+02  0.88574271195E+02  0.00000000000E+00 0. -1.
         -5    1    3    3    0  503  0.59615445338E+01  0.59196247145E+02 -0.69674517274E+02  0.91740743656E+02  0.47000000000E+01 0.  1.
         13    1    4    4    0    0 -0.12527479512E+03  0.18909266140E+03 -0.70297693787E+03  0.73866527200E+03  0.00000000000E+00 0. -1.
        -14    1    4    4    0    0 -0.13189690562E+02  0.15724218533E+02 -0.18812996409E+03  0.18924614230E+03  0.00000000000E+00 0.  1.
</event>
<event>
12    1  0.8500177E-002  0.1758441E+03  0.7818608E-02  0.1171894E+00
         21   -1    0    0  501  502  0.00000000000E+00  0.00000000000E+00  0.12389677735E+03  0.12389677735E+03  0.00000000000E+00 0. -1.
         21   -1    0    0  502  503 -0.00000000000E+00 -0.00000000000E+00 -0.25227077151E+03  0.25227077151E+03  0.00000000000E+00 0. -1.
         -6    2    1    2    0  503  0.34165835516E+02  0.74677652412E+01 -0.83787143957E+02  0.19475876614E+03  0.17230095664E+03 0.  0.
        -24    2    3    3    0    0  0.39672375063E+01  0.85570887725E+01 -0.12234369916E+03  0.14554657358E+03  0.78274271734E+02 0.  0.
          6    2    1    2  501    0 -0.34165835516E+02 -0.74677652412E+01 -0.44586850202E+02  0.18140878272E+03  0.17233133030E+03 0.  0.
         24    2    5    5    0    0  0.88499946970E+01 -0.63949639526E+02 -0.41359108210E+02  0.11018328104E+03  0.79132172895E+02 0.  0.
          5    1    5    5  501    0 -0.43015830213E+02  0.56481874284E+02 -0.32277419914E+01  0.71225501683E+02  0.47000000000E+01 0. -1.
        -13    1    6    6    0    0 -0.45830897526E+01 -0.61678947581E+02  0.48199685754E+01  0.62036516532E+02  0.00000000000E+00 0.  1.
         14    1    6    6    0    0  0.13433084450E+02 -0.22706919443E+01 -0.46179076786E+02  0.48146764507E+02  0.00000000000E+00 0. -1.
         -5    1    3    3    0  503  0.30198598010E+02 -0.10893235313E+01  0.38556555199E+02  0.49212192558E+02  0.47000000000E+01 0.  1.
         11    1    4    4    0    0 -0.25553228647E+02 -0.15793800413E+02 -0.19500821239E+02  0.35814712825E+02  0.00000000000E+00 0. -1.
        -12    1    4    4    0    0  0.29520466153E+02  0.24350889185E+02 -0.10284287792E+03  0.10973186075E+03  0.00000000000E+00 0.  1.
</event>
<event>
12    1  0.8500177E-002  0.2185176E+03  0.7818608E-02  0.1135068E+00
         21   -1    0    0  503  502  0.00000000000E+00  0.00000000000E+00  0.31218071317E+03  0.31218071317E+03  0.00000000000E+00 0. -1.
         21   -1    0    0  501  503 -0.00000000000E+00 -0.00000000000E+00 -0.45272420523E+03  0.45272420523E+03  0.00000000000E+00 0. -1.
          6    2    1    2  501    0  0.13465749100E+03  0.78506844888E+01 -0.38160471849E+03  0.43954290605E+03  0.17141041963E+03 0.  0.
         24    2    3    3    0    0  0.10707492096E+03  0.12623906185E+01 -0.13110426925E+03  0.18739856474E+03  0.80394404795E+02 0.  0.
         -6    2    1    2    0  502 -0.13465749100E+03 -0.78506844888E+01  0.24106122643E+03  0.32536201236E+03  0.17191757057E+03 0.  0.
        -24    2    5    5    0    0 -0.50130101914E+02  0.25205231286E+02  0.43872433270E+02  0.10823743241E+03  0.81499819451E+02 0.  0.
          5    1    3    3  501    0  0.27582570039E+02  0.65882938704E+01 -0.25050044924E+03  0.25214434131E+03  0.47000000000E+01 0. -1.
        -13    1    4    4    0    0  0.98679568392E+02  0.18373379392E+02 -0.13471687449E+03  0.16799962667E+03  0.00000000000E+00 0.  1.
         14    1    4    4    0    0  0.83953525653E+01 -0.17110988774E+02  0.36126052430E+01  0.19398938068E+02  0.00000000000E+00 0. -1.
         -5    1    5    5    0  502 -0.84527389082E+02 -0.33055915775E+02  0.19718879316E+03  0.21712457995E+03  0.47000000000E+01 0.  1.
         13    1    6    6    0    0  0.22398305388E+02  0.55236227502E+01  0.16040280695E+02  0.28097777444E+02  0.00000000000E+00 0. -1.
        -14    1    6    6    0    0 -0.72528407302E+02  0.19681608536E+02  0.27832152575E+02  0.80139654961E+02  0.00000000000E+00 0.  1.
</event>
<event>
12    1  0.8500177E-002  0.3291937E+03  0.7818608E-02  0.1071525E+00
         21   -1    0    0  503  502  0.00000000000E+00  0.00000000000E+00  0.98797757717E+02  0.98797757717E+02  0.00000000000E+00 0. -1.
         21   -1    0    0  501  503 -0.00000000000E+00 -0.00000000000E+00 -0.14147941614E+04  0.14147941614E+04  0.00000000000E+00 0. -1.
          6    2    1    2  501    0  0.16057889184E+03 -0.22983540232E+03 -0.10174831454E+04  0.10694112541E+04  0.17250677265E+03 0.  0.
         24    2    3    3    0    0  0.55567258124E+02 -0.19190441126E+03 -0.61484975101E+03  0.65155728014E+03  0.81065712505E+02 0.  0.
         -6    2    1    2    0  502 -0.16057889184E+03  0.22983540232E+03 -0.29851325826E+03  0.44418066497E+03  0.17197792042E+03 0.  0.
        -24    2    5    5    0    0 -0.83201537049E+02  0.36627772057E+02 -0.10426101581E+03  0.15944839226E+03  0.79305365035E+02 0.  0.
          5    1    3    3  501    0  0.10501163372E+03 -0.37930991053E+02 -0.40263339437E+03  0.41785397397E+03  0.47000000000E+01 0. -1.
        -13    1    4    4    0    0  0.44444990947E+02 -0.12032851013E+03 -0.26660387055E+03  0.29585795809E+03  0.00000000000E+00 0.  1.
         14    1    4    4    0    0  0.11122267177E+02 -0.71575901135E+02 -0.34824588046E+03  0.35569932205E+03  0.00000000000E+00 0. -1.
         -5    1    5    5    0  502 -0.77377354796E+02  0.19320763026E+03 -0.19425224246E+03  0.28473227271E+03  0.47000000000E+01 0.  1.
         13    1    6    6    0    0 -0.96353204021E+02  0.33828996079E+02 -0.10434667363E+03  0.14600194930E+03  0.00000000000E+00 0. -1.
        -14    1    6    6    0    0  0.13151666972E+02  0.27987759776E+01  0.85657819314E-01  0.13446442964E+02  0.00000000000E+00 0.  1.
</event>
<event>
12    1  0.8500177E-002  0.2271100E+03  0.7818608E-02  0.1128953E+00
         21   -1    0    0  503  502  0.00000000000E+00  0.00000000000E+00  0.15444230670E+03  0.15444230670E+03  0.00000000000E+00 0.  1.
         21   -1    0    0  501  503 -0.00000000000E+00 -0.00000000000E+00 -0.77764525117E+03  0.77764525117E+03  0.00000000000E+00 0.  1.
          6    2    1    2  501    0  0.13806231716E+03 -0.47966349594E+02 -0.66490088304E+03  0.70261804382E+03  0.17383025375E+03 0.  0.
         24    2    3    3    0    0  0.16453356481E+03 -0.58246977371E+02 -0.62310073950E+03  0.65186609549E+03  0.78809076616E+02 0.  0.
         -6    2    1    2    0  502 -0.13806231716E+03  0.47966349594E+02  0.41697938573E+02  0.22946951404E+03  0.17191732222E+03 0.  0.
        -24    2    5    5    0    0 -0.15784455595E+03  0.27765249537E+02  0.67124072661E+02  0.19115502971E+03  0.79679303015E+02 0.  0.
          5    1    3    3  501    0 -0.26471247649E+02  0.10280627777E+02 -0.41800143542E+02  0.50751948334E+02  0.47000000000E+01 0. -1.
        -11    1    4    4    0    0  0.65023688047E+02  0.16261295848E+02 -0.23145093443E+03  0.24096067064E+03  0.00000000000E+00 0.  1.
         12    1    4    4    0    0  0.99509876759E+02 -0.74508273218E+02 -0.39164980508E+03  0.41090542485E+03  0.00000000000E+00 0. -1.
         -5    1    5    5    0  502  0.19782238788E+02  0.20201100057E+02 -0.25426134088E+02  0.38314484332E+02  0.47000000000E+01 0.  1.
         11    1    6    6    0    0 -0.34050939732E+02  0.77760053772E+01 -0.18294887394E+02  0.39428868371E+02  0.00000000000E+00 0. -1.
        -12    1    6    6    0    0 -0.12379361621E+03  0.19989244160E+02  0.85418960056E+02  0.15172616134E+03  0.00000000000E+00 0.  1.
</event>
<event>
12    1  0.8500177E-002  0.1768173E+03  0.7818608E-02  0.1171047E+00
         21   -1    0    0  501  502  0.00000000000E+00  0.00000000000E+00  0.62945873041E+03  0.62945873041E+03  0.00000000000E+00 0. -1.
         21   -1    0    0  502  503 -0.00000000000E+00 -0.00000000000E+00 -0.69172038288E+02  0.69172038288E+02  0.00000000000E+00 0. -1.
         -6    2    1    2    0  503 -0.31937350953E+02 -0.22181985568E+02  0.46602161514E+03  0.49825542936E+03  0.17196014725E+03 0.  0.
        -24    2    3    3    0    0 -0.21380159132E+02  0.20801416530E+02  0.43617429280E+03  0.44466457374E+03  0.81171172888E+02 0.  0.
          6    2    1    2  501    0  0.31937350953E+02  0.22181985568E+02  0.94265076987E+02  0.20037533934E+03  0.17248865762E+03 0.  0.
         24    2    5    5    0    0 -0.33288339568E+02 -0.15691465696E+02  0.11356469258E+02  0.88193717628E+02  0.79339944468E+02 0.  0.
          5    1    5    5  501    0  0.65225690521E+02  0.37873451264E+02  0.82908607729E+02  0.11218162171E+03  0.47000000000E+01 0. -1.
        -13    1    6    6    0    0 -0.39300232743E+02 -0.23345350963E+02 -0.23925456368E+02  0.51594003215E+02  0.00000000000E+00 0.  1.
         14    1    6    6    0    0  0.60118931755E+01  0.76538852672E+01  0.35281925627E+02  0.36599714414E+02  0.00000000000E+00 0. -1.
         -5    1    3    3    0  503 -0.10557191821E+02 -0.42983402098E+02  0.29847322339E+02  0.53590855618E+02  0.47000000000E+01 0.  1.
         11    1    4    4    0    0  0.28830894769E+02 -0.61662867538E+01  0.14971430002E+03  0.15258969564E+03  0.00000000000E+00 0. -1.
        -12    1    4    4    0    0 -0.50211053901E+02  0.26967703284E+02  0.28645999278E+03  0.29207487810E+03  0.00000000000E+00 0.  1.
</event>
<event>
12    1  0.8500177E-002  0.2216074E+03  0.7818608E-02  0.1132990E+00
         21   -1    0    0  503  502  0.00000000000E+00  0.00000000000E+00  0.19012124188E+03  0.19012124188E+03  0.00000000000E+00 0.  1.
         21   -1    0    0  501  503 -0.00000000000E+00 -0.00000000000E+00 -0.31033969631E+03  0.31033969631E+03  0.00000000000E+00 0.  1.
          6    2    1    2  501    0 -0.11634842232E+03 -0.74784947499E+02 -0.16458958086E+03  0.27604268052E+03  0.17314758905E+03 0.  0.
         24    2    3    3    0    0 -0.15569821134E+03 -0.60743601522E+02 -0.15327608769E+03  0.23250361277E+03  0.51309382702E+02 0.  0.
         -6    2    1    2    0  502  0.11634842232E+03  0.74784947499E+02  0.44371126431E+02  0.22441825766E+03  0.17107020127E+03 0.  0.
        -24    2    5    5    0    0  0.72240095468E+02  0.47308801740E+02  0.95665259734E+02  0.15124954034E+03  0.79169611703E+02 0.  0.
          5    1    3    3  501    0  0.39349789024E+02 -0.14041345977E+02 -0.11313493176E+02  0.43539067755E+02  0.47000000000E+01 0. -1.
        -11    1    4    4    0    0 -0.10594525805E+03 -0.57299396643E+02 -0.13077296177E+03  0.17778972436E+03  0.00000000000E+00 0.  1.
         12    1    4    4    0    0 -0.49752953291E+02 -0.34442048792E+01 -0.22503125915E+02  0.54713888405E+02  0.00000000000E+00 0. -1.
         -5    1    5    5    0  502  0.44108326849E+02  0.27476145759E+02 -0.51294133303E+02  0.73168717322E+02  0.47000000000E+01 0.  1.
         11    1    6    6    0    0  0.61674733514E+02  0.64220485156E+02  0.96485920187E+02  0.13129195048E+03  0.00000000000E+00 0. -1.
        -12    1    6    6    0    0  0.10565361954E+02 -0.16911683416E+02 -0.82066045337E+00  0.19957589854E+02  0.00000000000E+00 0.  1.
</event>
<event>
12    1  0.8500177E-002  0.2170772E+03  0.7818608E-02  0.1136136E+00
         21   -1    0    0  501  502  0.00000000000E+00  0.00000000000E+00  0.41276974200E+03  0.41276974200E+03  0.00000000000E+00 0.  1.
         21   -1    0    0  502  503 -0.00000000000E+00 -0.00000000000E+00 -0.13136631907E+03  0.13136631907E+03  0.00000000000E+00 0.  1.
         -6    2    1    2    0  503 -0.47830452378E+02 -0.12352346862E+03  0.41889237007E+02  0.22108189103E+03  0.17197876291E+03 0.  0.
        -24    2    3    3    0    0 -0.95711366762E+02 -0.68359198518E+02  0.14780892624E+02  0.14302658376E+03  0.80028014633E+02 0.  0.
          6    2    1    2  501    0  0.47830452378E+02  0.12352346862E+03  0.23951418592E+03  0.32305417003E+03  0.17161337956E+03 0.  0.
         24    2    5    5    0    0  0.37452882204E+02  0.39414738381E+02  0.39383581205E+02  0.10566897870E+03  0.81600408114E+02 0.  0.
          5    1    5    5  501    0  0.10377570174E+02  0.84108730240E+02  0.20013060472E+03  0.21738519133E+03  0.47000000000E+01 0. -1.
        -11    1    6    6    0    0  0.12395039365E+02  0.50502302950E+02  0.53701254063E+02  0.74752553749E+02  0.00000000000E+00 0.  1.
         12    1    6    6    0    0  0.25057842839E+02 -0.11087564569E+02 -0.14317672857E+02  0.30916424953E+02  0.00000000000E+00 0. -1.
         -5    1    3    3    0  503  0.47880914384E+02 -0.55164270103E+02  0.27108344383E+02  0.78055307273E+02  0.47000000000E+01 0.  1.
         13    1    4    4    0    0  0.86417806225E+01 -0.23926258255E+02  0.15146910093E+02  0.29607010855E+02  0.00000000000E+00 0. -1.
        -14    1    4    4    0    0 -0.10435314738E+03 -0.44432940263E+02 -0.36601746846E+00  0.11341957291E+03  0.00000000000E+00 0.  1.
</event>
<event>
12    1  0.8500177E-002  0.2601434E+03  0.7818608E-02  0.1107215E+00
         21   -1    0    0  503  502  0.00000000000E+00  0.00000000000E+00  0.19354250786E+03  0.19354250786E+03  0.00000000000E+00 0. -1.
         21   -1    0    0  501  503 -0.00000000000E+00 -0.00000000000E+00 -0.94170542690E+03  0.94170542690E+03  0.00000000000E+00 0. -1.
          6    2    1    2  501    0  0.15481946455E+03  0.11836367016E+03 -0.82496768402E+03  0.86501227913E+03  0.17232393437E+03 0.  0.
         24    2    3    3    0    0  0.62580138220E+02 -0.90731075951E+01 -0.28214788694E+03  0.29983651200E+03  0.79346763297E+02 0.  0.
         -6    2    1    2    0  502 -0.15481946455E+03 -0.11836367016E+03  0.76804764980E+02  0.27023565563E+03  0.17073169780E+03 0.  0.
        -24    2    5    5    0    0 -0.23429785975E+02 -0.59409311702E+02  0.72419422897E+02  0.12608231630E+03  0.81078705477E+02 0.  0.
          5    1    3    3  501    0  0.92239326327E+02  0.12743677775E+03 -0.54281979708E+03  0.56517576713E+03  0.47000000000E+01 0. -1.
        -11    1    4    4    0    0  0.79782021426E+02 -0.11344479113E+02 -0.19529885348E+03  0.21127117721E+03  0.00000000000E+00 0.  1.
         12    1    4    4    0    0 -0.17201883206E+02  0.22713715177E+01 -0.86849033463E+02  0.88565334798E+02  0.00000000000E+00 0. -1.
         -5    1    5    5    0  502 -0.13138967857E+03 -0.58954358453E+02  0.43853420822E+01  0.14415333933E+03  0.47000000000E+01 0.  1.
         13    1    6    6    0    0 -0.49159594195E+02 -0.59842670978E+02  0.55670857376E+02  0.95378484640E+02  0.00000000000E+00 0. -1.
        -14    1    6    6    0    0  0.25729808220E+02  0.43335927644E+00  0.16748565522E+02  0.30703831655E+02  0.00000000000E+00 0.  1.
</event>
<event>
12    1  0.8500177E-002  0.1759519E+03  0.7818608E-02  0.1171839E+00
         21   -1    0    0  501  502  0.00000000000E+00  0.00000000000E+00  0.29150129920E+04  0.29150129920E+04  0.00000000000E+00 0. -1.
         21   -1    0    0  502  503 -0.00000000000E+00 -0.00000000000E+00 -0.34177192907E+02  0.34177192907E+02  0.00000000000E+00 0. -1.
         -6    2    1    2    0  503 -0.10717250122E+02 -0.33954876591E+02  0.21612181307E+03  0.27868928883E+03  0.17231160299E+03 0.  0.
        -24    2    3    3    0    0  0.59363193639E+02 -0.24939106501E+02  0.10839420228E+03  0.14977117204E+03  0.80846478553E+02 0.  0.
          6    2    1    2  501    0  0.10717250122E+02  0.33954876591E+02  0.26647139860E+04  0.26705008961E+04  0.17206573043E+03 0.  0.
         24    2    5    5    0    0  0.48564882559E+01  0.89008353361E+02  0.19118717667E+04  0.19156110160E+04  0.79786213925E+02 0.  0.
          5    1    5    5  501    0  0.58607618665E+01 -0.55053476769E+02  0.75284221932E+03  0.75488988007E+03  0.47000000000E+01 0. -1.
        -13    1    6    6    0    0 -0.20782628337E+01 -0.14023869043E+02  0.37885506046E+03  0.37912022488E+03  0.00000000000E+00 0.  1.
         14    1    6    6    0    0  0.69347510895E+01  0.10303222240E+03  0.15330167063E+04  0.15364907912E+04  0.00000000000E+00 0. -1.
         -5    1    3    3    0  503 -0.70080443761E+02 -0.90157700897E+01  0.10772761079E+03  0.12891811679E+03  0.47000000000E+01 0.  1.
         13    1    4    4    0    0 -0.23832244635E+01 -0.36546629294E+02  0.21258658078E+02  0.42346976455E+02  0.00000000000E+00 0. -1.
        -14    1    4    4    0    0  0.61746418103E+02  0.11607522793E+02  0.87135544199E+02  0.10742419558E+03  0.00000000000E+00 0.  1.
</event>
<event>
12    1  0.8500177E-002  0.2593144E+03  0.7818608E-02  0.1107873E+00
         21   -1    0    0  501  502  0.00000000000E+00  0.00000000000E+00  0.64895680716E+02  0.64895680716E+02  0.00000000000E+00 0. -1.
         21   -1    0    0  502  503 -0.00000000000E+00 -0.00000000000E+00 -0.10576799252E+04  0.10576799252E+04  0.00000000000E+00 0.  1.
         -6    2    1    2    0  503 -0.18046486483E+03 -0.70015698404E+02 -0.59264940467E+03  0.64689818311E+03  0.17255195447E+03 0.  0.
        -24    2    3    3    0    0 -0.71914450019E+02 -0.54598477631E+02 -0.15823733520E+03  0.19883923682E+03  0.79657428812E+02 0.  0.
          6    2    1    2  501    0  0.18046486483E+03  0.70015698404E+02 -0.40013483984E+03  0.47567742284E+03  0.16938522687E+03 0.  0.
         24    2    5    5    0    0  0.65387798069E+02  0.93247717379E+02 -0.20613762733E+03  0.24887471901E+03  0.80468648737E+02 0.  0.
          5    1    5    5  501    0  0.11507706676E+03 -0.23232018974E+02 -0.19399721251E+03  0.22680270382E+03  0.47000000000E+01 0. -1.
        -13    1    6    6    0    0  0.69293020739E+02  0.37483787913E+02 -0.15122136095E+03  0.17051233705E+03  0.00000000000E+00 0.  1.
         14    1    6    6    0    0 -0.39052226692E+01  0.55763929466E+02 -0.54916266386E+02  0.78362381966E+02  0.00000000000E+00 0. -1.
         -5    1    3    3    0  503 -0.10855041481E+03 -0.15417220774E+02 -0.43441206947E+03  0.44805894629E+03  0.47000000000E+01 0.  1.
         11    1    4    4    0    0 -0.87015776627E+02 -0.32537820352E+02 -0.13171384387E+03  0.16117999815E+03  0.00000000000E+00 0. -1.
        -12    1    4    4    0    0  0.15101326608E+02 -0.22060657279E+02 -0.26523491333E+02  0.37659238672E+02  0.00000000000E+00 0.  1.
</event>
<event>
12    1  0.8500177E-002  0.2336665E+03  0.7818608E-02  0.1124144E+00
         21   -1    0    0  501  502  0.00000000000E+00  0.00000000000E+00  0.31866977712E+03  0.31866977712E+03  0.00000000000E+00 0. -1.
         21   -1    0    0  502  503 -0.00000000000E+00 -0.00000000000E+00 -0.26151572081E+03  0.26151572081E+03  0.00000000000E+00 0.  1.
         -6    2    1    2    0  503 -0.94951137589E+02 -0.12809310404E+03 -0.14201911930E+03  0.27315132302E+03  0.17034862251E+03 0.  0.
        -24    2    3    3    0    0 -0.49376995091E+02 -0.51705424823E+02  0.41273382639E+01  0.10199946922E+03  0.72631385781E+02 0.  0.
          6    2    1    2  501    0  0.94951137589E+02  0.12809310404E+03  0.19917317561E+03  0.30703417491E+03  0.17081120820E+03 0.  0.
         24    2    5    5    0    0  0.65807559159E+02  0.34956466109E+02  0.17456678518E+03  0.20628028695E+03  0.80779978534E+02 0.  0.
          5    1    5    5  501    0  0.29143578430E+02  0.93136637928E+02  0.24606390434E+02  0.10075388796E+03  0.47000000000E+01 0. -1.
        -11    1    6    6    0    0 -0.21531872036E+01 -0.29737692589E+01  0.94671799140E+02  0.94742963175E+02  0.00000000000E+00 0.  1.
         12    1    6    6    0    0  0.67960746363E+02  0.37930235368E+02  0.79894986039E+02  0.11153732378E+03  0.00000000000E+00 0. -1.
         -5    1    3    3    0  503 -0.45574142498E+02 -0.76387679214E+02 -0.14614645756E+03  0.17115185380E+03  0.47000000000E+01 0.  1.
         11    1    4    4    0    0 -0.49391579945E+02 -0.66524048178E+02 -0.74572125531E+01  0.83190066562E+02  0.00000000000E+00 0. -1.
        -12    1    4    4    0    0  0.14584853457E-01  0.14818623356E+02  0.11584550817E+02  0.18809402662E+02  0.00000000000E+00 0.  1.
</event>
<event>
12    1  0.8500177E-002  0.2203574E+03  0.7818608E-02  0.1134628E+00
         21   -1    0    0  503  502  0.00000000000E+00  0.00000000000E+00  0.28697104820E+03  0.28697104820E+03  0.00000000000E+00 0. -1.
         21   -1    0    0  501  503 -0.00000000000E+00 -0.00000000000E+00 -0.36908573138E+03  0.36908573138E+03  0.00000000000E+00 0.  1.
          6    2    1    2  501    0  0.32808822864E+02  0.12510049533E+03 -0.28468039955E+03  0.35674046195E+03  0.17173897202E+03 0.  0.
         24    2    3    3    0    0 -0.39051131725E+02  0.68040136770E+02 -0.10585609181E+03  0.15569330172E+03  0.82948423302E+02 0.  0.
         -6    2    1    2    0  502 -0.32808822864E+02 -0.12510049533E+03  0.20256571638E+03  0.29931631763E+03  0.17841198323E+03 0.  0.
        -24    2    5    5    0    0 -0.75508268812E+02 -0.84052874629E+02  0.70388394210E+02  0.15439880887E+03  0.78218167642E+02 0.  0.
          5    1    3    3  501    0  0.71859954590E+02  0.57060358563E+02 -0.17882430775E+03  0.20104716023E+03  0.47000000000E+01 0. -1.
        -13    1    4    4    0    0 -0.11393078245E+02  0.34130375540E+02 -0.10599330733E+03  0.11193420373E+03  0.00000000000E+00 0.  1.
         14    1    4    4    0    0 -0.27658053481E+02  0.33909761229E+02  0.13721552302E+00  0.43759097992E+02  0.00000000000E+00 0. -1.
         -5    1    5    5    0  502  0.42699445948E+02 -0.41047620703E+02  0.13217732217E+03  0.14491750876E+03  0.47000000000E+01 0.  1.
         11    1    6    6    0    0 -0.26413207417E+02  0.94153363904E+00  0.46329783226E+02  0.53338474157E+02  0.00000000000E+00 0. -1.
        -12    1    6    6    0    0 -0.49095061396E+02 -0.84994408268E+02  0.24058610984E+02  0.10106033472E+03  0.00000000000E+00 0.  1.
</event>
<event>
12    1  0.8500177E-002  0.2632150E+03  0.7818608E-02  0.1105362E+00
         21   -1    0    0  503  502  0.00000000000E+00  0.00000000000E+00  0.41296597845E+03  0.41296597845E+03  0.00000000000E+00 0.  1.
         21   -1    0    0  501  503 -0.00000000000E+00 -0.00000000000E+00 -0.17997118072E+03  0.17997118072E+03  0.00000000000E+00 0.  1.
          6    2    1    2  501    0  0.10987896311E+03  0.16651761732E+03  0.19570658254E+03  0.32799881628E+03  0.17169931164E+03 0.  0.
         24    2    3    3    0    0  0.57994940789E+02  0.16869304777E+02  0.44673352257E+02  0.10909313826E+03  0.79105106109E+02 0.  0.
         -6    2    1    2    0  502 -0.10987896311E+03 -0.16651761732E+03  0.37288215177E+02  0.26493834289E+03  0.17029507077E+03 0.  0.
        -24    2    5    5    0    0  0.23705417771E+01 -0.34171997496E+02 -0.52187091054E+01  0.86208818059E+02  0.78939093644E+02 0.  0.
          5    1    3    3  501    0  0.51884022324E+02  0.14964831254E+03  0.15103323029E+03  0.21890567802E+03  0.47000000000E+01 0. -1.
        -13    1    4    4    0    0  0.21617876089E+02  0.47340213767E+02  0.24738327146E+02  0.57623026961E+02  0.00000000000E+00 0.  1.
         14    1    4    4    0    0  0.36377064700E+02 -0.30470908990E+02  0.19935025110E+02  0.51470111298E+02  0.00000000000E+00 0. -1.
         -5    1    5    5    0  502 -0.11224950489E+03 -0.13234561982E+03  0.42506924282E+02  0.17872952483E+03  0.47000000000E+01 0.  1.
         13    1    6    6    0    0  0.14927411199E+02  0.80086520205E+01  0.26854971625E+02  0.31751466317E+02  0.00000000000E+00 0. -1.
        -14    1    6    6    0    0 -0.12556869422E+02 -0.42180649516E+02 -0.32073680730E+02  0.54457351743E+02  0.00000000000E+00 0.  1.
</event>
<event>
12    1  0.8500177E-002  0.2476215E+03  0.7818608E-02  0.1114857E+00
         21   -1    0    0  501  502  0.00000000000E+00  0.00000000000E+00  0.94077683312E+03  0.94077683312E+03  0.00000000000E+00 0.  1.
         21   -1    0    0  502  503 -0.00000000000E+00 -0.00000000000E+00 -0.14272868811E+03  0.14272868811E+03  0.00000000000E+00 0.  1.
         -6    2    1    2    0  503  0.96127957521E+02  0.14846046969E+03 -0.39353732248E+00  0.24762179296E+03  0.17330695946E+03 0.  0.
        -24    2    3    3    0    0  0.97191343165E+02  0.29666415674E+02 -0.18218999170E+02  0.12740118263E+03  0.74651697895E+02 0.  0.
          6    2    1    2  501    0 -0.96127957521E+02 -0.14846046969E+03  0.79844168233E+03  0.83588372827E+03  0.17294910183E+03 0.  0.
         24    2    5    5    0    0 -0.61916857242E+02 -0.17387557420E+03  0.70207904185E+03  0.73041252177E+03  0.80753070790E+02 0.  0.
          5    1    5    5  501    0 -0.34211100279E+02  0.25415104511E+02  0.96362640479E+02  0.10547120650E+03  0.47000000000E+01 0. -1.
        -13    1    6    6    0    0 -0.32151379475E+02 -0.12881434922E+03  0.35225420470E+03  0.37644371757E+03  0.00000000000E+00 0.  1.
         14    1    6    6    0    0 -0.29765477767E+02 -0.45061224983E+02  0.34982483715E+03  0.35396880420E+03  0.00000000000E+00 0. -1.
         -5    1    3    3    0  503 -0.10633856439E+01  0.11879405402E+03  0.17825461847E+02  0.12022061033E+03  0.47000000000E+01 0.  1.
         11    1    4    4    0    0  0.55295586029E+02  0.30435687877E+01  0.25764641022E+02  0.61079308054E+02  0.00000000000E+00 0. -1.
        -12    1    4    4    0    0  0.41895757135E+02  0.26622846886E+02 -0.43983640192E+02  0.66321874572E+02  0.00000000000E+00 0.  1.
</event>
<event>
12    1  0.8500177E-002  0.1842369E+03  0.7818608E-02  0.1163971E+00
         21   -1    0    0  501  502  0.00000000000E+00  0.00000000000E+00  0.23600659899E+03  0.23600659899E+03  0.00000000000E+00 0. -1.
         21   -1    0    0  502  503 -0.00000000000E+00 -0.00000000000E+00 -0.16733268363E+03  0.16733268363E+03  0.00000000000E+00 0.  1.
         -6    2    1    2    0  503 -0.38319814642E+02  0.52884237310E+02 -0.42278003618E+02  0.18902553328E+03  0.17227324776E+03 0.  0.
        -24    2    3    3    0    0 -0.81725395378E+02  0.61164205332E+02  0.37429745359E+01  0.12505192357E+03  0.72137878171E+02 0.  0.
          6    2    1    2  501    0  0.38319814642E+02 -0.52884237310E+02  0.11095191898E+03  0.21431374933E+03  0.17133272915E+03 0.  0.
         24    2    5    5    0    0  0.89126979515E+02 -0.26422198428E+02  0.94854572307E+02  0.15462436942E+03  0.79180519593E+02 0.  0.
          5    1    5    5  501    0 -0.50807164874E+02 -0.26462038883E+02  0.16097346672E+02  0.59689379911E+02  0.47000000000E+01 0. -1.
        -11    1    6    6    0    0  0.14128434349E+02  0.41509249318E+01 -0.13070677176E+02  0.19689729221E+02  0.00000000000E+00 0.  1.
         12    1    6    6    0    0  0.74998545167E+02 -0.30573123360E+02  0.10792524948E+03  0.13493464020E+03  0.00000000000E+00 0. -1.
         -5    1    3    3    0  503  0.43405580736E+02 -0.82799680217E+01 -0.46020978154E+02  0.63973609713E+02  0.47000000000E+01 0.  1.
         13    1    4    4    0    0 -0.10999712679E+02  0.30564598492E+02  0.29419195001E+02  0.43825533590E+02  0.00000000000E+00 0. -1.
        -14    1    4    4    0    0 -0.70725682699E+02  0.30599606840E+02 -0.25676220465E+02  0.81226389982E+02  0.00000000000E+00 0.  1.
</event>
<event>
12    1  0.8500177E-002  0.2193216E+03  0.7818608E-02  0.1135858E+00
         21   -1    0    0  501  502  0.00000000000E+00  0.00000000000E+00  0.20422642513E+03  0.20422642513E+03  0.00000000000E+00 0. -1.
         21   -1    0    0  502  503 -0.00000000000E+00 -0.00000000000E+00 -0.54534823796E+03  0.54534823796E+03  0.00000000000E+00 0. -1.
         -6    2    1    2    0  503  0.88945395383E+02 -0.89359266339E+02 -0.45801074960E+03  0.50781474418E+03  0.17945920377E+03 0.  0.
        -24    2    3    3    0    0  0.10529579536E+03 -0.26586721807E+02 -0.19653463871E+03  0.23837166208E+03  0.80007042015E+02 0.  0.
          6    2    1    2  501    0 -0.88945395383E+02  0.89359266339E+02  0.11688893677E+03  0.24175991891E+03  0.16996609371E+03 0.  0.
         24    2    5    5    0    0 -0.43119657642E+02  0.11078011091E+02 -0.27529730726E+01  0.91545972310E+02  0.79944099098E+02 0.  0.
          5    1    5    5  501    0 -0.45825737741E+02  0.78281255248E+02  0.11964190984E+03  0.15021394660E+03  0.47000000000E+01 0. -1.
        -13    1    6    6    0    0 -0.55794268263E+02  0.33801574321E+02 -0.50238981860E+01  0.65427718518E+02  0.00000000000E+00 0.  1.
         14    1    6    6    0    0  0.12674610621E+02 -0.22723563229E+02  0.22709251134E+01  0.26118253791E+02  0.00000000000E+00 0. -1.
         -5    1    3    3    0  503 -0.16350399978E+02 -0.62772544532E+02 -0.26147611089E+03  0.26944308210E+03  0.47000000000E+01 0.  1.
         13    1    4    4    0    0  0.34141759576E+02 -0.27562355089E+02 -0.14226603168E+03  0.14887903458E+03  0.00000000000E+00 0. -1.
        -14    1    4    4    0    0  0.71154035786E+02  0.97563328155E+00 -0.54268607025E+02  0.89492627503E+02  0.00000000000E+00 0.  1.
</event>
<event>
12    1  0.8500177E-002  0.2086107E+03  0.7818608E-02  0.1143017E+00
         21   -1    0    0  503  502  0.00000000000E+00  0.00000000000E+00  0.54005244312E+02  0.54005244312E+02  0.00000000000E+00 0.  1.
         21   -1    0    0  501  503 -0.00000000000E+00 -0.00000000000E+00 -0.81539344131E+03  0.81539344131E+03  0.00000000000E+00 0.  1.
          6    2    1    2  501    0  0.96394941778E+02 -0.65883227731E+02 -0.44356827430E+03  0.49017470682E+03  0.17287522884E+03 0.  0.
         24    2    3    3    0    0  0.31161154443E+02  0.51624961820E+01 -0.33151702772E+03  0.34225407352E+03  0.78972414555E+02 0.  0.
         -6    2    1    2    0  502 -0.96394941778E+02  0.65883227731E+02 -0.31781992270E+03  0.37922397880E+03  0.17078857788E+03 0.  0.
        -24    2    5    5    0    0 -0.82138878140E+02  0.58500132135E+02 -0.10608304630E+03  0.16682732092E+03  0.80054241185E+02 0.  0.
          5    1    3    3  501    0  0.65233787335E+02 -0.71045723913E+02 -0.11205124658E+03  0.14792063330E+03  0.47000000000E+01 0. -1.
        -13    1    4    4    0    0  0.50304798091E+02 -0.15021669963E+02 -0.26506516986E+03  0.27021429931E+03  0.00000000000E+00 0.  1.
         14    1    4    4    0    0 -0.19143643649E+02  0.20184166145E+02 -0.66451857855E+02  0.72039774205E+02  0.00000000000E+00 0. -1.
         -5    1    5    5    0  502 -0.14256063638E+02  0.73830955954E+01 -0.21173687640E+03  0.21239665788E+03  0.47000000000E+01 0.  1.
         13    1    6    6    0    0  0.56768262888E+01  0.27726037253E+02 -0.38076630040E+01  0.28556221669E+02  0.00000000000E+00 0. -1.
        -14    1    6    6    0    0 -0.87815704428E+02  0.30774094883E+02 -0.10227538330E+03  0.13827109926E+03  0.00000000000E+00 0.  1.
</event>
<event>
12    1  0.8500177E-002  0.3119436E+03  0.7818608E-02  0.1079503E+00
         21   -1    0    0  503  502  0.00000000000E+00  0.00000000000E+00  0.14468877749E+04  0.14468877749E+04  0.00000000000E+00 0. -1.
         21   -1    0    0  501  503 -0.00000000000E+00 -0.00000000000E+00 -0.11762934498E+03  0.11762934498E+03  0.00000000000E+00 0.  1.
          6    2    1    2  501    0  0.25657372012E+03  0.46975336353E+02  0.15149274901E+03  0.34614082729E+03  0.16978416662E+03 0.  0.
         24    2    3    3    0    0  0.23613848144E+03 -0.10187378589E+02  0.14020355492E+03  0.28421578500E+03  0.72501107122E+02 0.  0.
         -6    2    1    2    0  502 -0.25657372012E+03 -0.46975336353E+02  0.11777656809E+04  0.12183762926E+04  0.17109072187E+03 0.  0.
        -24    2    5    5    0    0 -0.12213068975E+03  0.14233109939E+02  0.78597736838E+03  0.79963821914E+03  0.80884925099E+02 0.  0.
          5    1    3    3  501    0  0.20435238685E+02  0.57162714942E+02  0.11289194082E+02  0.61925042290E+02  0.47000000000E+01 0. -1.
        -13    1    4    4    0    0  0.17016407598E+03  0.24577749003E+02  0.10761743678E+03  0.20283340751E+03  0.00000000000E+00 0.  1.
         14    1    4    4    0    0  0.65974405456E+02 -0.34765127591E+02  0.32586118139E+02  0.81382377497E+02  0.00000000000E+00 0. -1.
         -5    1    5    5    0  502 -0.13444303037E+03 -0.61208446292E+02  0.39178831254E+03  0.41873807345E+03  0.47000000000E+01 0.  1.
         11    1    6    6    0    0 -0.35265257785E+02  0.15653468746E+02  0.85606775880E+02  0.93899891198E+02  0.00000000000E+00 0. -1.
        -12    1    6    6    0    0 -0.86865431969E+02 -0.14203588065E+01  0.70037059250E+03  0.70573832794E+03  0.00000000000E+00 0.  1.
</event>
<event>
12    1  0.8500177E-002  0.1801783E+03  0.7818608E-02  0.1167846E+00
         21   -1    0    0  501  502  0.00000000000E+00  0.00000000000E+00  0.24219147072E+02  0.24219147072E+02  0.00000000000E+00 0.  1.
         21   -1    0    0  502  503 -0.00000000000E+00 -0.00000000000E+00 -0.16554423453E+04  0.16554423453E+04  0.00000000000E+00 0.  1.
         -6    2    1    2    0  503 -0.43916211058E+02  0.27548273707E+02 -0.11841521619E+04  0.11976482921E+04  0.17163201355E+03 0.  0.
        -24    2    3    3    0    0 -0.25228083994E+02 -0.35084528953E+02 -0.37259718965E+03  0.38345195396E+03  0.79620065747E+02 0.  0.
          6    2    1    2  501    0  0.43916211058E+02 -0.27548273707E+02 -0.44707103631E+03  0.48201320025E+03  0.17255918616E+03 0.  0.
         24    2    5    5    0    0  0.81166671417E+02 -0.11922560066E+02 -0.41446851497E+03  0.42989051688E+03  0.79319169280E+02 0.  0.
          5    1    5    5  501    0 -0.37250460359E+02 -0.15625713641E+02 -0.32602521346E+02  0.52122683371E+02  0.47000000000E+01 0. -1.
        -11    1    6    6    0    0  0.24459628778E+02  0.32305023934E+02 -0.18636076171E+03  0.19071502698E+03  0.00000000000E+00 0.  1.
         12    1    6    6    0    0  0.56707042639E+02 -0.44227584001E+02 -0.22810775326E+03  0.23917548990E+03  0.00000000000E+00 0. -1.
         -5    1    3    3    0  503 -0.18688127064E+02  0.62632802660E+02 -0.81155497224E+03  0.81419633814E+03  0.47000000000E+01 0.  1.
         11    1    4    4    0    0  0.23283186775E+02 -0.34315425261E+02 -0.14984715054E+03  0.15547933536E+03  0.00000000000E+00 0. -1.
        -12    1    4    4    0    0 -0.48511270769E+02 -0.76910369131E+00 -0.22275003911E+03  0.22797261861E+03  0.00000000000E+00 0.  1.
</event>
<event>
12    1  0.8500177E-002  0.2087762E+03  0.7818608E-02  0.1142864E+00
         21   -1    0    0  501  502  0.00000000000E+00  0.00000000000E+00  0.25027583966E+03  0.25027583966E+03  0.00000000000E+00 0. -1.
         21   -1    0    0  502  503 -0.00000000000E+00 -0.00000000000E+00 -0.17314892772E+03  0.17314892772E+03  0.00000000000E+00 0.  1.
         -6    2    1    2    0  503  0.71952977864E+02 -0.90333968758E+02  0.28968375781E+02  0.20916615095E+03  0.17197050611E+03 0.  0.
        -24    2    3    3    0    0  0.80348531804E+02 -0.63014752131E+02  0.78631458920E+02  0.15167409280E+03  0.79971110704E+02 0.  0.
          6    2    1    2  501    0 -0.71952977864E+02  0.90333968758E+02  0.48158536159E+02  0.21425861643E+03  0.17392542418E+03 0.  0.
         24    2    5    5    0    0 -0.51987973967E+02  0.65637849159E+01  0.77967787464E+02  0.12300771756E+03  0.79410893384E+02 0.  0.
          5    1    5    5  501    0 -0.19965003897E+02  0.83770183842E+02 -0.29809251304E+02  0.91250898871E+02  0.47000000000E+01 0. -1.
        -13    1    6    6    0    0  0.58263264884E+01 -0.17368740664E+02 -0.50938983266E+01  0.19014916060E+02  0.00000000000E+00 0.  1.
         14    1    6    6    0    0 -0.57814300456E+02  0.23932525580E+02  0.83061685790E+02  0.10399280150E+03  0.00000000000E+00 0. -1.
         -5    1    3    3    0  503 -0.83955539404E+01 -0.27319216627E+02 -0.49663083138E+02  0.57492058146E+02  0.47000000000E+01 0.  1.
         11    1    4    4    0    0 -0.60367216549E+01 -0.33111356550E+02  0.40410421665E+02  0.52590931918E+02  0.00000000000E+00 0. -1.
        -12    1    4    4    0    0  0.86385253459E+02 -0.29903395581E+02  0.38221037255E+02  0.99083160887E+02  0.00000000000E+00 0.  1.
</event>
<event>
12    1  0.8500177E-002  0.2022109E+03  0.7818608E-02  0.1147923E+00
         21   -1    0    0  503  502  0.00000000000E+00  0.00000000000E+00  0.52844454991E+03  0.52844454991E+03  0.00000000000E+00 0. -1.
         21   -1    0    0  501  503 -0.00000000000E+00 -0.00000000000E+00 -0.86494074670E+02  0.86494074670E+02  0.00000000000E+00 0.  1.
          6    2    1    2  501    0 -0.34644193161E+02  0.99440606119E+02  0.12070247448E+03  0.23534737906E+03  0.17242577307E+03 0.  0.
         24    2    3    3    0    0 -0.86444088553E+02  0.79744511853E+02  0.63334903229E+02  0.15544560484E+03  0.79500053338E+02 0.  0.
         -6    2    1    2    0  502  0.34644193161E+02 -0.99440606119E+02  0.32124800076E+03  0.37959124553E+03  0.17262844904E+03 0.  0.
        -24    2    5    5    0    0  0.62319034654E+02 -0.74872843359E+02  0.31802297741E+03  0.34214845457E+03  0.80233073305E+02 0.  0.
          5    1    3    3  501    0  0.51799895392E+02  0.19696094267E+02  0.57367571252E+02  0.79901774219E+02  0.47000000000E+01 0. -1.
        -13    1    4    4    0    0 -0.54827739826E+02  0.67892572280E+02  0.42215193402E+01  0.87368779611E+02  0.00000000000E+00 0.  1.
         14    1    4    4    0    0 -0.31616348727E+02  0.11851939573E+02  0.59113383888E+02  0.68076825228E+02  0.00000000000E+00 0. -1.
         -5    1    5    5    0  502 -0.27674841493E+02 -0.24567762761E+02  0.32250233529E+01  0.37442790953E+02  0.47000000000E+01 0.  1.
         13    1    6    6    0    0  0.31299164446E+02 -0.18278437492E+02  0.23088821400E+03  0.23371586668E+03  0.00000000000E+00 0. -1.
        -14    1    6    6    0    0  0.31019870208E+02 -0.56594405867E+02  0.87134763412E+02  0.10843258790E+03  0.00000000000E+00 0.  1.
</event>
<event>
12    1  0.8500177E-002  0.3896818E+03  0.7818608E-02  0.1047460E+00
         21   -1    0    0  501  502  0.00000000000E+00  0.00000000000E+00  0.65641536051E+03  0.65641536051E+03  0.00000000000E+00 0.  1.
         21   -1    0    0  502  503 -0.00000000000E+00 -0.00000000000E+00 -0.29179873677E+03  0.29179873677E+03  0.00000000000E+00 0.  1.
         -6    2    1    2    0  503 -0.10149111792E+03 -0.33419547556E+03 -0.33976114968E+02  0.39116017915E+03  0.17281448568E+03 0.  0.
        -24    2    3    3    0    0 -0.93648182360E+02 -0.11220991526E+03  0.78174291764E+01  0.16508963495E+03  0.76370336046E+02 0.  0.
          6    2    1    2  501    0  0.10149111792E+03  0.33419547556E+03  0.39859273871E+03  0.55705391814E+03  0.17159788303E+03 0.  0.
         24    2    5    5    0    0  0.45727705211E+02  0.24930326666E+03  0.19515005018E+03  0.32961763509E+03  0.79505355094E+02 0.  0.
          5    1    5    5  501    0  0.55763412712E+02  0.84892208905E+02  0.20344268853E+03  0.22743628305E+03  0.47000000000E+01 0. -1.
        -13    1    6    6    0    0 -0.34805290174E+01  0.13747561680E+03  0.13769673019E+03  0.19460742227E+03  0.00000000000E+00 0.  1.
         14    1    6    6    0    0  0.49208234229E+02  0.11182764986E+03  0.57453319984E+02  0.13501021282E+03  0.00000000000E+00 0. -1.
         -5    1    3    3    0  503 -0.78429355626E+01 -0.22198556030E+03 -0.41793544144E+02  0.22607054420E+03  0.47000000000E+01 0.  1.
         11    1    4    4    0    0 -0.10654414754E+03 -0.10694822761E+03  0.77589505056E+01  0.15116143713E+03  0.00000000000E+00 0. -1.
        -12    1    4    4    0    0  0.12895965176E+02 -0.52616876478E+01  0.58478670787E-01  0.13928197818E+02  0.00000000000E+00 0.  1.
</event>
<event>
12    1  0.8500177E-002  0.1962010E+03  0.7818608E-02  0.1153208E+00
         21   -1    0    0  501  502  0.00000000000E+00  0.00000000000E+00  0.23514737765E+03  0.23514737765E+03  0.00000000000E+00 0. -1.
         21   -1    0    0  502  503 -0.00000000000E+00 -0.00000000000E+00 -0.17418455369E+03  0.17418455369E+03  0.00000000000E+00 0.  1.
         -6    2    1    2    0  503 -0.35432279173E+02  0.86198510282E+02 -0.21812014258E+02  0.19638471211E+03  0.17148049920E+03 0.  0.
        -24    2    3    3    0    0 -0.62685117329E+02  0.91918621554E+02  0.27457050992E+02  0.13959591347E+03  0.79716199649E+02 0.  0.
          6    2    1    2  501    0  0.35432279173E+02 -0.86198510282E+02  0.82774838212E+02  0.21294721923E+03  0.17265345277E+03 0.  0.
         24    2    5    5    0    0 -0.14600961917E+02 -0.72424717527E+02 -0.80634703222E+01  0.10822505883E+03  0.78670934957E+02 0.  0.
          5    1    5    5  501    0  0.50033241090E+02 -0.13773792755E+02  0.90838308534E+02  0.10472216040E+03  0.47000000000E+01 0. -1.
        -11    1    6    6    0    0  0.30130205065E+02 -0.41517653964E+02 -0.14919819317E+02  0.53424206652E+02  0.00000000000E+00 0.  1.
         12    1    6    6    0    0 -0.44731166982E+02 -0.30907063563E+02  0.68563489948E+01  0.54800852176E+02  0.00000000000E+00 0. -1.
         -5    1    3    3    0  503  0.27252838157E+02 -0.57201112713E+01 -0.49269065249E+02  0.56788798641E+02  0.47000000000E+01 0.  1.
         13    1    4    4    0    0 -0.23439851207E+02  0.59721129737E+02 -0.22872989383E+02  0.68111772881E+02  0.00000000000E+00 0. -1.
        -14    1    4    4    0    0 -0.39245266122E+02  0.32197491817E+02  0.50330040374E+02  0.71484140593E+02  0.00000000000E+00 0.  1.
</event>
<event>
12    1  0.8500177E-002  0.1844972E+03  0.7818608E-02  0.1163661E+00
         21   -1    0    0  503  502  0.00000000000E+00  0.00000000000E+00  0.16138639081E+04  0.16138639081E+04  0.00000000000E+00 0.  1.
         21   -1    0    0  501  503 -0.00000000000E+00 -0.00000000000E+00 -0.31631977334E+02  0.31631977334E+02  0.00000000000E+00 0.  1.
          6    2    1    2  501    0 -0.63632545109E+02  0.17853374577E+02  0.31550344844E+03  0.36548820350E+03  0.17225375798E+03 0.  0.
         24    2    3    3    0    0  0.21944775163E+02  0.40344148209E+02  0.18844703967E+03  0.21058586765E+03  0.82005472008E+02 0.  0.
         -6    2    1    2    0  502  0.63632545109E+02 -0.17853374577E+02  0.12667284823E+04  0.12800076819E+04  0.17161227840E+03 0.  0.
        -24    2    5    5    0    0 -0.85398470646E+00 -0.44908818740E+02  0.10024230560E+04  0.10065667231E+04  0.79416960088E+02 0.  0.
          5    1    3    3  501    0 -0.85577320272E+02 -0.22490773631E+02  0.12705640877E+03  0.15490233585E+03  0.47000000000E+01 0. -1.
        -11    1    4    4    0    0 -0.27360183473E+02  0.58018014594E+01  0.29646689096E+02  0.40757412997E+02  0.00000000000E+00 0.  1.
         12    1    4    4    0    0  0.49304958637E+02  0.34542346749E+02  0.15880035058E+03  0.16982845465E+03  0.00000000000E+00 0. -1.
         -5    1    5    5    0  502  0.64486529815E+02  0.27055444163E+02  0.26430542628E+03  0.27344095880E+03  0.47000000000E+01 0.  1.
         13    1    6    6    0    0 -0.79726371951E+00 -0.37910565483E+02  0.17268686469E+03  0.17680101765E+03  0.00000000000E+00 0. -1.
        -14    1    6    6    0    0 -0.56720986944E-01 -0.69982532575E+01  0.82973619133E+03  0.82976570547E+03  0.00000000000E+00 0.  1.
</event>
<event>
12    1  0.8500177E-002  0.2594796E+03  0.7818608E-02  0.1108667E+00
         21   -1    0    0  503  502  0.00000000000E+00  0.00000000000E+00  0.77952437955E+03  0.77952437955E+03  0.00000000000E+00 0. -1.
         21   -1    0    0  501  503 -0.00000000000E+00 -0.00000000000E+00 -0.30748653568E+03  0.30748653568E+03  0.00000000000E+00 0.  1.
          6    2    1    2  501    0 -0.17963144099E+03 -0.26708964391E+02 -0.22856523744E+03  0.33990026443E+03  0.17409565940E+03 0.  0.
         24    2    3    3    0    0 -0.19536983227E+03 -0.32443291698E+02 -0.15376830507E+03  0.26310670635E+03  0.79740257988E+02 0.  0.
         -6    2    1    2    0  502  0.17963144099E+03  0.26708964391E+02  0.70060308131E+03  0.74711065080E+03  0.18533435631E+03 0.  0.
        -24    2    5    5    0    0  0.20786741958E+03  0.10512160840E+02  0.64562100076E+03  0.68304251430E+03  0.80007687601E+02 0.  0.
          5    1    3    3  501    0  0.15738391286E+02  0.57343273070E+01 -0.74796932371E+02  0.76793558076E+02  0.47000000000E+01 0. -1.
        -13    1    4    4    0    0 -0.18846749476E+03 -0.21713514253E+02 -0.16066343186E+03  0.24860452856E+03  0.00000000000E+00 0.  1.
         14    1    4    4    0    0 -0.69023375170E+01 -0.10729777445E+02  0.68951267951E+01  0.14502177793E+02  0.00000000000E+00 0. -1.
         -5    1    5    5    0  502 -0.28235978594E+02  0.16196803551E+02  0.54982080555E+02  0.64068136500E+02  0.47000000000E+01 0.  1.
         13    1    6    6    0    0  0.12087881416E+03 -0.22457366091E+02  0.44893964758E+03  0.46547054490E+03  0.00000000000E+00 0. -1.
        -14    1    6    6    0    0  0.86988605428E+02  0.32969526931E+02  0.19668135318E+03  0.21757196940E+03  0.00000000000E+00 0.  1.
</event>
<event>
12    1  0.8500177E-002  0.1860117E+03  0.7818608E-02  0.1162115E+00
         21   -1    0    0  501  502  0.00000000000E+00  0.00000000000E+00  0.25672193589E+03  0.25672193589E+03  0.00000000000E+00 0. -1.
         21   -1    0    0  502  503 -0.00000000000E+00 -0.00000000000E+00 -0.21813388692E+03  0.21813388692E+03  0.00000000000E+00 0. -1.
         -6    2    1    2    0  503 -0.26305759796E+02  0.66237637504E+02 -0.12749667708E+03  0.22548762330E+03  0.17178430654E+03 0.  0.
        -24    2    3    3    0    0 -0.53310145566E+02  0.27055134637E+02 -0.11841264562E+02  0.10033663518E+03  0.79707420498E+02 0.  0.
          6    2    1    2  501    0  0.26305759796E+02 -0.66237637504E+02  0.16608472606E+03  0.24936819951E+03  0.17181660303E+03 0.  0.
         24    2    5    5    0    0  0.34546807370E+02 -0.10497371644E+03  0.89097641063E+02  0.16266468209E+03  0.79425727036E+02 0.  0.
          5    1    5    5  501    0 -0.82410475742E+01  0.38736078932E+02  0.76987084995E+02  0.86703517416E+02  0.47000000000E+01 0. -1.
        -13    1    6    6    0    0 -0.25659637619E+02 -0.27829395147E+02  0.30431409793E+02  0.48569156251E+02  0.00000000000E+00 0.  1.
         14    1    6    6    0    0  0.60206444989E+02 -0.77144321290E+02  0.58666231270E+02  0.11409552584E+03  0.00000000000E+00 0. -1.
         -5    1    3    3    0  503  0.27004385770E+02  0.39182502867E+02 -0.11565541252E+03  0.12515098812E+03  0.47000000000E+01 0.  1.
         11    1    4    4    0    0 -0.28543530397E+01 -0.51478665535E+01 -0.35492064224E+02  0.35976860400E+02  0.00000000000E+00 0. -1.
        -12    1    4    4    0    0 -0.50455792527E+02  0.32203001191E+02  0.23650799662E+02  0.64359774781E+02  0.00000000000E+00 0.  1.
</event>
<event>
12    1  0.8500177E-002  0.2389739E+03  0.7818608E-02  0.1121196E+00
         21   -1    0    0  503  502  0.00000000000E+00  0.00000000000E+00  0.96428433158E+02  0.96428433158E+02  0.00000000000E+00 0.  1.
         21   -1    0    0  501  503 -0.00000000000E+00 -0.00000000000E+00 -0.59770859411E+03  0.59770859411E+03  0.00000000000E+00 0.  1.
          6    2    1    2  501    0  0.16314107223E+03  0.21492831525E+02 -0.30512643776E+03  0.38496907554E+03  0.16739801328E+03 0.  0.
         24    2    3    3    0    0  0.15017154895E+02  0.28607488162E+02 -0.11760322855E+03  0.14584911147E+03  0.79984627476E+02 0.  0.
         -6    2    1    2    0  502 -0.16314107223E+03 -0.21492831525E+02 -0.19615372320E+03  0.30916795173E+03  0.17329624346E+03 0.  0.
        -24    2    5    5    0    0 -0.83777726534E+02 -0.65659108742E+02 -0.16744003241E+03  0.21379622258E+03  0.79641913030E+02 0.  0.
          5    1    3    3  501    0  0.14812391733E+03 -0.71146566368E+01 -0.18752320921E+03  0.23911996407E+03  0.47000000000E+01 0. -1.
        -11    1    4    4    0    0  0.17979685830E+02  0.53269011253E+02 -0.10213826016E+03  0.11658936852E+03  0.00000000000E+00 0.  1.
         12    1    4    4    0    0 -0.29625309349E+01 -0.24661523091E+02 -0.15464968391E+02  0.29259742959E+02  0.00000000000E+00 0. -1.
         -5    1    5    5    0  502 -0.79363345693E+02  0.44166277217E+02 -0.28713690792E+02  0.95371729154E+02  0.47000000000E+01 0.  1.
         11    1    6    6    0    0 -0.25980330030E+02 -0.56360103641E+01  0.20416886956E+00  0.26585406640E+02  0.00000000000E+00 0. -1.
        -12    1    6    6    0    0 -0.57797396504E+02 -0.60023098378E+02 -0.16764420128E+03  0.18721081593E+03  0.00000000000E+00 0.  1.
</event>
<event>
12    1  0.8500177E-002  0.2095016E+03  0.7818608E-02  0.1142268E+00
         21   -1    0    0  501  502  0.00000000000E+00  0.00000000000E+00  0.88088368662E+03  0.88088368662E+03  0.00000000000E+00 0. -1.
         21   -1    0    0  502  503 -0.00000000000E+00 -0.00000000000E+00 -0.12424767594E+03  0.12424767594E+03  0.00000000000E+00 0. -1.
         -6    2    1    2    0  503 -0.71016826044E+02 -0.91240684931E+02 -0.11033263963E+02  0.20979189321E+03  0.17470733635E+03 0.  0.
        -24    2    3    3    0    0 -0.74556451966E+02  0.90290452110E+01  0.12702961170E+01  0.10859893236E+03  0.78434216198E+02 0.  0.
          6    2    1    2  501    0  0.71016826044E+02  0.91240684931E+02  0.76766927464E+03  0.79533946935E+03  0.17285978166E+03 0.  0.
         24    2    5    5    0    0  0.63900979586E+02  0.13009562000E+03  0.63786410579E+03  0.65957565565E+03  0.84624006866E+02 0.  0.
          5    1    5    5  501    0  0.71158464578E+01 -0.38854935072E+02  0.12980516885E+03  0.13576381370E+03  0.47000000000E+01 0. -1.
        -11    1    6    6    0    0  0.99677302927E+01  0.40201874755E+02  0.64128744370E+02  0.76341615358E+02  0.00000000000E+00 0.  1.
         12    1    6    6    0    0  0.53933249293E+02  0.89893745247E+02  0.57373536142E+03  0.58323404029E+03  0.00000000000E+00 0. -1.
         -5    1    3    3    0  503  0.35396259223E+01 -0.10026973014E+03 -0.12303560080E+02  0.10119296085E+03  0.47000000000E+01 0.  1.
         11    1    4    4    0    0  0.60718212117E+01 -0.19310160279E+02 -0.96780765861E+01  0.22436899724E+02  0.00000000000E+00 0. -1.
        -12    1    4    4    0    0 -0.80628273178E+02  0.28339205489E+02  0.10948372703E+02  0.86162032637E+02  0.00000000000E+00 0.  1.
</event>
<event>
12    1  0.8500177E-002  0.2251588E+03  0.7818608E-02  0.1130111E+00
         21   -1    0    0  503  502  0.00000000000E+00  0.00000000000E+00  0.54379274754E+03  0.54379274754E+03  0.00000000000E+00 0. -1.
         21   -1    0    0  501  503 -0.00000000000E+00 -0.00000000000E+00 -0.99177810085E+02  0.99177810085E+02  0.00000000000E+00 0.  1.
          6    2    1    2  501    0  0.13600934446E+03 -0.49549029857E+02  0.14335110287E+03  0.26691949872E+03  0.17246110276E+03 0.  0.
         24    2    3    3    0    0  0.80255711506E+02 -0.50389151162E+02  0.11520358576E+02  0.12370424628E+03  0.78676401179E+02 0.  0.
         -6    2    1    2    0  502 -0.13600934446E+03  0.49549029857E+02  0.30126383459E+03  0.37605105890E+03  0.17233935341E+03 0.  0.
        -24    2    5    5    0    0 -0.31296099760E+02 -0.25653198469E+02  0.17024619154E+03  0.19218167170E+03  0.79451222472E+02 0.  0.
          5    1    3    3  501    0  0.55753632950E+02  0.84012130536E+00  0.13183074429E+03  0.14321525244E+03  0.47000000000E+01 0. -1.
        -13    1    4    4    0    0  0.85565100439E+02 -0.51265826963E+02 -0.11182437706E+02  0.10037239830E+03  0.00000000000E+00 0.  1.
         14    1    4    4    0    0 -0.53093889326E+01  0.87667580059E+00  0.22702796282E+02  0.23331847983E+02  0.00000000000E+00 0. -1.
         -5    1    5    5    0  502 -0.10471324470E+03  0.75202228326E+02  0.13101764304E+03  0.18386938720E+03  0.47000000000E+01 0.  1.
         13    1    6    6    0    0  0.10283643089E+02  0.20957536620E+02  0.72655072709E+02  0.76313375280E+02  0.00000000000E+00 0. -1.
        -14    1    6    6    0    0 -0.41579742849E+02 -0.46610735089E+02  0.97591118834E+02  0.11586829642E+03  0.00000000000E+00 0.  1.
</event>
<event>
12    1  0.8500177E-002  0.2055698E+03  0.7818608E-02  0.1145126E+00
         21   -1    0    0  501  502  0.00000000000E+00  0.00000000000E+00  0.11055105762E+03  0.11055105762E+03  0.00000000000E+00 0.  1.
         21   -1    0    0  502  503 -0.00000000000E+00 -0.00000000000E+00 -0.54594123835E+03  0.54594123835E+03  0.00000000000E+00 0. -1.
         -6    2    1    2    0  503  0.11048524166E+03  0.27672005065E+02 -0.39743980441E+03  0.44744881649E+03  0.17111200061E+03 0.  0.
        -24    2    3    3    0    0  0.63481580389E+02  0.21872425251E+02 -0.38403921700E+03  0.39800546464E+03  0.80086925590E+02 0.  0.
          6    2    1    2  501    0 -0.11048524166E+03 -0.27672005065E+02 -0.37950376317E+02  0.20904347949E+03  0.17113216169E+03 0.  0.
         24    2    5    5    0    0 -0.13905859198E+03  0.59502626976E+01 -0.31413680983E+02  0.16419137114E+03  0.81236010334E+02 0.  0.
          5    1    5    5  501    0  0.28573350313E+02 -0.33622267762E+02 -0.65366953341E+01  0.44852108351E+02  0.47000000000E+01 0. -1.
        -13    1    6    6    0    0 -0.24544661024E+02  0.30737586730E+02 -0.25497814386E+02  0.46876200371E+02  0.00000000000E+00 0.  1.
         14    1    6    6    0    0 -0.11451393095E+03 -0.24787324032E+02 -0.59158665973E+01  0.11731517077E+03  0.00000000000E+00 0. -1.
         -5    1    3    3    0  503  0.47003661275E+02  0.57995798140E+01 -0.13400587413E+02  0.49443351851E+02  0.47000000000E+01 0.  1.
         13    1    4    4    0    0  0.66465605451E+02 -0.14485787702E+02 -0.24849943747E+03  0.25764216498E+03  0.00000000000E+00 0. -1.
        -14    1    4    4    0    0 -0.29840250629E+01  0.36358212952E+02 -0.13553977953E+03  0.14036329966E+03  0.00000000000E+00 0.  1.
</event>
<event>
12    1  0.8500177E-002  0.1931933E+03  0.7818608E-02  0.1155819E+00
         21   -1    0    0  503  502  0.00000000000E+00  0.00000000000E+00  0.31407543374E+03  0.31407543374E+03  0.00000000000E+00 0. -1.
         21   -1    0    0  501  503 -0.00000000000E+00 -0.00000000000E+00 -0.18057059666E+03  0.18057059666E+03  0.00000000000E+00 0. -1.
          6    2    1    2  501    0 -0.11001499569E+02 -0.85165431057E+02 -0.78635050818E+02  0.20771923954E+03  0.17201635858E+03 0.  0.
         24    2    3    3    0    0  0.25952810449E+02 -0.49745696595E+02  0.15028927922E+02  0.10087725561E+03  0.82475264924E+02 0.  0.
         -6    2    1    2    0  502  0.11001499569E+02  0.85165431057E+02  0.21213988790E+03  0.28692679085E+03  0.17305914489E+03 0.  0.
        -24    2    5    5    0    0  0.66208641329E+02  0.89336124654E+02  0.14673425216E+03  0.20110598700E+03  0.80920639497E+02 0.  0.
          5    1    3    3  501    0 -0.36954310018E+02 -0.35419734462E+02 -0.93663978740E+02  0.10684198394E+03  0.47000000000E+01 0. -1.
        -13    1    4    4    0    0  0.27184349938E+02  0.17605769031E+02  0.46481646541E+01  0.32719373762E+02  0.00000000000E+00 0.  1.
         14    1    4    4    0    0 -0.12315394891E+01 -0.67351465626E+02  0.10380763268E+02  0.68157881845E+02  0.00000000000E+00 0. -1.
         -5    1    5    5    0  502 -0.55207141760E+02 -0.41706935974E+01  0.65405635739E+02  0.85820803847E+02  0.47000000000E+01 0.  1.
         13    1    6    6    0    0  0.71809321134E+02  0.46314211252E+02  0.60900556103E+02  0.10493075097E+03  0.00000000000E+00 0. -1.
        -14    1    6    6    0    0 -0.56006798048E+01  0.43021913402E+02  0.85833696057E+02  0.96175236032E+02  0.00000000000E+00 0.  1.
</event>
<event>
12    1  0.8500177E-002  0.2277665E+03  0.7818608E-02  0.1128542E+00
         21   -1    0    0  501  502  0.00000000000E+00  0.00000000000E+00  0.80461953229E+02  0.80461953229E+02  0.00000000000E+00 0.  1.
         21   -1    0    0  502  503 -0.00000000000E+00 -0.00000000000E+00 -0.10224738508E+04  0.10224738508E+04  0.00000000000E+00 0. -1.
         -6    2    1    2    0  503  0.11122783321E+03  0.93911319943E+02 -0.80958199379E+03  0.84101165191E+03  0.17517598889E+03 0.  0.
        -24    2    3    3    0    0  0.66613061589E+02  0.76750487585E+02 -0.26372190858E+03  0.29304240583E+03  0.77438163945E+02 0.  0.
          6    2    1    2  501    0 -0.11122783321E+03 -0.93911319943E+02 -0.13242990381E+03  0.26192415215E+03  0.17284563969E+03 0.  0.
         24    2    5    5    0    0 -0.11193069915E+03 -0.67414794761E+02 -0.30429858580E+02  0.15643169226E+03  0.80446641229E+02 0.  0.
          5    1    5    5  501    0  0.70286593567E+00 -0.26496525182E+02 -0.10200004523E+03  0.10549245989E+03  0.47000000000E+01 0. -1.
        -11    1    6    6    0    0 -0.38311104648E+02 -0.17573714682E+02  0.27492746527E+02  0.50323228222E+02  0.00000000000E+00 0.  1.
         12    1    6    6    0    0 -0.73619594498E+02 -0.49841080079E+02 -0.57922605107E+02  0.10610846403E+03  0.00000000000E+00 0. -1.
         -5    1    3    3    0  503  0.44614771621E+02  0.17160832358E+02 -0.54586008521E+03  0.54796924607E+03  0.47000000000E+01 0.  1.
         11    1    4    4    0    0  0.44686728015E+01  0.48801326346E+02 -0.17158669435E+03  0.17844756139E+03  0.00000000000E+00 0. -1.
        -12    1    4    4    0    0  0.62144388788E+02  0.27949161239E+02 -0.92135214230E+02  0.11459484444E+03  0.00000000000E+00 0.  1.
</event>
<event>
12    1  0.8500177E-002  0.2454753E+03  0.7818608E-02  0.1116883E+00
         21   -1    0    0  503  502  0.00000000000E+00  0.00000000000E+00  0.84407923046E+02  0.84407923046E+02  0.00000000000E+00 0.  1.
         21   -1    0    0  501  503 -0.00000000000E+00 -0.00000000000E+00 -0.13146089674E+04  0.13146089674E+04  0.00000000000E+00 0. -1.
          6    2    1    2  501    0  0.62513977824E+02 -0.15661982274E+03 -0.10955392291E+04  0.11227040218E+04  0.17838259957E+03 0.  0.
         24    2    3    3    0    0 -0.29257605295E+02 -0.65659447441E+02 -0.35152864348E+03  0.36754201613E+03  0.79671675792E+02 0.  0.
         -6    2    1    2    0  502 -0.62513977824E+02  0.15661982274E+03 -0.13466181528E+03  0.27631286865E+03  0.17256080258E+03 0.  0.
        -24    2    5    5    0    0 -0.66673363071E+02  0.18744738609E+03 -0.10272447316E+03  0.23148293479E+03  0.58738163219E+02 0.  0.
          5    1    3    3  501    0  0.91771583119E+02 -0.90960375294E+02 -0.74401058562E+03  0.75516200571E+03  0.47000000000E+01 0. -1.
        -11    1    4    4    0    0 -0.17497350170E+02  0.13085647133E+02 -0.35899827940E+02  0.42026052277E+02  0.00000000000E+00 0.  1.
         12    1    4    4    0    0 -0.11760255125E+02 -0.78745094574E+02 -0.31562881554E+03  0.32551596385E+03  0.00000000000E+00 0. -1.
         -5    1    5    5    0  502  0.41593852466E+01 -0.30827563353E+02 -0.31937342120E+02  0.44829933857E+02  0.47000000000E+01 0.  1.
         11    1    6    6    0    0  0.37793069889E+01  0.86981649032E+01 -0.20320957444E+02  0.22425042819E+02  0.00000000000E+00 0. -1.
        -12    1    6    6    0    0 -0.70452670060E+02  0.17874922119E+03 -0.82403515715E+02  0.20905789197E+03  0.00000000000E+00 0.  1.
</event>
<event>
12    1  0.8500177E-002  0.2741078E+03  0.7818608E-02  0.1098956E+00
         21   -1    0    0  503  502  0.00000000000E+00  0.00000000000E+00  0.33878533253E+03  0.33878533253E+03  0.00000000000E+00 0. -1.
         21   -1    0    0  501  503 -0.00000000000E+00 -0.00000000000E+00 -0.22715071524E+03  0.22715071524E+03  0.00000000000E+00 0. -1.
          6    2    1    2  501    0  0.16247772556E+03  0.13856515928E+03  0.99453425768E+02  0.29159231309E+03  0.17185976402E+03 0.  0.
         24    2    3    3    0    0  0.77483942124E+02  0.50391562872E+02  0.11512621276E+03  0.16803563550E+03  0.80242501443E+02 0.  0.
         -6    2    1    2    0  502 -0.16247772556E+03 -0.13856515928E+03  0.12181191516E+02  0.27434373468E+03  0.17180450710E+03 0.  0.
        -24    2    5    5    0    0 -0.41061416746E+02 -0.60274586273E+02 -0.48766633613E+02  0.11747416703E+03  0.78121249790E+02 0.  0.
          5    1    3    3  501    0  0.84993783433E+02  0.88173596406E+02 -0.15672786994E+02  0.12355667759E+03  0.47000000000E+01 0. -1.
        -13    1    4    4    0    0  0.47035682476E+02 -0.15391182343E+02  0.53640915322E+02  0.72983503044E+02  0.00000000000E+00 0.  1.
         14    1    4    4    0    0  0.30448259648E+02  0.65782745215E+02  0.61485297440E+02  0.95052132459E+02  0.00000000000E+00 0. -1.
         -5    1    5    5    0  502 -0.12141630881E+03 -0.78290573005E+02  0.60947825129E+02  0.15686956765E+03  0.47000000000E+01 0.  1.
         11    1    6    6    0    0 -0.51029480845E+02 -0.70689880249E+02 -0.26820352804E+02  0.91216217908E+02  0.00000000000E+00 0. -1.
        -12    1    6    6    0    0  0.99680640995E+01  0.10415293976E+02 -0.21946280809E+02  0.26257949117E+02  0.00000000000E+00 0.  1.
</event>
<event>
12    1  0.8500177E-002  0.2597821E+03  0.7818608E-02  0.1107289E+00
         21   -1    0    0  501  502  0.00000000000E+00  0.00000000000E+00  0.84482548608E+03  0.84482548608E+03  0.00000000000E+00 0. -1.
         21   -1    0    0  502  503 -0.00000000000E+00 -0.00000000000E+00 -0.85748421132E+02  0.85748421132E+02  0.00000000000E+00 0.  1.
         -6    2    1    2    0  503 -0.19393573884E+03 -0.23435766214E+02  0.25758988563E+03  0.36584053743E+03  0.17124965317E+03 0.  0.
        -24    2    3    3    0    0 -0.72921629834E+02 -0.69564465146E+02  0.14208068921E+03  0.19224118288E+03  0.81320177321E+02 0.  0.
          6    2    1    2  501    0  0.19393573884E+03  0.23435766214E+02  0.50148717932E+03  0.56473336978E+03  0.17109670361E+03 0.  0.
         24    2    5    5    0    0  0.15820407277E+03  0.65776928562E+02  0.45290380762E+03  0.49089598091E+03  0.80634187213E+02 0.  0.
          5    1    5    5  501    0  0.35731666073E+02 -0.42341162348E+02  0.48583371701E+02  0.73837388870E+02  0.47000000000E+01 0. -1.
        -11    1    6    6    0    0  0.97438903129E+02  0.14452933209E+02  0.16462369470E+03  0.19184417630E+03  0.00000000000E+00 0.  1.
         12    1    6    6    0    0  0.60765169638E+02  0.51323995353E+02  0.28828011291E+03  0.29905180461E+03  0.00000000000E+00 0. -1.
         -5    1    3    3    0  503 -0.12101410901E+03  0.46128698932E+02  0.11550919641E+03  0.17359935455E+03  0.47000000000E+01 0.  1.
         11    1    4    4    0    0 -0.53904715363E+01 -0.53095690040E+02  0.32537018513E+02  0.62504936268E+02  0.00000000000E+00 0. -1.
        -12    1    4    4    0    0 -0.67531158298E+02 -0.16468775106E+02  0.10954367070E+03  0.12973624661E+03  0.00000000000E+00 0.  1.
</event>
<event>
12    1  0.8500177E-002  0.1752055E+03  0.7818608E-02  0.1172866E+00
         21   -1    0    0  503  502  0.00000000000E+00  0.00000000000E+00  0.28637519022E+03  0.28637519022E+03  0.00000000000E+00 0.  1.
         21   -1    0    0  501  503 -0.00000000000E+00 -0.00000000000E+00 -0.10738666603E+03  0.10738666603E+03  0.00000000000E+00 0.  1.
          6    2    1    2  501    0  0.24044753739E+02  0.10501857356E+02  0.10834154620E+03  0.20484932198E+03  0.17186307018E+03 0.  0.
         24    2    3    3    0    0 -0.15763320716E+02  0.66077585071E+02  0.65608323821E+02  0.12409312966E+03  0.80497969823E+02 0.  0.
         -6    2    1    2    0  502 -0.24044753739E+02 -0.10501857356E+02  0.70646977991E+02  0.18891253428E+03  0.17322964792E+03 0.  0.
        -24    2    5    5    0    0  0.20887612160E+02  0.48003039157E+02  0.64690942183E+02  0.11475523670E+03  0.79014316678E+02 0.  0.
          5    1    3    3  501    0  0.39808074455E+02 -0.55575727714E+02  0.42733222374E+02  0.80756192315E+02  0.47000000000E+01 0. -1.
        -13    1    4    4    0    0  0.74365002920E+01  0.51409654622E+02  0.78211787808E+02  0.93890030765E+02  0.00000000000E+00 0.  1.
         14    1    4    4    0    0 -0.23199821008E+02  0.14667930449E+02 -0.12603463987E+02  0.30203098896E+02  0.00000000000E+00 0. -1.
         -5    1    5    5    0  502 -0.44932365899E+02 -0.58504896514E+02  0.59560358077E+01  0.74157297577E+02  0.47000000000E+01 0.  1.
         13    1    6    6    0    0 -0.16012248458E+02  0.31433527173E+02  0.65391192829E+02  0.74299844083E+02  0.00000000000E+00 0. -1.
        -14    1    6    6    0    0  0.36899860618E+02  0.16569511985E+02 -0.70025064537E+00  0.40455392620E+02  0.00000000000E+00 0.  1.
</event>
<event>
12    1  0.8500177E-002  0.2030227E+03  0.7818608E-02  0.1147231E+00
         21   -1    0    0  501  502  0.00000000000E+00  0.00000000000E+00  0.65487287935E+02  0.65487287935E+02  0.00000000000E+00 0. -1.
         21   -1    0    0  502  503 -0.00000000000E+00 -0.00000000000E+00 -0.63094600941E+03  0.63094600941E+03  0.00000000000E+00 0. -1.
         -6    2    1    2    0  503  0.78112853794E+02  0.73807142011E+02 -0.26406564390E+03  0.33303821014E+03  0.17214724217E+03 0.  0.
        -24    2    3    3    0    0  0.11015350480E+03  0.91526124630E+02 -0.22860465962E+03  0.28185093567E+03  0.81664150189E+02 0.  0.
          6    2    1    2  501    0 -0.78112853794E+02 -0.73807142011E+02 -0.30139307758E+03  0.36339508721E+03  0.17224717720E+03 0.  0.
         24    2    5    5    0    0 -0.16480446909E+02 -0.46436299315E+02 -0.62044512439E+02  0.11468332182E+03  0.82914460469E+02 0.  0.
          5    1    5    5  501    0 -0.61632406885E+02 -0.27370842697E+02 -0.23934856514E+03  0.24871176539E+03  0.47000000000E+01 0. -1.
        -11    1    6    6    0    0  0.25754860919E+02 -0.15491327823E+01 -0.43049242931E+02  0.50189142155E+02  0.00000000000E+00 0.  1.
         12    1    6    6    0    0 -0.42235307828E+02 -0.44887166532E+02 -0.18995269509E+02  0.64494179663E+02  0.00000000000E+00 0. -1.
         -5    1    3    3    0  503 -0.32040651010E+02 -0.17718982619E+02 -0.35460984279E+02  0.51187274475E+02  0.47000000000E+01 0.  1.
         13    1    4    4    0    0  0.66342867635E+02  0.99589475272E+02 -0.15502363116E+03  0.19583606892E+03  0.00000000000E+00 0. -1.
        -14    1    4    4    0    0  0.43810637169E+02 -0.80633506423E+01 -0.73581028460E+02  0.86014866750E+02  0.00000000000E+00 0.  1.
</event>
<event>
12    1  0.8500177E-002  0.2125398E+03  0.7818608E-02  0.1139745E+00
         21   -1    0    0  501  502  0.00000000000E+00  0.00000000000E+00  0.77763003202E+02  0.77763003202E+02  0.00000000000E+00 0. -1.
         21   -1    0    0  502  503 -0.00000000000E+00 -0.00000000000E+00 -0.84689813155E+03  0.84689813155E+03  0.00000000000E+00 0. -1.
         -6    2    1    2    0  503 -0.75197551966E+02  0.98668646215E+02 -0.64430194117E+03  0.67817283814E+03  0.17147371062E+03 0.  0.
        -24    2    3    3    0    0 -0.10063109033E+03  0.10146662274E+03 -0.62454863953E+03  0.64550823234E+03  0.78725999610E+02 0.  0.
          6    2    1    2  501    0  0.75197551966E+02 -0.98668646215E+02 -0.12483318718E+03  0.24648829661E+03  0.17257746717E+03 0.  0.
         24    2    5    5    0    0  0.31056080520E+02 -0.12557130003E+03 -0.12159428823E+03  0.19448057843E+03  0.79403355899E+02 0.  0.
          5    1    5    5  501    0  0.44141471446E+02  0.26902653811E+02 -0.32388989430E+01  0.52007718176E+02  0.47000000000E+01 0. -1.
        -11    1    6    6    0    0 -0.23976821425E+02 -0.15877076365E+02 -0.28022755365E+02  0.40152762517E+02  0.00000000000E+00 0.  1.
         12    1    6    6    0    0  0.55032901945E+02 -0.10969422366E+03 -0.93571532870E+02  0.15432781591E+03  0.00000000000E+00 0. -1.
         -5    1    3    3    0  503  0.25433538363E+02 -0.27979765265E+01 -0.19753301638E+02  0.32664605798E+02  0.47000000000E+01 0.  1.
         11    1    4    4    0    0  0.11446856943E+01  0.38925563586E+02 -0.22996559666E+03  0.23323954521E+03  0.00000000000E+00 0. -1.
        -12    1    4    4    0    0 -0.10177577602E+03  0.62541059156E+02 -0.39458304287E+03  0.41226868713E+03  0.00000000000E+00 0.  1.
</event>
<event>
12    1  0.8500177E-002  0.2637343E+03  0.7818608E-02  0.1105202E+00
         21   -1    0    0  503  502  0.00000000000E+00  0.00000000000E+00  0.57809478768E+02  0.57809478768E+02  0.00000000000E+00 0.  1.
         21   -1    0    0  501  503 -0.00000000000E+00 -0.00000000000E+00 -0.19567576004E+04  0.19567576004E+04  0.00000000000E+00 0.  1.
          6    2    1    2  501    0 -0.19851027786E+03 -0.17522299569E+02 -0.15760512751E+04  0.15976520554E+04  0.16982669698E+03 0.  0.
         24    2    3    3    0    0 -0.17056309837E+03 -0.70536853046E+02 -0.11533239779E+04  0.11706719089E+04  0.79052527504E+02 0.  0.
         -6    2    1    2    0  502  0.19851027786E+03  0.17522299569E+02 -0.32289684655E+03  0.41691502378E+03  0.17274953587E+03 0.  0.
        -24    2    5    5    0    0  0.84818110704E+02  0.43675117215E+02 -0.85788889488E+02  0.15261944673E+03  0.82651885608E+02 0.  0.
          5    1    3    3  501    0 -0.27947179490E+02  0.53014553477E+02 -0.42272729714E+03  0.42698014646E+03  0.47000000000E+01 0. -1.
        -11    1    4    4    0    0 -0.13777268169E+03 -0.76387243756E+02 -0.10587153887E+04  0.10703712427E+04  0.00000000000E+00 0.  1.
         12    1    4    4    0    0 -0.32790416679E+02  0.58503907099E+01 -0.94608589211E+02  0.10030066625E+03  0.00000000000E+00 0. -1.
         -5    1    5    5    0  502  0.11369216715E+03 -0.26152817645E+02 -0.23710795706E+03  0.26429557704E+03  0.47000000000E+01 0.  1.
         11    1    6    6    0    0  0.45318260569E+01 -0.15689653310E+02 -0.39138646826E+02  0.42409154009E+02  0.00000000000E+00 0. -1.
        -12    1    6    6    0    0  0.80286284647E+02  0.59364770525E+02 -0.46650242661E+02  0.11021029272E+03  0.00000000000E+00 0.  1.
</event>
<event>
12    1  0.8500177E-002  0.1879916E+03  0.7818608E-02  0.1160344E+00
         21   -1    0    0  501  502  0.00000000000E+00  0.00000000000E+00  0.11721649570E+03  0.11721649570E+03  0.00000000000E+00 0.  1.
         21   -1    0    0  502  503 -0.00000000000E+00 -0.00000000000E+00 -0.82063112388E+03  0.82063112388E+03  0.00000000000E+00 0.  1.
         -6    2    1    2    0  503  0.49945959999E+02  0.59150588920E+02 -0.72473091619E+03  0.74865133201E+03  0.17102784844E+03 0.  0.
        -24    2    3    3    0    0 -0.33961506314E+02  0.26879379751E+01 -0.35287156526E+03  0.36325548261E+03  0.79218654103E+02 0.  0.
          6    2    1    2  501    0 -0.49945959999E+02 -0.59150588920E+02  0.21316288006E+02  0.18919628757E+03  0.17131100375E+03 0.  0.
         24    2    5    5    0    0 -0.69362658737E+02 -0.15788344408E+02  0.64530511628E+02  0.12480023519E+03  0.79689783075E+02 0.  0.
          5    1    5    5  501    0  0.19416698738E+02 -0.43362244512E+02 -0.43214223622E+02  0.64396052381E+02  0.47000000000E+01 0. -1.
        -13    1    6    6    0    0  0.21581271303E+01 -0.29558381418E+02  0.35870254551E+02  0.46529889172E+02  0.00000000000E+00 0.  1.
         14    1    6    6    0    0 -0.71520785867E+02  0.13770037010E+02  0.28660257077E+02  0.78270346019E+02  0.00000000000E+00 0. -1.
         -5    1    3    3    0  503  0.83907466313E+02  0.56462650945E+02 -0.37185935093E+03  0.38539584939E+03  0.47000000000E+01 0.  1.
         11    1    4    4    0    0 -0.50045487686E+02  0.27108045962E+02 -0.24026345364E+03  0.24691278652E+03  0.00000000000E+00 0. -1.
        -12    1    4    4    0    0  0.16083981373E+02 -0.24420107986E+02 -0.11260811162E+03  0.11634269609E+03  0.00000000000E+00 0.  1.
</event>
<event>
12    1  0.8500177E-002  0.1992269E+03  0.7818608E-02  0.1152598E+00
         21   -1    0    0  503  502  0.00000000000E+00  0.00000000000E+00  0.53127562086E+03  0.53127562086E+03  0.00000000000E+00 0.  1.
         21   -1    0    0  501  503 -0.00000000000E+00 -0.00000000000E+00 -0.75676323847E+02  0.75676323847E+02  0.00000000000E+00 0.  1.
          6    2    1    2  501    0  0.95159618275E+02  0.33039345034E+02  0.14653956895E+03  0.23924382754E+03  0.16005253036E+03 0.  0.
         24    2    3    3    0    0  0.73771595484E+02  0.79014356478E+02  0.12458470536E+03  0.18378884371E+03  0.81064625028E+02 0.  0.
         -6    2    1    2    0  502 -0.95159618275E+02 -0.33039345034E+02  0.30905972806E+03  0.36770811717E+03  0.17188482380E+03 0.  0.
        -24    2    5    5    0    0 -0.73804455023E+02  0.19296246211E+02  0.28445820137E+03  0.30588269987E+03  0.82633619400E+02 0.  0.
          5    1    3    3  501    0  0.21388022791E+02 -0.45975011444E+02  0.21954863589E+02  0.55454983829E+02  0.47000000000E+01 0. -1.
        -13    1    4    4    0    0  0.35453384034E+02  0.58496644171E+02  0.12246340535E+03  0.14027147061E+03  0.00000000000E+00 0.  1.
         14    1    4    4    0    0  0.38318211450E+02  0.20517712308E+02  0.21213000128E+01  0.43517373092E+02  0.00000000000E+00 0. -1.
         -5    1    5    5    0  502 -0.21355163252E+02 -0.52335591246E+02  0.24601526690E+02  0.61825417298E+02  0.47000000000E+01 0.  1.
         11    1    6    6    0    0 -0.83610790182E+02  0.28574142867E+01  0.16601732605E+03  0.18590503382E+03  0.00000000000E+00 0. -1.
        -12    1    6    6    0    0  0.98063351595E+01  0.16438831924E+02  0.11844087532E+03  0.11997766605E+03  0.00000000000E+00 0.  1.
</event>
<event>
12    1  0.8500177E-002  0.1772011E+03  0.7818608E-02  0.1170628E+00
         21   -1    0    0  501  502  0.00000000000E+00  0.00000000000E+00  0.32643804797E+03  0.32643804797E+03  0.00000000000E+00 0.  1.
         21   -1    0    0  502  503 -0.00000000000E+00 -0.00000000000E+00 -0.11526511885E+03  0.11526511885E+03  0.00000000000E+00 0.  1.
         -6    2    1    2    0  503 -0.38032442245E+02 -0.22406461219E+02  0.15199036032E+02  0.17749491449E+03  0.17124519791E+03 0.  0.
        -24    2    3    3    0    0  0.40072221845E+02  0.80295976166E+01  0.30259725641E+02  0.92197748060E+02  0.76905892817E+02 0.  0.
          6    2    1    2  501    0  0.38032442245E+02  0.22406461219E+02  0.19597389310E+03  0.26420825232E+03  0.17161502747E+03 0.  0.
         24    2    5    5    0    0 -0.44969028486E+02 -0.15530362601E+01  0.11171700712E+03  0.14344147503E+03  0.77911113682E+02 0.  0.
          5    1    5    5  501    0  0.83001470731E+02  0.23959497479E+02  0.84256885975E+02  0.12076677729E+03  0.47000000000E+01 0. -1.
        -13    1    6    6    0    0 -0.24518229064E+02  0.37185438975E+02  0.42739477738E+02  0.61729760938E+02  0.00000000000E+00 0.  1.
         14    1    6    6    0    0 -0.20450799422E+02 -0.38738475235E+02  0.68977529383E+02  0.81711714095E+02  0.00000000000E+00 0. -1.
         -5    1    3    3    0  503 -0.78104664090E+02 -0.30436058835E+02 -0.15060689610E+02  0.85297166434E+02  0.47000000000E+01 0.  1.
         13    1    4    4    0    0 -0.37963208480E+01 -0.77006317748E+01  0.43028452321E+02  0.43876639466E+02  0.00000000000E+00 0. -1.
        -14    1    4    4    0    0  0.43868542693E+02  0.15730229391E+02 -0.12768726680E+02  0.48321108594E+02  0.00000000000E+00 0.  1.
</event>
<event>
12    1  0.8500177E-002  0.1794263E+03  0.7818608E-02  0.1168568E+00
         21   -1    0    0  503  502  0.00000000000E+00  0.00000000000E+00  0.18073100987E+03  0.18073100987E+03  0.00000000000E+00 0.  1.
         21   -1    0    0  501  503 -0.00000000000E+00 -0.00000000000E+00 -0.10543564232E+04  0.10543564232E+04  0.00000000000E+00 0.  1.
          6    2    1    2  501    0  0.12205231164E-01 -0.46900427239E+02 -0.99987506902E+03  0.10156956060E+04  0.17230136431E+03 0.  0.
         24    2    3    3    0    0  0.54581762127E+02 -0.34696985905E+02 -0.39044437319E+03  0.40368692668E+03  0.79581886328E+02 0.  0.
         -6    2    1    2    0  502 -0.12205231164E-01  0.46900427239E+02  0.12624965573E+03  0.21939182705E+03  0.17318818660E+03 0.  0.
        -24    2    5    5    0    0 -0.55258195873E+02  0.28993658860E+02  0.18842980584E+02  0.97199127994E+02  0.72100708043E+02 0.  0.
          5    1    3    3  501    0 -0.54569556896E+02 -0.12203441334E+02 -0.60943069583E+03  0.61200867930E+03  0.47000000000E+01 0. -1.
        -13    1    4    4    0    0  0.15068495849E+02  0.21621117184E+02 -0.51727903832E+02  0.58054356514E+02  0.00000000000E+00 0.  1.
         14    1    4    4    0    0  0.39513266277E+02 -0.56318103089E+02 -0.33871646936E+03  0.34563257017E+03  0.00000000000E+00 0. -1.
         -5    1    5    5    0  502  0.55245990642E+02  0.17906768379E+02  0.10740667515E+03  0.12219269905E+03  0.47000000000E+01 0.  1.
         11    1    6    6    0    0  0.75649576318E+01  0.22921481898E+02 -0.11993522931E+02  0.26953061212E+02  0.00000000000E+00 0. -1.
        -12    1    6    6    0    0 -0.62823153505E+02  0.60721769623E+01  0.30836503515E+02  0.70246066783E+02  0.00000000000E+00 0.  1.
</event>
<event>
12    1  0.8500177E-002  0.3010659E+03  0.7818608E-02  0.1084783E+00
         21   -1    0    0  501  502  0.00000000000E+00  0.00000000000E+00  0.65249220316E+03  0.65249220316E+03  0.00000000000E+00 0. -1.
         21   -1    0    0  502  503 -0.00000000000E+00 -0.00000000000E+00 -0.15401171940E+03  0.15401171940E+03  0.00000000000E+00 0. -1.
         -6    2    1    2    0  503  0.12752806106E+02  0.24638359387E+03  0.12162960840E+03  0.32415836415E+03  0.17151493817E+03 0.  0.
        -24    2    3    3    0    0  0.50448070406E+02  0.10042616073E+03  0.10407902760E+03  0.17232089141E+03  0.78940636334E+02 0.  0.
          6    2    1    2  501    0 -0.12752806106E+02 -0.24638359387E+03  0.37685087536E+03  0.48234555841E+03  0.17254896715E+03 0.  0.
         24    2    5    5    0    0 -0.61605212056E+02 -0.17735489495E+03  0.19702211070E+03  0.28356931878E+03  0.79648512439E+02 0.  0.
          5    1    5    5  501    0  0.48852405951E+02 -0.69028698927E+02  0.17982876466E+03  0.19877623963E+03  0.47000000000E+01 0. -1.
        -11    1    6    6    0    0 -0.32486072409E+02 -0.11076513569E+03  0.63995373127E+02  0.13198358976E+03  0.00000000000E+00 0.  1.
         12    1    6    6    0    0 -0.29119139647E+02 -0.66589759255E+02  0.13302673758E+03  0.15158572902E+03  0.00000000000E+00 0. -1.
         -5    1    3    3    0  503 -0.37695264300E+02  0.14595743315E+03  0.17550580801E+02  0.15183747274E+03  0.47000000000E+01 0.  1.
         11    1    4    4    0    0  0.63432789326E+02  0.90577528317E+02  0.10902641477E+03  0.15528929943E+03  0.00000000000E+00 0. -1.
        -12    1    4    4    0    0 -0.12984718921E+02  0.98486324111E+01 -0.49473871719E+01  0.17031591988E+02  0.00000000000E+00 0.  1.
</event>
<event>
12    1  0.8500177E-002  0.2515873E+03  0.7818608E-02  0.1112447E+00
         21   -1    0    0  503  502  0.00000000000E+00  0.00000000000E+00  0.58977298617E+03  0.58977298617E+03  0.00000000000E+00 0.  1.
         21   -1    0    0  501  503 -0.00000000000E+00 -0.00000000000E+00 -0.41607240446E+03  0.41607240446E+03  0.00000000000E+00 0.  1.
          6    2    1    2  501    0  0.17837486478E+03  0.42948932807E+02 -0.34660974609E+03  0.42829250088E+03  0.17214513355E+03 0.  0.
         24    2    3    3    0    0  0.16443146306E+03 -0.46857967959E+01 -0.32693708915E+03  0.37469595857E+03  0.80309017989E+02 0.  0.
         -6    2    1    2    0  502 -0.17837486478E+03 -0.42948932807E+02  0.52031032780E+03  0.57755288975E+03  0.17082827640E+03 0.  0.
        -24    2    5    5    0    0 -0.80821218033E+02 -0.81784034310E+02  0.35922006615E+03  0.38520673953E+03  0.78259048695E+02 0.  0.
          5    1    3    3  501    0  0.13943401720E+02  0.47634729603E+02 -0.19672656945E+02  0.53596542306E+02  0.47000000000E+01 0. -1.
        -13    1    4    4    0    0  0.13075957669E+03  0.30588508107E+02 -0.23985147612E+03  0.27488625706E+03  0.00000000000E+00 0.  1.
         14    1    4    4    0    0  0.33671886368E+02 -0.35274304903E+02 -0.87085613033E+02  0.99809701509E+02  0.00000000000E+00 0. -1.
         -5    1    5    5    0  502 -0.97553646748E+02  0.38835101503E+02  0.16109026165E+03  0.19234615021E+03  0.47000000000E+01 0.  1.
         13    1    6    6    0    0 -0.30239274091E+01 -0.36859323144E+02  0.19053243339E+03  0.19408854169E+03  0.00000000000E+00 0. -1.
        -14    1    6    6    0    0 -0.77797290624E+02 -0.44924711167E+02  0.16868763276E+03  0.19111819785E+03  0.00000000000E+00 0.  1.
</event>
<event>
12    1  0.8500177E-002  0.2224141E+03  0.7818608E-02  0.1132216E+00
         21   -1    0    0  501  502  0.00000000000E+00  0.00000000000E+00  0.30550759038E+03  0.30550759038E+03  0.00000000000E+00 0.  1.
         21   -1    0    0  502  503 -0.00000000000E+00 -0.00000000000E+00 -0.43741792043E+03  0.43741792043E+03  0.00000000000E+00 0.  1.
         -6    2    1    2    0  503 -0.57071175373E+02  0.13001023245E+03 -0.36097213660E+03  0.42364923605E+03  0.17034674109E+03 0.  0.
        -24    2    3    3    0    0 -0.21804077288E+02  0.33281318943E+02 -0.74930299029E+02  0.11960602570E+03  0.84308882654E+02 0.  0.
          6    2    1    2  501    0  0.57071175373E+02 -0.13001023245E+03  0.22906180655E+03  0.31927627475E+03  0.17119652099E+03 0.  0.
         24    2    5    5    0    0  0.71744046417E+02 -0.15624102302E+03  0.17880539899E+03  0.26052983640E+03  0.79661530708E+02 0.  0.
          5    1    5    5  501    0 -0.14672871044E+02  0.26230790571E+02  0.50256407560E+02  0.58746438355E+02  0.47000000000E+01 0. -1.
        -11    1    6    6    0    0  0.71824044823E+02 -0.95628688050E+02  0.77615168756E+02  0.14257508132E+03  0.00000000000E+00 0.  1.
         12    1    6    6    0    0 -0.79998405477E-01 -0.60612334973E+02  0.10119023023E+03  0.11795475508E+03  0.00000000000E+00 0. -1.
         -5    1    3    3    0  503 -0.35267098085E+02  0.96728913509E+02 -0.28604183757E+03  0.30404321035E+03  0.47000000000E+01 0.  1.
         13    1    4    4    0    0 -0.49678543149E+02  0.10568939416E+02 -0.21385757820E+02  0.55109080625E+02  0.00000000000E+00 0. -1.
        -14    1    4    4    0    0  0.27874465861E+02  0.22712379527E+02 -0.53544541209E+02  0.64496945076E+02  0.00000000000E+00 0.  1.
</event>
<event>
12    1  0.8500177E-002  0.3210735E+03  0.7818608E-02  0.1075250E+00
         21   -1    0    0  501  502  0.00000000000E+00  0.00000000000E+00  0.96182548872E+03  0.96182548872E+03  0.00000000000E+00 0. -1.
         21   -1    0    0  502  503 -0.00000000000E+00 -0.00000000000E+00 -0.15910447331E+03  0.15910447331E+03  0.00000000000E+00 0.  1.
         -6    2    1    2    0  503 -0.23506494135E+03 -0.13625241654E+03  0.80683063948E+02  0.33105580166E+03  0.17107875187E+03 0.  0.
        -24    2    3    3    0    0 -0.14509806147E+03 -0.10054230600E+02  0.30946735867E+02  0.16821903082E+03  0.78647357696E+02 0.  0.
          6    2    1    2  501    0  0.23506494135E+03  0.13625241654E+03  0.72203795146E+03  0.78987416036E+03  0.16953506476E+03 0.  0.
         24    2    5    5    0    0  0.14028146176E+03  0.14419862345E+03  0.41919146588E+03  0.47240741558E+03  0.83517361747E+02 0.  0.
          5    1    5    5  501    0  0.94783479594E+02 -0.79462069106E+01  0.30284648558E+03  0.31746674477E+03  0.47000000000E+01 0. -1.
        -13    1    6    6    0    0  0.79751272193E+02  0.10391408704E+03  0.18141868446E+03  0.22376581949E+03  0.00000000000E+00 0.  1.
         14    1    6    6    0    0  0.60530189567E+02  0.40284536409E+02  0.23777278142E+03  0.24864159609E+03  0.00000000000E+00 0. -1.
         -5    1    3    3    0  503 -0.89966879884E+02 -0.12619818594E+03  0.49736328081E+02  0.16283677085E+03  0.47000000000E+01 0.  1.
         11    1    4    4    0    0 -0.14505250431E+03 -0.14826277225E+02  0.45628675336E+02  0.15278096581E+03  0.00000000000E+00 0. -1.
        -12    1    4    4    0    0 -0.45557162584E-01  0.47720466245E+01 -0.14681939469E+02  0.15438065002E+02  0.00000000000E+00 0.  1.
</event>
<event>
12    1  0.8500177E-002  0.1815712E+03  0.7818608E-02  0.1166560E+00
         21   -1    0    0  503  502  0.00000000000E+00  0.00000000000E+00  0.19208623339E+03  0.19208623339E+03  0.00000000000E+00 0.  1.
         21   -1    0    0  501  503 -0.00000000000E+00 -0.00000000000E+00 -0.17932300916E+03  0.17932300916E+03  0.00000000000E+00 0.  1.
          6    2    1    2  501    0  0.38142207722E+02  0.37788457663E+02 -0.34654683525E+02  0.18374850192E+03  0.17227817426E+03 0.  0.
         24    2    3    3    0    0  0.24714772553E+02  0.89781004566E+02 -0.42495454748E+02  0.12927751292E+03  0.78964314159E+02 0.  0.
         -6    2    1    2    0  502 -0.38142207722E+02 -0.37788457663E+02  0.47417907752E+02  0.18766074063E+03  0.17345114602E+03 0.  0.
        -24    2    5    5    0    0  0.78615505590E+01 -0.82701827699E+02  0.44398915433E+02  0.12312578189E+03  0.79292485100E+02 0.  0.
          5    1    3    3  501    0  0.13427435169E+02 -0.51992546903E+02  0.78407712225E+01  0.54470988995E+02  0.47000000000E+01 0. -1.
        -11    1    4    4    0    0  0.30015416234E+02  0.16797475680E+01  0.25800165699E+01  0.30172889306E+02  0.00000000000E+00 0.  1.
         12    1    4    4    0    0 -0.53006436811E+01  0.88101256998E+02 -0.45075471317E+02  0.99104623618E+02  0.00000000000E+00 0. -1.
         -5    1    5    5    0  502 -0.46003758281E+02  0.44913370036E+02  0.30189923184E+01  0.64534958732E+02  0.47000000000E+01 0.  1.
         13    1    6    6    0    0  0.24925359561E+02 -0.13729842421E+02 -0.13475935266E+02  0.31486234348E+02  0.00000000000E+00 0. -1.
        -14    1    6    6    0    0 -0.17063809002E+02 -0.68971985278E+02  0.57874850699E+02  0.91639547545E+02  0.00000000000E+00 0.  1.
</event>
<event>
12    1  0.8500177E-002  0.2225212E+03  0.7818608E-02  0.1132042E+00
         21   -1    0    0  501  502  0.00000000000E+00  0.00000000000E+00  0.59314410706E+03  0.59314410706E+03  0.00000000000E+00 0. -1.
         21   -1    0    0  502  503 -0.00000000000E+00 -0.00000000000E+00 -0.12457473464E+03  0.12457473464E+03  0.00000000000E+00 0.  1.
         -6    2    1    2    0  503  0.66806889991E+02  0.12434076617E+03  0.28094861933E+02  0.22428773177E+03  0.17202290161E+03 0.  0.
        -24    2    3    3    0    0  0.68347603092E+02  0.29251879085E+02 -0.26151269809E+02  0.11470213486E+03  0.83340407663E+02 0.  0.
          6    2    1    2  501    0 -0.66806889991E+02 -0.12434076617E+03  0.44047451049E+03  0.49343110993E+03  0.17185074681E+03 0.  0.
         24    2    5    5    0    0 -0.77077490212E+02 -0.49176211958E+02  0.37068747358E+03  0.39024430865E+03  0.80760002760E+02 0.  0.
          5    1    5    5  501    0  0.10270600220E+02 -0.75164554207E+02  0.69787036906E+02  0.10318680128E+03  0.47000000000E+01 0. -1.
        -11    1    6    6    0    0  0.99364243673E+00 -0.30397858009E+02  0.41784633792E+02  0.51681454294E+02  0.00000000000E+00 0.  1.
         12    1    6    6    0    0 -0.78071132648E+02 -0.18778353949E+02  0.32890283979E+03  0.33856285436E+03  0.00000000000E+00 0. -1.
         -5    1    3    3    0  503 -0.15407131009E+01  0.95088887080E+02  0.54246131742E+02  0.10958559692E+03  0.47000000000E+01 0.  1.
         13    1    4    4    0    0  0.62651255872E+02  0.33537478571E+02  0.15259050812E+02  0.72682741851E+02  0.00000000000E+00 0. -1.
        -14    1    4    4    0    0  0.56963472199E+01 -0.42855994858E+01 -0.41410320621E+02  0.42019393005E+02  0.00000000000E+00 0.  1.
</event>
<event>
12    1  0.8500177E-002  0.3192040E+03  0.7818608E-02  0.1076616E+00
         21   -1    0    0  503  502  0.00000000000E+00  0.00000000000E+00  0.13726285400E+03  0.13726285400E+03  0.00000000000E+00 0.  1.
         21   -1    0    0  501  503 -0.00000000000E+00 -0.00000000000E+00 -0.73830395652E+03  0.73830395652E+03  0.00000000000E+00 0. -1.
          6    2    1    2  501    0  0.10941046870E+03  0.23783102388E+03 -0.34830601740E+03  0.47244923760E+03  0.18263886163E+03 0.  0.
         24    2    3    3    0    0  0.60995515364E+02  0.15055133587E+03 -0.10455379433E+03  0.20901236111E+03  0.79802967121E+02 0.  0.
         -6    2    1    2    0  502 -0.10941046870E+03 -0.23783102388E+03 -0.25273508512E+03  0.40311757293E+03  0.17347768667E+03 0.  0.
        -24    2    5    5    0    0 -0.14329288003E+03 -0.16349436498E+03 -0.17265168140E+03  0.28862129261E+03  0.78932823410E+02 0.  0.
          5    1    3    3  501    0  0.48414953334E+02  0.87279688005E+02 -0.24375222307E+03  0.26343687649E+03  0.47000000000E+01 0. -1.
        -13    1    4    4    0    0  0.49421368647E+02  0.14986707662E+03 -0.11348701991E+03  0.19437570841E+03  0.00000000000E+00 0.  1.
         14    1    4    4    0    0  0.11574146716E+02  0.68425924715E+00  0.89332255764E+01  0.14636652695E+02  0.00000000000E+00 0. -1.
         -5    1    5    5    0  502  0.33882411337E+02 -0.74336658898E+02 -0.80083403720E+02  0.11449628031E+03  0.47000000000E+01 0.  1.
         11    1    6    6    0    0 -0.97669628080E+02 -0.96510791654E+02 -0.15230327162E+03  0.20506090729E+03  0.00000000000E+00 0. -1.
        -12    1    6    6    0    0 -0.45623251955E+02 -0.66983573323E+02 -0.20348409783E+02  0.83560385320E+02  0.00000000000E+00 0.  1.
</event>
<event>
12    1  0.8500177E-002  0.2221266E+03  0.7818608E-02  0.1132329E+00
         21   -1    0    0  501  502  0.00000000000E+00  0.00000000000E+00  0.78166397391E+03  0.78166397391E+03  0.00000000000E+00 0.  1.
         21   -1    0    0  502  503 -0.00000000000E+00 -0.00000000000E+00 -0.67807759719E+02  0.67807759719E+02  0.00000000000E+00 0. -1.
         -6    2    1    2    0  503 -0.10706499590E+03 -0.91338036200E+02  0.24496929585E+03  0.33068140279E+03  0.17185657984E+03 0.  0.
        -24    2    3    3    0    0 -0.13561213023E+03 -0.92095799057E+02  0.16516578044E+03  0.24579203858E+03  0.79130936633E+02 0.  0.
          6    2    1    2  501    0  0.10706499590E+03  0.91338036200E+02  0.46888691834E+03  0.51879033084E+03  0.17170589677E+03 0.  0.
         24    2    5    5    0    0  0.10689574870E+03  0.93025859403E+01  0.34600925531E+03  0.37096998781E+03  0.79894229447E+02 0.  0.
          5    1    5    5  501    0  0.16924720063E+00  0.82035450259E+02  0.12287766303E+03  0.14782034304E+03  0.47000000000E+01 0. -1.
        -11    1    6    6    0    0  0.67598763304E+02  0.39823845010E+02  0.15687849990E+03  0.17540352095E+03  0.00000000000E+00 0.  1.
         12    1    6    6    0    0  0.39296985395E+02 -0.30521259070E+02  0.18913075541E+03  0.19556646686E+03  0.00000000000E+00 0. -1.
         -5    1    3    3    0  503  0.28547134328E+02  0.75776285687E+00  0.79803515418E+02  0.84889364209E+02  0.47000000000E+01 0.  1.
         11    1    4    4    0    0 -0.13696293635E+03 -0.60987785457E+02  0.12662902608E+03  0.19624797109E+03  0.00000000000E+00 0. -1.
        -12    1    4    4    0    0  0.13508061265E+01 -0.31108013599E+02  0.38536754354E+02  0.49544067490E+02  0.00000000000E+00 0.  1.
</event>
<event>
12    1  0.8500177E-002  0.2459379E+03  0.7818608E-02  0.1116070E+00
         21   -1    0    0  501  502  0.00000000000E+00  0.00000000000E+00  0.14147734583E+03  0.14147734583E+03  0.00000000000E+00 0.  1.
         21   -1    0    0  502  503 -0.00000000000E+00 -0.00000000000E+00 -0.75051983682E+03  0.75051983682E+03  0.00000000000E+00 0. -1.
         -6    2    1    2    0  503  0.17263292047E+03 -0.20160399450E+02 -0.59756061232E+03  0.64579136395E+03  0.17250864737E+03 0.  0.
        -24    2    3    3    0    0  0.13250529575E+02 -0.13106365650E+02 -0.17102938305E+03  0.19037563578E+03  0.81513676629E+02 0.  0.
          6    2    1    2  501    0 -0.17263292047E+03  0.20160399450E+02 -0.11481878668E+02  0.24620581871E+03  0.17400259967E+03 0.  0.
         24    2    5    5    0    0 -0.19902695351E+03  0.99629428944E+01 -0.21929013710E+02  0.21567934281E+03  0.79534324766E+02 0.  0.
          5    1    5    5  501    0  0.26394033040E+02  0.10197456556E+02  0.10447135042E+02  0.30526475901E+02  0.47000000000E+01 0. -1.
        -13    1    6    6    0    0 -0.10127451397E+03  0.16091810572E+02  0.27218310597E+02  0.10609575854E+03  0.00000000000E+00 0.  1.
         14    1    6    6    0    0 -0.97752439540E+02 -0.61288676773E+01 -0.49147324307E+02  0.10958358427E+03  0.00000000000E+00 0. -1.
         -5    1    3    3    0  503  0.15938239090E+03 -0.70540338004E+01 -0.42653122927E+03  0.45541572817E+03  0.47000000000E+01 0.  1.
         13    1    4    4    0    0  0.12403240509E+02  0.29231535245E+02 -0.11966276045E+03  0.12380427807E+03  0.00000000000E+00 0. -1.
        -14    1    4    4    0    0  0.84728906569E+00 -0.42337900895E+02 -0.51366622597E+02  0.66571357715E+02  0.00000000000E+00 0.  1.
</event>
<event>
12    1  0.8500177E-002  0.1880722E+03  0.7818608E-02  0.1161832E+00
         21   -1    0    0  503  502  0.00000000000E+00  0.00000000000E+00  0.21375126083E+03  0.21375126083E+03  0.00000000000E+00 0. -1.
         21   -1    0    0  501  503 -0.00000000000E+00 -0.00000000000E+00 -0.69433729224E+03  0.69433729224E+03  0.00000000000E+00 0. -1.
          6    2    1    2  501    0  0.82557630826E+01  0.77617332599E+02 -0.63776364367E+03  0.66298458749E+03  0.16344262026E+03 0.  0.
         24    2    3    3    0    0 -0.56250186965E+02  0.50871325703E+02 -0.42304814569E+03  0.43715013142E+03  0.79865690472E+02 0.  0.
         -6    2    1    2    0  502 -0.82557630826E+01 -0.77617332599E+02  0.15717761226E+03  0.24510396558E+03  0.17110974316E+03 0.  0.
        -24    2    5    5    0    0 -0.25524603155E+01  0.19804069511E+02  0.10445029570E+03  0.13408271913E+03  0.81667588895E+02 0.  0.
          5    1    3    3  501    0  0.64505950048E+02  0.26746006896E+02 -0.21471549798E+03  0.22583445607E+03  0.47000000000E+01 0. -1.
        -13    1    4    4    0    0 -0.26122893927E+02 -0.60043999760E+01 -0.36524711878E+02  0.45304668457E+02  0.00000000000E+00 0.  1.
         14    1    4    4    0    0 -0.30127293038E+02  0.56875725679E+02 -0.38652343381E+03  0.39184546296E+03  0.00000000000E+00 0. -1.
         -5    1    5    5    0  502 -0.57033027672E+01 -0.97421402110E+02  0.52727316563E+02  0.11102124645E+03  0.47000000000E+01 0.  1.
         13    1    6    6    0    0 -0.20553920582E+02 -0.26930920109E+02  0.45581416796E+02  0.56792637431E+02  0.00000000000E+00 0. -1.
        -14    1    6    6    0    0  0.18001460267E+02  0.46734989619E+02  0.58868878901E+02  0.77290081702E+02  0.00000000000E+00 0.  1.
</event>
<event>
12    1  0.8500177E-002  0.2224651E+03  0.7818608E-02  0.1132598E+00
         21   -1    0    0  501  502  0.00000000000E+00  0.00000000000E+00  0.16483487930E+04  0.16483487930E+04  0.00000000000E+00 0. -1.
         21   -1    0    0  502  503 -0.00000000000E+00 -0.00000000000E+00 -0.19289295766E+03  0.19289295766E+03  0.00000000000E+00 0. -1.
         -6    2    1    2    0  503 -0.10145808500E+02  0.13975010113E+03 -0.11849293701E+03  0.25205413983E+03  0.17279376461E+03 0.  0.
        -24    2    3    3    0    0 -0.42122953485E+02  0.14215773346E+03 -0.13413149794E+03  0.21606818309E+03  0.81920916810E+02 0.  0.
          6    2    1    2  501    0  0.10145808500E+02 -0.13975010113E+03  0.15739487723E+04  0.15891876108E+04  0.16902513493E+03 0.  0.
         24    2    5    5    0    0  0.33741563503E+02 -0.13860046876E+02  0.57962854936E+03  0.58664092301E+03  0.82750971652E+02 0.  0.
          5    1    5    5  501    0 -0.23595755003E+02 -0.12589005425E+03  0.99432022295E+03  0.10025466878E+04  0.47000000000E+01 0. -1.
        -13    1    6    6    0    0  0.41275219912E+02  0.15877676983E+02  0.48828564589E+03  0.49028422001E+03  0.00000000000E+00 0.  1.
         14    1    6    6    0    0 -0.75336564089E+01 -0.29737723860E+02  0.91342903464E+02  0.96356702997E+02  0.00000000000E+00 0. -1.
         -5    1    3    3    0  503  0.31977144985E+02 -0.24076323317E+01  0.15638560927E+02  0.35985956743E+02  0.47000000000E+01 0.  1.
         11    1    4    4    0    0 -0.26548082689E+02  0.88509198174E+02 -0.28713861399E+02  0.96763447088E+02  0.00000000000E+00 0. -1.
        -12    1    4    4    0    0 -0.15574870795E+02  0.53648535289E+02 -0.10541763654E+03  0.11930473600E+03  0.00000000000E+00 0.  1.
</event>
<event>
12    1  0.8500177E-002  0.1738544E+03  0.7818608E-02  0.1174180E+00
         21   -1    0    0  501  502  0.00000000000E+00  0.00000000000E+00  0.27661623913E+04  0.27661623913E+04  0.00000000000E+00 0. -1.
         21   -1    0    0  502  503 -0.00000000000E+00 -0.00000000000E+00 -0.25458373604E+02  0.25458373604E+02  0.00000000000E+00 0. -1.
         -6    2    1    2    0  503 -0.85495489902E+01 -0.20470410189E+02  0.31123509857E+03  0.35593922293E+03  0.17126970355E+03 0.  0.
        -24    2    3    3    0    0  0.21393382846E+02  0.36143659271E+02  0.98210142990E+02  0.13344550678E+03  0.79990187881E+02 0.  0.
          6    2    1    2  501    0  0.85495489902E+01  0.20470410189E+02  0.24294689192E+04  0.24356815420E+04  0.17243321154E+03 0.  0.
         24    2    5    5    0    0  0.57043886318E+02 -0.51694124120E+01  0.98342004504E+03  0.98858495311E+03  0.83093301427E+02 0.  0.
          5    1    5    5  501    0 -0.48494337328E+02  0.25639822601E+02  0.14460488741E+04  0.14470965889E+04  0.47000000000E+01 0. -1.
        -11    1    6    6    0    0  0.11078234607E+02  0.36606998937E+02  0.32547481513E+03  0.32771428858E+03  0.00000000000E+00 0.  1.
         12    1    6    6    0    0  0.45965651711E+02 -0.41776411349E+02  0.65794522991E+03  0.66087066453E+03  0.00000000000E+00 0. -1.
         -5    1    3    3    0  503 -0.29942931836E+02 -0.56614069460E+02  0.21302495558E+03  0.22249371615E+03  0.47000000000E+01 0.  1.
         11    1    4    4    0    0 -0.28643381652E+02  0.11634333742E+01  0.24295205605E+02  0.37577305718E+02  0.00000000000E+00 0. -1.
        -12    1    4    4    0    0  0.50036764498E+02  0.34980225897E+02  0.73914937385E+02  0.95868201057E+02  0.00000000000E+00 0.  1.
</event>
<event>
12    1  0.8500177E-002  0.1831777E+03  0.7818608E-02  0.1164799E+00
         21   -1    0    0  501  502  0.00000000000E+00  0.00000000000E+00  0.66176832275E+03  0.66176832275E+03  0.00000000000E+00 0. -1.
         21   -1    0    0  502  503 -0.00000000000E+00 -0.00000000000E+00 -0.50878499056E+02  0.50878499056E+02  0.00000000000E+00 0. -1.
         -6    2    1    2    0  503  0.33194118603E+01 -0.61655295583E+02  0.28229521142E+03  0.33651843054E+03  0.17245774479E+03 0.  0.
        -24    2    3    3    0    0 -0.14716308464E+01 -0.98183988622E+02  0.27187268641E+03  0.29794358728E+03  0.72203616701E+02 0.  0.
          6    2    1    2  501    0 -0.33194118603E+01  0.61655295583E+02  0.32859461228E+03  0.37612839126E+03  0.17229554123E+03 0.  0.
         24    2    5    5    0    0 -0.53392395810E+02  0.30107319974E+02  0.10872247201E+03  0.14838198283E+03  0.80246110575E+02 0.  0.
          5    1    5    5  501    0  0.50072983949E+02  0.31547975609E+02  0.21987214027E+03  0.22774640843E+03  0.47000000000E+01 0. -1.
        -13    1    6    6    0    0 -0.16403959717E+02 -0.16963508930E+01 -0.10510521038E+02  0.19556036235E+02  0.00000000000E+00 0.  1.
         14    1    6    6    0    0 -0.36988436093E+02  0.31803670867E+02  0.11923299304E+03  0.12882594659E+03  0.00000000000E+00 0. -1.
         -5    1    3    3    0  503  0.47910427067E+01  0.36528693039E+02  0.10422525003E+02  0.38574843264E+02  0.47000000000E+01 0.  1.
         11    1    4    4    0    0  0.34545182866E+02 -0.60665311414E+02  0.15101291490E+03  0.16636871742E+03  0.00000000000E+00 0. -1.
        -12    1    4    4    0    0 -0.36016813712E+02 -0.37518677209E+02  0.12085977151E+03  0.13157486986E+03  0.00000000000E+00 0.  1.
</event>
<event>
12    1  0.8500177E-002  0.1816242E+03  0.7818608E-02  0.1167834E+00
         21   -1    0    0  503  502  0.00000000000E+00  0.00000000000E+00  0.19841710463E+03  0.19841710463E+03  0.00000000000E+00 0. -1.
         21   -1    0    0  501  503 -0.00000000000E+00 -0.00000000000E+00 -0.16171570086E+03  0.16171570086E+03  0.00000000000E+00 0. -1.
          6    2    1    2  501    0  0.10371611171E+02  0.25395524512E+02  0.13195527349E+01  0.17509440311E+03  0.17292716906E+03 0.  0.
         24    2    3    3    0    0  0.36548930861E+02  0.13646384080E+02 -0.59238702953E+02  0.10791786927E+03  0.81332616057E+02 0.  0.
         -6    2    1    2    0  502 -0.10371611171E+02 -0.25395524512E+02  0.35381851035E+02  0.18503840238E+03  0.17954061376E+03 0.  0.
        -24    2    5    5    0    0 -0.74998241756E+02 -0.25708048664E+02  0.39870452439E+02  0.12008506070E+03  0.80901970273E+02 0.  0.
          5    1    3    3  501    0 -0.26177319690E+02  0.11749140432E+02  0.60558255688E+02  0.67176533842E+02  0.47000000000E+01 0. -1.
        -11    1    4    4    0    0 -0.22260724145E+02 -0.81767428436E+01 -0.31247877499E+02  0.39227908575E+02  0.00000000000E+00 0.  1.
         12    1    4    4    0    0  0.58809655006E+02  0.21823126924E+02 -0.27990825454E+02  0.68689960695E+02  0.00000000000E+00 0. -1.
         -5    1    5    5    0  502  0.64626630585E+02  0.31252415216E+00 -0.44886014044E+01  0.64953341675E+02  0.47000000000E+01 0.  1.
         11    1    6    6    0    0 -0.60792991125E+02 -0.50952892485E+02  0.44185486890E+02  0.90798360526E+02  0.00000000000E+00 0. -1.
        -12    1    6    6    0    0 -0.14205250631E+02  0.25244843821E+02 -0.43150344508E+01  0.29286700179E+02  0.00000000000E+00 0.  1.
</event>
<event>
12    1  0.8500177E-002  0.1989565E+03  0.7818608E-02  0.1150886E+00
         21   -1    0    0  503  502  0.00000000000E+00  0.00000000000E+00  0.53204886587E+02  0.53204886587E+02  0.00000000000E+00 0.  1.
         21   -1    0    0  501  503 -0.00000000000E+00 -0.00000000000E+00 -0.74215753897E+03  0.74215753897E+03  0.00000000000E+00 0. -1.
          6    2    1    2  501    0  0.95908139587E+02 -0.17622855157E+02 -0.36781381512E+03  0.41758759254E+03  0.17199842612E+03 0.  0.
         24    2    3    3    0    0  0.22207721043E+02  0.49217702939E+02 -0.20301939997E+03  0.22502928666E+03  0.80658154786E+02 0.  0.
         -6    2    1    2    0  502 -0.95908139587E+02  0.17622855157E+02 -0.32113883726E+03  0.37777483301E+03  0.17342068907E+03 0.  0.
        -24    2    5    5    0    0 -0.83793754661E+02  0.73904905830E+02 -0.25807274468E+03  0.29225378540E+03  0.79544987976E+02 0.  0.
          5    1    3    3  501    0  0.73700418544E+02 -0.66840558096E+02 -0.16479441515E+03  0.19255830588E+03  0.47000000000E+01 0. -1.
        -13    1    4    4    0    0  0.47593209310E+02  0.38946179486E+02 -0.91849640290E+02  0.11053630576E+03  0.00000000000E+00 0.  1.
         14    1    4    4    0    0 -0.25385488266E+02  0.10271523453E+02 -0.11116975968E+03  0.11449298090E+03  0.00000000000E+00 0. -1.
         -5    1    5    5    0  502 -0.12114384926E+02 -0.56282050673E+02 -0.63066092584E+02  0.85521047608E+02  0.47000000000E+01 0.  1.
         13    1    6    6    0    0 -0.68506781320E+02  0.74602552768E+01 -0.13404303465E+03  0.15071950648E+03  0.00000000000E+00 0. -1.
        -14    1    6    6    0    0 -0.15286973342E+02  0.66444650554E+02 -0.12402971002E+03  0.14153427892E+03  0.00000000000E+00 0.  1.
</event>
<event>
12    1  0.8500177E-002  0.1869369E+03  0.7818608E-02  0.1161396E+00
         21   -1    0    0  501  502  0.00000000000E+00  0.00000000000E+00  0.23465934865E+04  0.23465934865E+04  0.00000000000E+00 0.  1.
         21   -1    0    0  502  503 -0.00000000000E+00 -0.00000000000E+00 -0.35498139601E+02  0.35498139601E+02  0.00000000000E+00 0.  1.
         -6    2    1    2    0  503  0.64518966142E+02  0.33424431707E+02  0.24620812571E+03  0.30875985647E+03  0.17156432663E+03 0.  0.
        -24    2    3    3    0    0  0.27147665846E+02 -0.32420086584E+02  0.20263009982E+03  0.22127700663E+03  0.78208046486E+02 0.  0.
          6    2    1    2  501    0 -0.64518966142E+02 -0.33424431707E+02  0.20648872212E+04  0.20733317696E+04  0.17223675894E+03 0.  0.
         24    2    5    5    0    0 -0.35122001982E+02 -0.71559743161E+02  0.18294846527E+04  0.18330091891E+04  0.80958266182E+02 0.  0.
          5    1    5    5  501    0 -0.29396964159E+02  0.38135311454E+02  0.23540256842E+03  0.24032258050E+03  0.47000000000E+01 0. -1.
        -11    1    6    6    0    0  0.13237391154E+02 -0.62382972694E+02  0.11261957771E+04  0.11279999079E+04  0.00000000000E+00 0.  1.
         12    1    6    6    0    0 -0.48359393136E+02 -0.91767704671E+01  0.70328887566E+03  0.70500928125E+03  0.00000000000E+00 0. -1.
         -5    1    3    3    0  503  0.37371300296E+02  0.65844518290E+02  0.43578025890E+02  0.87482849834E+02  0.47000000000E+01 0.  1.
         11    1    4    4    0    0  0.10228875004E+02 -0.15904306229E+00  0.17564463192E+03  0.17594229707E+03  0.00000000000E+00 0. -1.
        -12    1    4    4    0    0  0.16918790842E+02 -0.32261043521E+02  0.26985467905E+02  0.45334709558E+02  0.00000000000E+00 0.  1.
</event>
<event>
12    1  0.8500177E-002  0.1725701E+03  0.7818608E-02  0.1175412E+00
         21   -1    0    0  503  502  0.00000000000E+00  0.00000000000E+00  0.14113723323E+04  0.14113723323E+04  0.00000000000E+00 0.  1.
         21   -1    0    0  501  503 -0.00000000000E+00 -0.00000000000E+00 -0.17822785881E+03  0.17822785881E+03  0.00000000000E+00 0.  1.
          6    2    1    2  501    0 -0.62185310955E+01  0.14302649440E+02 -0.13012356531E+03  0.21545311742E+03  0.17101072378E+03 0.  0.
         24    2    3    3    0    0 -0.15832027632E+02  0.51704937202E+02 -0.14495468803E+03  0.17381896501E+03  0.79228261288E+02 0.  0.
         -6    2    1    2    0  502  0.62185310955E+01 -0.14302649440E+02  0.13632680388E+04  0.13741470737E+04  0.17186389555E+03 0.  0.
        -24    2    5    5    0    0  0.65544215542E+01 -0.22449266348E+02  0.31370643564E+03  0.32454327747E+03  0.79810282488E+02 0.  0.
          5    1    3    3  501    0  0.96134965365E+01 -0.37402287762E+02  0.14831122725E+02  0.41634152408E+02  0.47000000000E+01 0. -1.
        -13    1    4    4    0    0 -0.25164962763E+02 -0.14512777549E+02 -0.43603881455E+02  0.52394604121E+02  0.00000000000E+00 0.  1.
         14    1    4    4    0    0  0.93329351313E+01  0.66217714750E+02 -0.10135080658E+03  0.12142436089E+03  0.00000000000E+00 0. -1.
         -5    1    5    5    0  502 -0.33589045863E+00  0.81466169077E+01  0.10495616032E+04  0.10496037962E+04  0.47000000000E+01 0.  1.
         11    1    6    6    0    0 -0.28739413798E+02 -0.35158574539E+02  0.18406038214E+03  0.18957928037E+03  0.00000000000E+00 0. -1.
        -12    1    6    6    0    0  0.35293835352E+02  0.12709308191E+02  0.12964605349E+03  0.13496399710E+03  0.00000000000E+00 0.  1.
</event>
<event>
12    1  0.8500177E-002  0.1773026E+03  0.7818608E-02  0.1170478E+00
         21   -1    0    0  503  502  0.00000000000E+00  0.00000000000E+00  0.45412899697E+02  0.45412899697E+02  0.00000000000E+00 0. -1.
         21   -1    0    0  501  503 -0.00000000000E+00 -0.00000000000E+00 -0.69268526797E+03  0.69268526797E+03  0.00000000000E+00 0. -1.
          6    2    1    2  501    0  0.15281270350E+02  0.39093574029E+02 -0.30907024538E+03  0.35623839290E+03  0.17210331560E+03 0.  0.
         24    2    3    3    0    0 -0.50075192517E+02 -0.99484322487E+01 -0.20043079061E+03  0.22021925178E+03  0.75614289788E+02 0.  0.
         -6    2    1    2    0  502 -0.15281270350E+02 -0.39093574029E+02 -0.33820212289E+03  0.38185977476E+03  0.17226255223E+03 0.  0.
        -24    2    5    5    0    0  0.17478479679E+02  0.39826996655E+02 -0.19072103833E+03  0.21134755232E+03  0.80009914990E+02 0.  0.
          5    1    3    3  501    0  0.65356462867E+02  0.49042006278E+02 -0.10863945478E+03  0.13601914113E+03  0.47000000000E+01 0. -1.
        -13    1    4    4    0    0 -0.35873740553E+02 -0.19804716540E+02 -0.19865998510E+03  0.20284215967E+03  0.00000000000E+00 0.  1.
         14    1    4    4    0    0 -0.14201451964E+02  0.98562842910E+01 -0.17708055021E+01  0.17377092105E+02  0.00000000000E+00 0. -1.
         -5    1    5    5    0  502 -0.32759750029E+02 -0.78920570684E+02 -0.14748108456E+03  0.17051222244E+03  0.47000000000E+01 0.  1.
         13    1    6    6    0    0  0.11828349631E+01  0.44564753764E+02 -0.18911823936E+03  0.19430163364E+03  0.00000000000E+00 0. -1.
        -14    1    6    6    0    0  0.16295644716E+02 -0.47377571095E+01 -0.16027989679E+01  0.17045918681E+02  0.00000000000E+00 0.  1.
</event>
<event>
12    1  0.8500177E-002  0.2392933E+03  0.7818608E-02  0.1121245E+00
         21   -1    0    0  501  502  0.00000000000E+00  0.00000000000E+00  0.13439563544E+03  0.13439563544E+03  0.00000000000E+00 0.  1.
         21   -1    0    0  502  503 -0.00000000000E+00 -0.00000000000E+00 -0.50908104739E+03  0.50908104739E+03  0.00000000000E+00 0.  1.
         -6    2    1    2    0  503 -0.11070102470E+03  0.11156417341E+03 -0.32316947392E+03  0.39870093052E+03  0.17269233181E+03 0.  0.
        -24    2    3    3    0    0 -0.17671865637E+02  0.82222892728E+02 -0.90514188715E+02  0.14637989112E+03  0.78494300704E+02 0.  0.
          6    2    1    2  501    0  0.11070102470E+03 -0.11156417341E+03 -0.51515938027E+02  0.24477575231E+03  0.18044388432E+03 0.  0.
         24    2    5    5    0    0  0.51986412908E+02  0.14568721501E+02 -0.39990879962E+02  0.10509100089E+03  0.80808497167E+02 0.  0.
          5    1    5    5  501    0  0.58714611791E+02 -0.12613289491E+03 -0.11525058065E+02  0.13968475142E+03  0.47000000000E+01 0. -1.
        -11    1    6    6    0    0  0.37071049824E+02 -0.28552978293E+02 -0.39749382681E+01  0.46960999124E+02  0.00000000000E+00 0.  1.
         12    1    6    6    0    0  0.14915363083E+02  0.43121699794E+02 -0.36015941694E+02  0.58130001764E+02  0.00000000000E+00 0. -1.
         -5    1    3    3    0  503 -0.93029159061E+02  0.29341280677E+02 -0.23265528521E+03  0.25232103940E+03  0.47000000000E+01 0.  1.
         13    1    4    4    0    0  0.10569526225E+02  0.21560055087E+02  0.96853803538E+01  0.25891262089E+02  0.00000000000E+00 0. -1.
        -14    1    4    4    0    0 -0.28241391863E+02  0.60662837642E+02 -0.10019956907E+03  0.12048862903E+03  0.00000000000E+00 0.  1.
</event>
<event>
12    1  0.8500177E-002  0.2083403E+03  0.7818608E-02  0.1143372E+00
         21   -1    0    0  503  502  0.00000000000E+00  0.00000000000E+00  0.11710636717E+03  0.11710636717E+03  0.00000000000E+00 0.  1.
         21   -1    0    0  501  503 -0.00000000000E+00 -0.00000000000E+00 -0.58614778023E+03  0.58614778023E+03  0.00000000000E+00 0. -1.
          6    2    1    2  501    0 -0.11475293509E+03 -0.19631192433E+02 -0.45068254212E+03  0.49650822103E+03  0.17277742896E+03 0.  0.
         24    2    3    3    0    0 -0.58872819848E+02 -0.64630190634E+02 -0.17239302498E+03  0.20908059107E+03  0.79701116942E+02 0.  0.
         -6    2    1    2    0  502  0.11475293509E+03  0.19631192433E+02 -0.18358870942E+02  0.20674592636E+03  0.16986232689E+03 0.  0.
        -24    2    5    5    0    0  0.81838921625E+02 -0.16746417273E+02  0.47380862894E+02  0.12458471060E+03  0.79362159514E+02 0.  0.
          5    1    3    3  501    0 -0.55880115238E+02  0.44998998201E+02 -0.27828951714E+03  0.28742762997E+03  0.47000000000E+01 0. -1.
        -11    1    4    4    0    0 -0.69616937572E+01  0.19239407045E+01  0.74742278975E+01  0.10393787109E+02  0.00000000000E+00 0.  1.
         12    1    4    4    0    0 -0.51911126090E+02 -0.66554131338E+02 -0.17986725288E+03  0.19868680396E+03  0.00000000000E+00 0. -1.
         -5    1    5    5    0  502  0.32914013461E+02  0.36377609706E+02 -0.65739733836E+02  0.82161215758E+02  0.47000000000E+01 0.  1.
         13    1    6    6    0    0 -0.15782445226E+02  0.19596423209E+00  0.32228277565E+01  0.16109332638E+02  0.00000000000E+00 0. -1.
        -14    1    6    6    0    0  0.97621366851E+02 -0.16942381505E+02  0.44158035138E+02  0.10847537796E+03  0.00000000000E+00 0.  1.
</event>
<event>
12    1  0.8500177E-002  0.2223669E+03  0.7818608E-02  0.1132143E+00
         21   -1    0    0  501  502  0.00000000000E+00  0.00000000000E+00  0.88285526891E+02  0.88285526891E+02  0.00000000000E+00 0.  1.
         21   -1    0    0  502  503 -0.00000000000E+00 -0.00000000000E+00 -0.64694091321E+03  0.64694091321E+03  0.00000000000E+00 0. -1.
         -6    2    1    2    0  503 -0.84419311084E+02 -0.11169774253E+03 -0.41419502104E+03  0.47011119408E+03  0.17275419987E+03 0.  0.
        -24    2    3    3    0    0  0.72172011457E+01 -0.49163975528E+01 -0.12415150431E+03  0.14770331948E+03  0.79538767930E+02 0.  0.
          6    2    1    2  501    0  0.84419311084E+02  0.11169774253E+03 -0.14446036528E+03  0.26511524603E+03  0.17266815215E+03 0.  0.
         24    2    5    5    0    0  0.58281746747E+02  0.61276020489E+00 -0.10443640170E+03  0.14409023527E+03  0.80361037953E+02 0.  0.
          5    1    5    5  501    0  0.26137564337E+02  0.11108498233E+03 -0.40023963581E+02  0.12102501076E+03  0.47000000000E+01 0. -1.
        -13    1    6    6    0    0  0.19070238037E+02  0.21341399852E+02  0.20925558813E+01  0.28696831123E+02  0.00000000000E+00 0.  1.
         14    1    6    6    0    0  0.39211508710E+02 -0.20728639647E+02 -0.10652895758E+03  0.11539340415E+03  0.00000000000E+00 0. -1.
         -5    1    3    3    0  503 -0.91636512230E+02 -0.10678134498E+03 -0.29004351673E+03  0.32240787460E+03  0.47000000000E+01 0.  1.
         11    1    4    4    0    0 -0.35443050038E+02 -0.14950645417E+01 -0.71793282249E+02  0.80079462973E+02  0.00000000000E+00 0. -1.
        -12    1    4    4    0    0  0.42660251184E+02 -0.34213330111E+01 -0.52358222064E+02  0.67623856503E+02  0.00000000000E+00 0.  1.
</event>
<event>
12    1  0.8500177E-002  0.2155912E+03  0.7818608E-02  0.1137829E+00
         21   -1    0    0  503  502  0.00000000000E+00  0.00000000000E+00  0.21396216040E+03  0.21396216040E+03  0.00000000000E+00 0. -1.
         21   -1    0    0  501  503 -0.00000000000E+00 -0.00000000000E+00 -0.22108521074E+03  0.22108521074E+03  0.00000000000E+00 0.  1.
          6    2    1    2  501    0  0.97817467406E+02 -0.85527154869E+02 -0.42395050629E+02  0.21658986849E+03  0.16801987878E+03 0.  0.
         24    2    3    3    0    0 -0.47170259335E+01 -0.55190554003E+02 -0.46443956525E+02  0.10948190746E+03  0.82225296464E+02 0.  0.
         -6    2    1    2    0  502 -0.97817467406E+02  0.85527154869E+02  0.35272000288E+02  0.21845750266E+03  0.17203608724E+03 0.  0.
        -24    2    5    5    0    0 -0.14264656865E+02  0.58426212728E+02  0.72312018138E+02  0.12301335073E+03  0.79285268003E+02 0.  0.
          5    1    3    3  501    0  0.10253449334E+03 -0.30336600866E+02  0.40489058952E+01  0.10710796103E+03  0.47000000000E+01 0. -1.
        -11    1    4    4    0    0  0.35948060616E+02 -0.82308136164E+01 -0.20175189717E+02  0.42036265712E+02  0.00000000000E+00 0.  1.
         12    1    4    4    0    0 -0.40665086550E+02 -0.46959740387E+02 -0.26268766807E+02  0.67445641748E+02  0.00000000000E+00 0. -1.
         -5    1    5    5    0  502 -0.83552810541E+02  0.27100942141E+02 -0.37040017851E+02  0.95444151925E+02  0.47000000000E+01 0.  1.
         11    1    6    6    0    0 -0.16783946022E+02  0.66163042775E+02  0.84334170408E+02  0.10849655005E+03  0.00000000000E+00 0. -1.
        -12    1    6    6    0    0  0.25192891571E+01 -0.77368300469E+01 -0.12022152270E+02  0.14516800688E+02  0.00000000000E+00 0.  1.
</event>
<event>
12    1  0.8500177E-002  0.2508113E+03  0.7818608E-02  0.1114364E+00
         21   -1    0    0  503  502  0.00000000000E+00  0.00000000000E+00  0.29052033036E+03  0.29052033036E+03  0.00000000000E+00 0.  1.
         21   -1    0    0  501  503 -0.00000000000E+00 -0.00000000000E+00 -0.21975012420E+03  0.21975012420E+03  0.00000000000E+00 0. -1.
          6    2    1    2  501    0  0.13975043937E+03  0.11686542219E+03 -0.23833681374E+02  0.24221042438E+03  0.15782944309E+03 0.  0.
         24    2    3    3    0    0  0.56869049332E+02  0.11474795065E+03  0.14015684070E+02  0.15094995668E+03  0.78665552001E+02 0.  0.
         -6    2    1    2    0  502 -0.13975043937E+03 -0.11686542219E+03  0.94603887536E+02  0.26806003017E+03  0.17239075390E+03 0.  0.
        -24    2    5    5    0    0 -0.10268480530E+02 -0.65467251364E+01  0.43429114936E+02  0.90361577909E+02  0.78299587710E+02 0.  0.
          5    1    3    3  501    0  0.82881390039E+02  0.21174715337E+01 -0.37849365444E+02  0.91260467701E+02  0.47000000000E+01 0. -1.
        -13    1    4    4    0    0  0.52264228862E+01  0.66958090723E+02 -0.23570926781E+02  0.71177875768E+02  0.00000000000E+00 0.  1.
         14    1    4    4    0    0  0.51642626446E+02  0.47789859932E+02  0.37586610851E+02  0.79772080917E+02  0.00000000000E+00 0. -1.
         -5    1    5    5    0  502 -0.12948195884E+03 -0.11031869705E+03  0.51174772600E+02  0.17769845226E+03  0.47000000000E+01 0.  1.
         13    1    6    6    0    0  0.26368843601E+00 -0.74574439134E+01 -0.22440699238E+02  0.23648847406E+02  0.00000000000E+00 0. -1.
        -14    1    6    6    0    0 -0.10532168966E+02  0.91071877709E+00  0.65869814174E+02  0.66712730503E+02  0.00000000000E+00 0.  1.
</event>
<event>
12    1  0.8500177E-002  0.1962964E+03  0.7818608E-02  0.1153108E+00
         21   -1    0    0  501  502  0.00000000000E+00  0.00000000000E+00  0.84115652124E+02  0.84115652124E+02  0.00000000000E+00 0. -1.
         21   -1    0    0  502  503 -0.00000000000E+00 -0.00000000000E+00 -0.50509438338E+03  0.50509438338E+03  0.00000000000E+00 0. -1.
         -6    2    1    2    0  503 -0.22041705721E+02 -0.90845066767E+02 -0.30291709007E+03  0.36095849758E+03  0.17260825754E+03 0.  0.
        -24    2    3    3    0    0 -0.11338917641E+02 -0.10956208217E+03 -0.13607957742E+03  0.19266790971E+03  0.80441600794E+02 0.  0.
          6    2    1    2  501    0  0.22041705721E+02  0.90845066767E+02 -0.11806164118E+03  0.22825153792E+03  0.17152711301E+03 0.  0.
         24    2    5    5    0    0 -0.34534087570E+02  0.79328829797E+02 -0.10926348340E+03  0.16966022730E+03  0.96749250543E+02 0.  0.
          5    1    5    5  501    0  0.56575793290E+02  0.11516236970E+02 -0.87981577808E+01  0.58591310625E+02  0.47000000000E+01 0. -1.
        -13    1    6    6    0    0  0.28512719837E+02  0.44210267633E+02 -0.69807805669E+02  0.87410827070E+02  0.00000000000E+00 0.  1.
         14    1    6    6    0    0 -0.63046807407E+02  0.35118562164E+02 -0.39455677732E+02  0.82249400228E+02  0.00000000000E+00 0. -1.
         -5    1    3    3    0  503 -0.10702788080E+02  0.18717015399E+02 -0.16683751265E+03  0.16829058787E+03  0.47000000000E+01 0.  1.
         13    1    4    4    0    0 -0.38573694453E+02 -0.76811542653E+02 -0.11895590248E+03  0.14675983689E+03  0.00000000000E+00 0. -1.
        -14    1    4    4    0    0  0.27234776812E+02 -0.32750539513E+02 -0.17123674936E+02  0.45908072816E+02  0.00000000000E+00 0.  1.
</event>
<event>
12    1  0.8500177E-002  0.2890177E+03  0.7818608E-02  0.1091557E+00
         21   -1    0    0  501  502  0.00000000000E+00  0.00000000000E+00  0.43368229196E+03  0.43368229196E+03  0.00000000000E+00 0.  1.
         21   -1    0    0  502  503 -0.00000000000E+00 -0.00000000000E+00 -0.32809425983E+03  0.32809425983E+03  0.00000000000E+00 0.  1.
         -6    2    1    2    0  503  0.57724593125E+02 -0.22368365592E+03 -0.19535902427E+03  0.34452316804E+03  0.16481674179E+03 0.  0.
        -24    2    3    3    0    0  0.22408244568E+02 -0.22645325616E+03 -0.14321237512E+03  0.28130704527E+03  0.82708298746E+02 0.  0.
          6    2    1    2  501    0 -0.57724593125E+02  0.22368365592E+03  0.30094705640E+03  0.41725338375E+03  0.17368001877E+03 0.  0.
         24    2    5    5    0    0  0.60924827592E+01  0.44815136969E+02  0.14373794785E+03  0.17067001031E+03  0.80138255036E+02 0.  0.
          5    1    5    5  501    0 -0.63817075885E+02  0.17886851895E+03  0.15720910854E+03  0.24658337344E+03  0.47000000000E+01 0. -1.
        -13    1    6    6    0    0 -0.29817148340E+02  0.44204095142E+02  0.10550964713E+03  0.11821738451E+03  0.00000000000E+00 0.  1.
         14    1    6    6    0    0  0.35909631099E+02  0.61104182713E+00  0.38228300720E+02  0.52452625804E+02  0.00000000000E+00 0. -1.
         -5    1    3    3    0  503  0.35316348557E+02  0.27696002381E+01 -0.52146649143E+02  0.63216122767E+02  0.47000000000E+01 0.  1.
         11    1    4    4    0    0  0.51763800099E+01 -0.11890196678E+03 -0.12181213080E+03  0.17030169648E+03  0.00000000000E+00 0. -1.
        -12    1    4    4    0    0  0.17231864558E+02 -0.10755128938E+03 -0.21400244324E+02  0.11100534879E+03  0.00000000000E+00 0.  1.
</event>
<event>
12    1  0.8500177E-002  0.1910105E+03  0.7818608E-02  0.1157768E+00
         21   -1    0    0  503  502  0.00000000000E+00  0.00000000000E+00  0.14556025698E+04  0.14556025698E+04  0.00000000000E+00 0. -1.
         21   -1    0    0  501  503 -0.00000000000E+00 -0.00000000000E+00 -0.82119989276E+02  0.82119989276E+02  0.00000000000E+00 0. -1.
          6    2    1    2  501    0 -0.66240303057E+02 -0.40121670694E+02  0.45692382870E+02  0.19639959205E+03  0.17460664276E+03 0.  0.
         24    2    3    3    0    0 -0.11137927807E+03 -0.11645710830E+02  0.28491642544E+02  0.14012914845E+03  0.79268142314E+02 0.  0.
         -6    2    1    2    0  502  0.66240303057E+02  0.40121670694E+02  0.13277901976E+04  0.13413229670E+04  0.17355969194E+03 0.  0.
        -24    2    5    5    0    0  0.29284363940E+02  0.87274084674E+02  0.10563161773E+04  0.10632774216E+04  0.79250672645E+02 0.  0.
          5    1    3    3  501    0  0.45138975014E+02 -0.28475959864E+02  0.17200740325E+02  0.56270443602E+02  0.47000000000E+01 0. -1.
        -13    1    4    4    0    0 -0.72886122680E+02 -0.28911131457E+02  0.49776529264E+02  0.92875956345E+02  0.00000000000E+00 0.  1.
         14    1    4    4    0    0 -0.38493155391E+02  0.17265420627E+02 -0.21284886720E+02  0.47253192104E+02  0.00000000000E+00 0. -1.
         -5    1    5    5    0  502  0.36955939118E+02 -0.47152413980E+02  0.27147402035E+03  0.27804554538E+03  0.47000000000E+01 0.  1.
         11    1    6    6    0    0  0.54793263936E+02  0.41646304565E+02  0.64109066061E+03  0.64477434160E+03  0.00000000000E+00 0. -1.
        -12    1    6    6    0    0 -0.25508899996E+02  0.45627780109E+02  0.41522551665E+03  0.41850308000E+03  0.00000000000E+00 0.  1.
</event>
<event>
12    1  0.8500177E-002  0.2520523E+03  0.7818608E-02  0.1112172E+00
         21   -1    0    0  501  502  0.00000000000E+00  0.00000000000E+00  0.93980806253E+03  0.93980806253E+03  0.00000000000E+00 0. -1.
         21   -1    0    0  502  503 -0.00000000000E+00 -0.00000000000E+00 -0.15036715903E+03  0.15036715903E+03  0.00000000000E+00 0. -1.
         -6    2    1    2    0  503  0.48899375836E+02 -0.17673923385E+03 -0.99927874665E+01  0.25225028581E+03  0.17292323485E+03 0.  0.
        -24    2    3    3    0    0  0.88283484123E+02 -0.16459118106E+03 -0.31910087866E+02  0.20533396425E+03  0.79117335109E+02 0.  0.
          6    2    1    2  501    0 -0.48899375836E+02  0.17673923385E+03  0.79943369097E+03  0.83792493574E+03  0.17145280967E+03 0.  0.
         24    2    5    5    0    0 -0.95468170809E+02  0.13360615779E+03  0.65932316367E+03  0.68403482957E+03  0.78941984296E+02 0.  0.
          5    1    5    5  501    0  0.46568794973E+02  0.43133076061E+02  0.14011052731E+03  0.15389010617E+03  0.47000000000E+01 0. -1.
        -13    1    6    6    0    0 -0.17760794573E+02  0.73793209635E+02  0.19045540517E+03  0.20502230360E+03  0.00000000000E+00 0.  1.
         14    1    6    6    0    0 -0.77707376236E+02  0.59812948157E+02  0.46886775849E+03  0.47901252598E+03  0.00000000000E+00 0. -1.
         -5    1    3    3    0  503 -0.39384108287E+02 -0.12148052793E+02  0.21917300400E+02  0.46916321563E+02  0.47000000000E+01 0.  1.
         11    1    4    4    0    0  0.27940036828E+02 -0.12972940721E+03 -0.14437216015E+02  0.13348707038E+03  0.00000000000E+00 0. -1.
        -12    1    4    4    0    0  0.60343447295E+02 -0.34861773849E+02 -0.17472871852E+02  0.71846893865E+02  0.00000000000E+00 0.  1.
</event>
<event>
12    1  0.8500177E-002  0.2256014E+03  0.7818608E-02  0.1130250E+00
         21   -1    0    0  503  502  0.00000000000E+00  0.00000000000E+00  0.76723480048E+02  0.76723480048E+02  0.00000000000E+00 0. -1.
         21   -1    0    0  501  503 -0.00000000000E+00 -0.00000000000E+00 -0.74898842371E+03  0.74898842371E+03  0.00000000000E+00 0. -1.
          6    2    1    2  501    0 -0.68637112659E+02  0.12500623231E+03 -0.19213956329E+03  0.29633359887E+03  0.17480954977E+03 0.  0.
         24    2    3    3    0    0  0.22097692293E+02  0.10533483455E+03 -0.12726552203E+03  0.18297355323E+03  0.75492202968E+02 0.  0.
         -6    2    1    2    0  502  0.68637112659E+02 -0.12500623231E+03 -0.48012538038E+03  0.52937830489E+03  0.17141586116E+03 0.  0.
        -24    2    5    5    0    0  0.34040085952E+02 -0.11755890544E+03 -0.46992941916E+03  0.49225062573E+03  0.80611387809E+02 0.  0.
          5    1    3    3  501    0 -0.90734804952E+02  0.19671397762E+02 -0.64874041257E+02  0.11336004564E+03  0.47000000000E+01 0. -1.
        -13    1    4    4    0    0  0.16029852933E+02 -0.55266576296E+01 -0.33913428980E+02  0.37915970182E+02  0.00000000000E+00 0.  1.
         14    1    4    4    0    0  0.60678393601E+01  0.11086149218E+03 -0.93352093049E+02  0.14505758304E+03  0.00000000000E+00 0. -1.
         -5    1    5    5    0  502  0.34597026706E+02 -0.74473268682E+01 -0.10195961219E+02  0.37127679157E+02  0.47000000000E+01 0.  1.
         13    1    6    6    0    0 -0.11520449603E+02 -0.44124868561E+02 -0.27862302129E+03  0.28233050274E+03  0.00000000000E+00 0. -1.
        -14    1    6    6    0    0  0.45560535555E+02 -0.73434036879E+02 -0.19130639787E+03  0.20992012300E+03  0.00000000000E+00 0.  1.
</event>
<event>
12    1  0.8500177E-002  0.1901454E+03  0.7818608E-02  0.1158679E+00
         21   -1    0    0  501  502  0.00000000000E+00  0.00000000000E+00  0.19557491198E+03  0.19557491198E+03  0.00000000000E+00 0.  1.
         21   -1    0    0  502  503 -0.00000000000E+00 -0.00000000000E+00 -0.19352077797E+03  0.19352077797E+03  0.00000000000E+00 0.  1.
         -6    2    1    2    0  503  0.34917680126E+02  0.69830676546E+02 -0.43523002267E+02  0.19506291281E+03  0.17337739315E+03 0.  0.
        -24    2    3    3    0    0  0.46310005239E+02 -0.23830129088E+02 -0.30222957727E+02  0.99663160358E+02  0.79415531990E+02 0.  0.
          6    2    1    2  501    0 -0.34917680126E+02 -0.69830676546E+02  0.45577136273E+02  0.19403277714E+03  0.17168539682E+03 0.  0.
         24    2    5    5    0    0  0.22791139743E+02  0.61874211201E+01  0.44186101695E+02  0.98465606828E+02  0.84766407935E+02 0.  0.
          5    1    5    5  501    0 -0.57708819869E+02 -0.76018097666E+02  0.13910345787E+01  0.95567170308E+02  0.47000000000E+01 0. -1.
        -11    1    6    6    0    0  0.20817976376E+02 -0.35558912789E+02  0.55993332423E+01  0.41583373503E+02  0.00000000000E+00 0.  1.
         12    1    6    6    0    0  0.19731633669E+01  0.41746333909E+02  0.38586768452E+02  0.56882233325E+02  0.00000000000E+00 0. -1.
         -5    1    3    3    0  503 -0.11392325114E+02  0.93660805634E+02 -0.13300044539E+02  0.95399752454E+02  0.47000000000E+01 0.  1.
         13    1    4    4    0    0  0.23929933610E+02 -0.32969796052E+02 -0.52729500010E+02  0.66633695272E+02  0.00000000000E+00 0. -1.
        -14    1    4    4    0    0  0.22380071629E+02  0.91396669644E+01  0.22506542283E+02  0.33029465086E+02  0.00000000000E+00 0.  1.
</event>
<event>
12    1  0.8500177E-002  0.1804445E+03  0.7818608E-02  0.1167384E+00
         21   -1    0    0  503  502  0.00000000000E+00  0.00000000000E+00  0.16267359101E+03  0.16267359101E+03  0.00000000000E+00 0.  1.
         21   -1    0    0  501  503 -0.00000000000E+00 -0.00000000000E+00 -0.23259286674E+03  0.23259286674E+03  0.00000000000E+00 0.  1.
          6    2    1    2  501    0 -0.20937953125E+02  0.52151499928E+02  0.38893647586E+02  0.18458852083E+03  0.17147019967E+03 0.  0.
         24    2    3    3    0    0 -0.77961743532E+02  0.29044404810E+02  0.36915575503E+02  0.12284993252E+03  0.82509001327E+02 0.  0.
         -6    2    1    2    0  502  0.20937953125E+02 -0.52151499928E+02 -0.10881292331E+03  0.21067793692E+03  0.17142568069E+03 0.  0.
        -24    2    5    5    0    0 -0.10504571836E+02  0.34308914299E+02 -0.40548858282E+02  0.96021457910E+02  0.79299828760E+02 0.  0.
          5    1    3    3  501    0  0.57023790407E+02  0.23107095118E+02  0.19780720833E+01  0.61738588309E+02  0.47000000000E+01 0. -1.
        -13    1    4    4    0    0 -0.16050569811E+02 -0.33692552345E+01 -0.24722608530E+02  0.29667828444E+02  0.00000000000E+00 0.  1.
         14    1    4    4    0    0 -0.61911173721E+02  0.32413660044E+02  0.61638184032E+02  0.93182104075E+02  0.00000000000E+00 0. -1.
         -5    1    5    5    0  502  0.31442524961E+02 -0.86460414227E+02 -0.68264065032E+02  0.11465647901E+03  0.47000000000E+01 0.  1.
         11    1    6    6    0    0  0.12071213289E+02 -0.16185420228E+01 -0.50907119187E+02  0.52343754665E+02  0.00000000000E+00 0. -1.
        -12    1    6    6    0    0 -0.22575785124E+02  0.35927456322E+02  0.10358260905E+02  0.43677703245E+02  0.00000000000E+00 0.  1.
</event>
<event>
12    1  0.8500177E-002  0.1934069E+03  0.7818608E-02  0.1155535E+00
         21   -1    0    0  501  502  0.00000000000E+00  0.00000000000E+00  0.59933325287E+03  0.59933325287E+03  0.00000000000E+00 0.  1.
         21   -1    0    0  502  503 -0.00000000000E+00 -0.00000000000E+00 -0.64894868789E+02  0.64894868789E+02  0.00000000000E+00 0. -1.
         -6    2    1    2    0  503 -0.85040184500E+02 -0.31152059874E+02  0.20051379969E+03  0.27858930605E+03  0.17089158483E+03 0.  0.
        -24    2    3    3    0    0 -0.60793742715E+02  0.40406635444E+01  0.21162676744E+03  0.23418203443E+03  0.79643772120E+02 0.  0.
          6    2    1    2  501    0  0.85040184500E+02  0.31152059874E+02  0.33392458439E+03  0.38563881560E+03  0.17032141447E+03 0.  0.
         24    2    5    5    0    0  0.60843714748E+02 -0.44440638111E+02  0.23283829737E+03  0.25702990238E+03  0.78573341893E+02 0.  0.
          5    1    5    5  501    0  0.24196469753E+02  0.75592697985E+02  0.10108628702E+03  0.12860891322E+03  0.47000000000E+01 0. -1.
        -11    1    6    6    0    0  0.49311645640E+02 -0.38902556398E+02  0.71437435184E+02  0.95122838665E+02  0.00000000000E+00 0.  1.
         12    1    6    6    0    0  0.11532069108E+02 -0.55380817127E+01  0.16140086219E+03  0.16190706372E+03  0.00000000000E+00 0. -1.
         -5    1    3    3    0  503 -0.24246441785E+02 -0.35192723419E+02 -0.11112967747E+02  0.44407271623E+02  0.47000000000E+01 0.  1.
         11    1    4    4    0    0 -0.64626592161E+02 -0.12365377368E+02  0.90513797601E+02  0.11190284415E+03  0.00000000000E+00 0. -1.
        -12    1    4    4    0    0  0.38328494458E+01  0.16406040913E+02  0.12111296984E+03  0.12227919029E+03  0.00000000000E+00 0.  1.
</event>
<event>
12    1  0.8500177E-002  0.2484173E+03  0.7818608E-02  0.1114880E+00
         21   -1    0    0  503  502  0.00000000000E+00  0.00000000000E+00  0.23835322987E+03  0.23835322987E+03  0.00000000000E+00 0. -1.
         21   -1    0    0  501  503 -0.00000000000E+00 -0.00000000000E+00 -0.27177517533E+03  0.27177517533E+03  0.00000000000E+00 0.  1.
          6    2    1    2  501    0  0.66778426814E+02 -0.16492496955E+03 -0.79558360903E+02  0.25746312747E+03  0.16822046650E+03 0.  0.
         24    2    3    3    0    0 -0.26924774778E+02 -0.89313894444E+02 -0.22402893621E+02  0.12409835661E+03  0.78718468176E+02 0.  0.
         -6    2    1    2    0  502 -0.66778426814E+02  0.16492496955E+03  0.46136415445E+02  0.25266527773E+03  0.17335388622E+03 0.  0.
        -24    2    5    5    0    0 -0.10007052833E+03  0.16656810201E+03  0.21842610512E+02  0.21115211276E+03  0.79681063253E+02 0.  0.
          5    1    3    3  501    0  0.93703201593E+02 -0.75611075109E+02 -0.57155467282E+02  0.13336477087E+03  0.47000000000E+01 0. -1.
        -11    1    4    4    0    0 -0.11606802020E+01 -0.83585519400E+02 -0.39700428563E+02  0.92541937844E+02  0.00000000000E+00 0.  1.
         12    1    4    4    0    0 -0.25764094576E+02 -0.57283750444E+01  0.17297534942E+02  0.31556418762E+02  0.00000000000E+00 0. -1.
         -5    1    5    5    0  502  0.33292101516E+02 -0.16431324545E+01  0.24293804933E+02  0.41513164969E+02  0.47000000000E+01 0.  1.
         11    1    6    6    0    0 -0.35734946623E+02  0.58568790681E+02  0.46717644810E+02  0.83004987733E+02  0.00000000000E+00 0. -1.
        -12    1    6    6    0    0 -0.64335581708E+02  0.10799931133E+03 -0.24875034298E+02  0.12814712502E+03  0.00000000000E+00 0.  1.
</event>
<event>
12    1  0.8500177E-002  0.1830918E+03  0.7818608E-02  0.1165514E+00
         21   -1    0    0  503  502  0.00000000000E+00  0.00000000000E+00  0.55000642750E+03  0.55000642750E+03  0.00000000000E+00 0.  1.
         21   -1    0    0  501  503 -0.00000000000E+00 -0.00000000000E+00 -0.61497383771E+02  0.61497383771E+02  0.00000000000E+00 0. -1.
          6    2    1    2  501    0 -0.57463798178E+02  0.15912260178E+02  0.28983724221E+03  0.34133144629E+03  0.17013594896E+03 0.  0.
         24    2    3    3    0    0 -0.88217901168E+02 -0.25717329417E+02  0.15020942660E+03  0.19234535810E+03  0.77395644746E+02 0.  0.
         -6    2    1    2    0  502  0.57463798178E+02 -0.15912260178E+02  0.19867180152E+03  0.27017236498E+03  0.17311075633E+03 0.  0.
        -24    2    5    5    0    0  0.52852565341E+02 -0.38502676538E+02  0.39510218834E+02  0.10928081834E+03  0.78136995719E+02 0.  0.
          5    1    3    3  501    0  0.30754102990E+02  0.41629589596E+02  0.13962781561E+03  0.14898608819E+03  0.47000000000E+01 0. -1.
        -11    1    4    4    0    0 -0.15494667427E+02 -0.32059895810E+02  0.93049312335E+02  0.99629795563E+02  0.00000000000E+00 0.  1.
         12    1    4    4    0    0 -0.72723233741E+02  0.63425663927E+01  0.57160114261E+02  0.92715562537E+02  0.00000000000E+00 0. -1.
         -5    1    5    5    0  502  0.46112328366E+01  0.22590416360E+02  0.15916158268E+03  0.16089154665E+03  0.47000000000E+01 0.  1.
         13    1    6    6    0    0  0.23435149168E+02 -0.49746064785E+02  0.51732721029E+02  0.75499348363E+02  0.00000000000E+00 0. -1.
        -14    1    6    6    0    0  0.29417416173E+02  0.11243388247E+02 -0.12222502195E+02  0.33781469972E+02  0.00000000000E+00 0.  1.
</event>
<event>
12    1  0.8500177E-002  0.1955965E+03  0.7818608E-02  0.1153949E+00
         21   -1    0    0  501  502  0.00000000000E+00  0.00000000000E+00  0.29682831986E+02  0.29682831986E+02  0.00000000000E+00 0. -1.
         21   -1    0    0  502  503 -0.00000000000E+00 -0.00000000000E+00 -0.16666908729E+04  0.16666908729E+04  0.00000000000E+00 0. -1.
         -6    2    1    2    0  503  0.80631724423E+02  0.43823568473E+02 -0.12261020987E+04  0.12412894502E+04  0.17044401595E+03 0.  0.
        -24    2    3    3    0    0  0.10652978960E+03 -0.10496997964E+02 -0.77673008874E+03  0.78788154658E+03  0.77388097593E+02 0.  0.
          6    2    1    2  501    0 -0.80631724423E+02 -0.43823568473E+02 -0.41090594216E+03  0.45508425464E+03  0.17273102034E+03 0.  0.
         24    2    5    5    0    0 -0.47148422340E+02 -0.91978344957E+02 -0.22789392861E+03  0.26284611816E+03  0.80432887944E+02 0.  0.
          5    1    5    5  501    0 -0.33483302083E+02  0.48154776484E+02 -0.18301201354E+03  0.19223813648E+03  0.47000000000E+01 0. -1.
        -13    1    6    6    0    0  0.12659026714E+02 -0.20457678387E+02 -0.10970157549E+03  0.11230851806E+03  0.00000000000E+00 0.  1.
         14    1    6    6    0    0 -0.59807449054E+02 -0.71520666570E+02 -0.11819235312E+03  0.15053760010E+03  0.00000000000E+00 0. -1.
         -5    1    3    3    0  503 -0.25898065178E+02  0.54320566437E+02 -0.44937201000E+03  0.45340790365E+03  0.47000000000E+01 0.  1.
         11    1    4    4    0    0  0.10639524325E+03  0.89820057279E+01 -0.54676929912E+03  0.55709720039E+03  0.00000000000E+00 0. -1.
        -12    1    4    4    0    0  0.13454634992E+00 -0.19479003692E+02 -0.22996078961E+03  0.23078434619E+03  0.00000000000E+00 0.  1.
</event>
<event>
12    1  0.8500177E-002  0.1753174E+03  0.7818608E-02  0.1172673E+00
         21   -1    0    0  501  502  0.00000000000E+00  0.00000000000E+00  0.21047679337E+04  0.21047679337E+04  0.00000000000E+00 0.  1.
         21   -1    0    0  502  503 -0.00000000000E+00 -0.00000000000E+00 -0.22660099399E+02  0.22660099399E+02  0.00000000000E+00 0.  1.
         -6    2    1    2    0  503  0.16311135355E+01  0.30738468482E+02  0.40142315073E+03  0.43762413621E+03  0.17154248650E+03 0.  0.
        -24    2    3    3    0    0  0.59353283596E+02  0.15791572921E+02  0.16212268841E+03  0.19096230319E+03  0.80066529165E+02 0.  0.
          6    2    1    2  501    0 -0.16311135355E+01 -0.30738468482E+02  0.16806846836E+04  0.16898038969E+04  0.17259400447E+03 0.  0.
         24    2    5    5    0    0  0.55910759829E+02 -0.51660791898E+02  0.84275765856E+03  0.84962974824E+03  0.76389708447E+02 0.  0.
          5    1    5    5  501    0 -0.57541873365E+02  0.20922323416E+02  0.83792702499E+03  0.84017414863E+03  0.47000000000E+01 0. -1.
        -11    1    6    6    0    0  0.19652276078E+02  0.15801635476E+02  0.35511539473E+03  0.35600961674E+03  0.00000000000E+00 0.  1.
         12    1    6    6    0    0  0.36258483752E+02 -0.67462427375E+02  0.48764226382E+03  0.49362013150E+03  0.00000000000E+00 0. -1.
         -5    1    3    3    0  503 -0.57722170061E+02  0.14946895561E+02  0.23930046232E+03  0.24666183302E+03  0.47000000000E+01 0.  1.
         13    1    4    4    0    0  0.67713039271E+02 -0.10028563933E+02  0.14040644030E+03  0.15620370117E+03  0.00000000000E+00 0. -1.
        -14    1    4    4    0    0 -0.83597556748E+01  0.25820136855E+02  0.21716248109E+02  0.34758602016E+02  0.00000000000E+00 0.  1.
</event>
<event>
12    1  0.8500177E-002  0.1709612E+03  0.7818608E-02  0.1178510E+00
         21   -1    0    0  501  502  0.00000000000E+00  0.00000000000E+00  0.26952400458E+03  0.26952400458E+03  0.00000000000E+00 0. -1.
         21   -1    0    0  502  503 -0.00000000000E+00 -0.00000000000E+00 -0.16398905639E+03  0.16398905639E+03  0.00000000000E+00 0. -1.
         -6    2    1    2    0  503 -0.19318924669E+02  0.34906718675E+01 -0.78412944620E+02  0.18238648437E+03  0.16349567015E+03 0.  0.
        -24    2    3    3    0    0 -0.30537306262E+02  0.58458574441E+01 -0.11560486306E+03  0.14318536472E+03  0.78554841892E+02 0.  0.
          6    2    1    2  501    0  0.19318924669E+02 -0.34906718675E+01  0.18394789281E+03  0.25112657660E+03  0.16983028165E+03 0.  0.
         24    2    5    5    0    0  0.70802428978E+02 -0.21811001283E+01  0.16380491289E+03  0.19562796550E+03  0.80128086530E+02 0.  0.
          5    1    5    5  501    0 -0.51483504309E+02 -0.13095717393E+01  0.20142979917E+02  0.55498611100E+02  0.47000000000E+01 0. -1.
        -13    1    6    6    0    0 -0.12526207618E+02 -0.48513486706E+00  0.81210682678E+00  0.12561876875E+02  0.00000000000E+00 0.  1.
         14    1    6    6    0    0  0.83328636596E+02 -0.16959652612E+01  0.16299280606E+03  0.18306608862E+03  0.00000000000E+00 0. -1.
         -5    1    3    3    0  503  0.11218381593E+02 -0.23551855765E+01  0.37191918438E+02  0.39201119649E+02  0.47000000000E+01 0.  1.
         11    1    4    4    0    0 -0.15195167560E+02  0.37415370868E+02 -0.28939732861E+02  0.49682101731E+02  0.00000000000E+00 0. -1.
        -12    1    4    4    0    0 -0.15342138702E+02 -0.31569513424E+02 -0.86665130197E+02  0.93503262990E+02  0.00000000000E+00 0.  1.
</event>
<event>
12    1  0.8500177E-002  0.4388502E+03  0.7818608E-02  0.1031103E+00
         21   -1    0    0  503  502  0.00000000000E+00  0.00000000000E+00  0.24308802930E+04  0.24308802930E+04  0.00000000000E+00 0.  1.
         21   -1    0    0  501  503 -0.00000000000E+00 -0.00000000000E+00 -0.83886830595E+02  0.83886830595E+02  0.00000000000E+00 0. -1.
          6    2    1    2  501    0  0.18038161120E+03  0.36131693369E+03  0.14701487135E+04  0.15342512113E+04  0.17176171671E+03 0.  0.
         24    2    3    3    0    0  0.46622241413E+02  0.24727901866E+03  0.94610604398E+03  0.98149536597E+03  0.69971140423E+02 0.  0.
         -6    2    1    2    0  502 -0.18038161120E+03 -0.36131693369E+03  0.87684474888E+03  0.98051591227E+03  0.17166038668E+03 0.  0.
        -24    2    5    5    0    0 -0.13498636448E+03 -0.18108471285E+03  0.61254650496E+03  0.65737502413E+03  0.76913651478E+02 0.  0.
          5    1    3    3  501    0  0.13375936979E+03  0.11403791503E+03  0.52404266956E+03  0.55275584537E+03  0.47000000000E+01 0. -1.
        -13    1    4    4    0    0  0.27508329847E+02  0.11096271056E+03  0.30362568492E+03  0.32443487465E+03  0.00000000000E+00 0.  1.
         14    1    4    4    0    0  0.19113911566E+02  0.13631630810E+03  0.64248035906E+03  0.65706049132E+03  0.00000000000E+00 0. -1.
         -5    1    5    5    0  502 -0.45395246723E+02 -0.18023222084E+03  0.26429824391E+03  0.32314088814E+03  0.47000000000E+01 0.  1.
         13    1    6    6    0    0 -0.12615574397E+03 -0.17990170988E+03  0.52157848970E+03  0.56597174654E+03  0.00000000000E+00 0. -1.
        -14    1    6    6    0    0 -0.88306205087E+01 -0.11830029666E+01  0.90968015259E+02  0.91403277593E+02  0.00000000000E+00 0.  1.
</event>
<event>
12    1  0.8500177E-002  0.1912557E+03  0.7818608E-02  0.1157909E+00
         21   -1    0    0  501  502  0.00000000000E+00  0.00000000000E+00  0.47676689770E+02  0.47676689770E+02  0.00000000000E+00 0.  1.
         21   -1    0    0  502  503 -0.00000000000E+00 -0.00000000000E+00 -0.15589426634E+04  0.15589426634E+04  0.00000000000E+00 0.  1.
         -6    2    1    2    0  503 -0.81286772393E+02 -0.20343558258E+02 -0.13293119031E+04  0.13426382691E+04  0.16907390810E+03 0.  0.
        -24    2    3    3    0    0  0.19069184620E+02  0.11699046309E+02 -0.61790022052E+03  0.62345350937E+03  0.79956828025E+02 0.  0.
          6    2    1    2  501    0  0.81286772393E+02  0.20343558258E+02 -0.18195407060E+03  0.26398108406E+03  0.17192245114E+03 0.  0.
         24    2    5    5    0    0  0.12045836052E+03  0.31477384803E+01 -0.11735163566E+03  0.18635586822E+03  0.80230781832E+02 0.  0.
          5    1    5    5  501    0 -0.39171588124E+02  0.17195819778E+02 -0.64602434941E+02  0.77625215841E+02  0.47000000000E+01 0. -1.
        -13    1    6    6    0    0 -0.29194874185E+01 -0.17552332055E+02 -0.57237752241E+01  0.18691425044E+02  0.00000000000E+00 0.  1.
         14    1    6    6    0    0  0.12337784794E+03  0.20700070535E+02 -0.11162786043E+03  0.16766444318E+03  0.00000000000E+00 0. -1.
         -5    1    3    3    0  503 -0.10035595701E+03 -0.32042604567E+02 -0.71141168254E+03  0.71918475976E+03  0.47000000000E+01 0.  1.
         11    1    4    4    0    0 -0.29632252232E+01  0.54756487818E-01  0.16568815634E+01  0.33954320066E+01  0.00000000000E+00 0. -1.
        -12    1    4    4    0    0  0.22032409843E+02  0.11644289821E+02 -0.61955710208E+03  0.62005807737E+03  0.00000000000E+00 0.  1.
</event>
<event>
12    1  0.8500177E-002  0.1976995E+03  0.7818608E-02  0.1151783E+00
         21   -1    0    0  503  502  0.00000000000E+00  0.00000000000E+00  0.25025155481E+03  0.25025155481E+03  0.00000000000E+00 0. -1.
         21   -1    0    0  501  503 -0.00000000000E+00 -0.00000000000E+00 -0.22664162646E+03  0.22664162646E+03  0.00000000000E+00 0.  1.
          6    2    1    2  501    0  0.46638838070E+02  0.85579493323E+02 -0.12144421738E+03  0.23202110046E+03  0.17200599474E+03 0.  0.
         24    2    3    3    0    0 -0.26460344181E+02  0.42778682500E+02 -0.11156124441E+03  0.14660937405E+03  0.80735567223E+02 0.  0.
         -6    2    1    2    0  502 -0.46638838070E+02 -0.85579493323E+02  0.14505414574E+03  0.24487208081E+03  0.17153017190E+03 0.  0.
        -24    2    5    5    0    0 -0.83225467893E+02 -0.13844213417E+02  0.72018190490E+02  0.13605630703E+03  0.78781712152E+02 0.  0.
          5    1    3    3  501    0  0.73099182252E+02  0.42800810824E+02 -0.98829729747E+01  0.85411726407E+02  0.47000000000E+01 0. -1.
        -11    1    4    4    0    0 -0.13543670155E+02  0.39542948364E+02 -0.12246330991E+03  0.12939991515E+03  0.00000000000E+00 0.  1.
         12    1    4    4    0    0 -0.12916674026E+02  0.32357341357E+01  0.10902065504E+02  0.17209458898E+02  0.00000000000E+00 0. -1.
         -5    1    5    5    0  502  0.36586629823E+02 -0.71735279907E+02  0.73035955251E+02  0.10881577379E+03  0.47000000000E+01 0.  1.
         13    1    6    6    0    0 -0.16752111831E+02 -0.30297064472E+02  0.55825100109E+02  0.65688561931E+02  0.00000000000E+00 0. -1.
        -14    1    6    6    0    0 -0.66473356063E+02  0.16452851055E+02  0.16193090381E+02  0.70367745098E+02  0.00000000000E+00 0.  1.
</event>
<event>
12    1  0.8500177E-002  0.3209649E+03  0.7818608E-02  0.1075227E+00
         21   -1    0    0  503  502  0.00000000000E+00  0.00000000000E+00  0.40595944983E+03  0.40595944983E+03  0.00000000000E+00 0.  1.
         21   -1    0    0  501  503 -0.00000000000E+00 -0.00000000000E+00 -0.28910664205E+03  0.28910664205E+03  0.00000000000E+00 0. -1.
          6    2    1    2  501    0  0.25263728811E+03  0.97531944517E+02 -0.63311361151E+02  0.32714949152E+03  0.17227995184E+03 0.  0.
         24    2    3    3    0    0  0.12782359647E+03 -0.16640433194E+02 -0.24444176070E+02  0.15352190867E+03  0.79722536742E+02 0.  0.
         -6    2    1    2    0  502 -0.25263728811E+03 -0.97531944517E+02  0.18016416894E+03  0.36791660036E+03  0.17194597263E+03 0.  0.
        -24    2    5    5    0    0 -0.19462016515E+03 -0.19371738485E+02  0.16834478263E+03  0.26974943550E+03  0.78565381549E+02 0.  0.
          5    1    3    3  501    0  0.12481369164E+03  0.11417237771E+03 -0.38867185081E+02  0.17362758286E+03  0.47000000000E+01 0. -1.
        -11    1    4    4    0    0  0.12490088134E+03  0.49222318077E+01 -0.62434444883E+01  0.12515366205E+03  0.00000000000E+00 0.  1.
         12    1    4    4    0    0  0.29227151283E+01 -0.21562665002E+02 -0.18200731582E+02  0.28368246611E+02  0.00000000000E+00 0. -1.
         -5    1    5    5    0  502 -0.58017122959E+02 -0.78160206031E+02  0.11819386309E+02  0.98167164857E+02  0.47000000000E+01 0.  1.
         13    1    6    6    0    0 -0.10699878200E+03  0.93604937001E+01  0.46740799818E+02  0.11713693081E+03  0.00000000000E+00 0. -1.
        -14    1    6    6    0    0 -0.87621383149E+02 -0.28732232185E+02  0.12160398281E+03  0.15261250469E+03  0.00000000000E+00 0.  1.
</event>
<event>
12    1  0.8500177E-002  0.2002634E+03  0.7818608E-02  0.1150508E+00
         21   -1    0    0  501  502  0.00000000000E+00  0.00000000000E+00  0.16425650702E+03  0.16425650702E+03  0.00000000000E+00 0. -1.
         21   -1    0    0  502  503 -0.00000000000E+00 -0.00000000000E+00 -0.25798328847E+03  0.25798328847E+03  0.00000000000E+00 0. -1.
         -6    2    1    2    0  503  0.13559785144E+02 -0.10133932489E+03 -0.10432604454E+03  0.22169609108E+03  0.16676842234E+03 0.  0.
        -24    2    3    3    0    0 -0.42775738353E+02 -0.75858869813E+02 -0.23662982500E+02  0.11995345313E+03  0.79022542713E+02 0.  0.
          6    2    1    2  501    0 -0.13559785144E+02  0.10133932489E+03  0.10599263092E+02  0.20054370441E+03  0.17219728935E+03 0.  0.
         24    2    5    5    0    0 -0.67060866998E+02  0.48120549520E+02 -0.23391217730E+02  0.11764589625E+03  0.80502550704E+02 0.  0.
          5    1    5    5  501    0  0.53501081854E+02  0.53218775367E+02  0.33990480822E+02  0.82897808159E+02  0.47000000000E+01 0. -1.
        -13    1    6    6    0    0 -0.74676206299E+02  0.19875134150E+02  0.42582324781E+01  0.77393082950E+02  0.00000000000E+00 0.  1.
         14    1    6    6    0    0  0.76153393007E+01  0.28245415369E+02 -0.27649450208E+02  0.40252813304E+02  0.00000000000E+00 0. -1.
         -5    1    3    3    0  503  0.56335523498E+02 -0.25480455074E+02 -0.80663062041E+02  0.10174263795E+03  0.47000000000E+01 0.  1.
         11    1    4    4    0    0 -0.97246589929E+01 -0.81743842413E+02 -0.25926041904E+02  0.86306340519E+02  0.00000000000E+00 0. -1.
        -12    1    4    4    0    0 -0.33051079360E+02  0.58849726003E+01  0.22630594035E+01  0.33647112614E+02  0.00000000000E+00 0.  1.
</event>
<event>
12    1  0.8500177E-002  0.1787949E+03  0.7818608E-02  0.1170044E+00
         21   -1    0    0  503  502  0.00000000000E+00  0.00000000000E+00  0.43587869734E+03  0.43587869734E+03  0.00000000000E+00 0. -1.
         21   -1    0    0  501  503 -0.00000000000E+00 -0.00000000000E+00 -0.93562971728E+02  0.93562971728E+02  0.00000000000E+00 0. -1.
          6    2    1    2  501    0  0.29671656732E+02  0.12126124951E+02  0.44445841212E+02  0.18423643316E+03  0.17589821029E+03 0.  0.
         24    2    3    3    0    0  0.72949046079E+02  0.48547208135E+02  0.48311768471E+02  0.12734651206E+03  0.78769996951E+02 0.  0.
         -6    2    1    2    0  502 -0.29671656732E+02 -0.12126124951E+02  0.29786988440E+03  0.34520523591E+03  0.17150141908E+03 0.  0.
        -24    2    5    5    0    0  0.12514006536E+02  0.52704438734E+01  0.28493579946E+03  0.29754339220E+03  0.84612543347E+02 0.  0.
          5    1    3    3  501    0 -0.43277389347E+02 -0.36421083184E+02 -0.38659272591E+01  0.56889921098E+02  0.47000000000E+01 0. -1.
        -11    1    4    4    0    0  0.74434640672E+02  0.11261030906E+02  0.13836033848E+02  0.76542552752E+02  0.00000000000E+00 0.  1.
         12    1    4    4    0    0 -0.14855945934E+01  0.37286177229E+02  0.34475734623E+02  0.50803959309E+02  0.00000000000E+00 0. -1.
         -5    1    5    5    0  502 -0.42185663268E+02 -0.17396568825E+02  0.12934084940E+02  0.47661843706E+02  0.47000000000E+01 0.  1.
         11    1    6    6    0    0 -0.25849426092E+02 -0.34697771559E+01  0.22055122303E+03  0.22208798744E+03  0.00000000000E+00 0. -1.
        -12    1    6    6    0    0  0.38363432627E+02  0.87402210293E+01  0.64384576426E+02  0.75455404764E+02  0.00000000000E+00 0.  1.
</event>
<event>
12    1  0.8500177E-002  0.1864679E+03  0.7818608E-02  0.1163147E+00
         21   -1    0    0  503  502  0.00000000000E+00  0.00000000000E+00  0.65911624121E+03  0.65911624121E+03  0.00000000000E+00 0.  1.
         21   -1    0    0  501  503 -0.00000000000E+00 -0.00000000000E+00 -0.15259051365E+03  0.15259051365E+03  0.00000000000E+00 0.  1.
          6    2    1    2  501    0  0.27470660450E+02 -0.45365672927E+02 -0.79291275801E+02  0.19692888791E+03  0.17228232355E+03 0.  0.
         24    2    3    3    0    0 -0.22221162851E+02  0.28419730991E+02 -0.23669008890E+02  0.91907510507E+02  0.81149906455E+02 0.  0.
         -6    2    1    2    0  502 -0.27470660450E+02  0.45365672927E+02  0.58581700337E+03  0.61477786696E+03  0.17876683921E+03 0.  0.
        -24    2    5    5    0    0 -0.52791212609E+02 -0.17549891161E+02  0.19337993592E+03  0.21649600637E+03  0.79873715010E+02 0.  0.
          5    1    3    3  501    0  0.49691823301E+02 -0.73785403918E+02 -0.55622266911E+02  0.10502137740E+03  0.47000000000E+01 0. -1.
        -11    1    4    4    0    0  0.21460658206E+02  0.24658325395E+02 -0.33680210191E+02  0.46935587995E+02  0.00000000000E+00 0.  1.
         12    1    4    4    0    0 -0.43681821057E+02  0.37614055953E+01  0.10011201301E+02  0.44971922512E+02  0.00000000000E+00 0. -1.
         -5    1    5    5    0  502  0.25320552158E+02  0.62915564088E+02  0.39243706745E+03  0.39828186059E+03  0.47000000000E+01 0.  1.
         13    1    6    6    0    0  0.98591814300E+01  0.14530750392E+02  0.88243283034E+02  0.89973458120E+02  0.00000000000E+00 0. -1.
        -14    1    6    6    0    0 -0.62650394039E+02 -0.32080641553E+02  0.10513665288E+03  0.12652254825E+03  0.00000000000E+00 0.  1.
</event>
<event>
12    1  0.8500177E-002  0.4732957E+03  0.7818608E-02  0.1021008E+00
         21   -1    0    0  501  502  0.00000000000E+00  0.00000000000E+00  0.12372577549E+03  0.12372577549E+03  0.00000000000E+00 0. -1.
         21   -1    0    0  502  503 -0.00000000000E+00 -0.00000000000E+00 -0.18105033427E+04  0.18105033427E+04  0.00000000000E+00 0. -1.
         -6    2    1    2    0  503 -0.22745922645E+03 -0.37777090093E+03 -0.82398900311E+03  0.95014937648E+03  0.17139838703E+03 0.  0.
        -24    2    3    3    0    0 -0.22118844160E+03 -0.24947877845E+03 -0.63197814801E+03  0.71908996872E+03  0.80808514172E+02 0.  0.
          6    2    1    2  501    0  0.22745922645E+03  0.37777090093E+03 -0.86278856413E+03  0.98407974174E+03  0.17193102811E+03 0.  0.
         24    2    5    5    0    0  0.12932941143E+03  0.26093830414E+03 -0.69173750739E+03  0.75482034656E+03  0.80237654621E+02 0.  0.
          5    1    5    5  501    0  0.98129815019E+02  0.11683259679E+03 -0.17105105675E+03  0.22925939519E+03  0.47000000000E+01 0. -1.
        -11    1    6    6    0    0 -0.94295631902E+01  0.40442964967E+02 -0.91469823174E+02  0.10045535640E+03  0.00000000000E+00 0.  1.
         12    1    6    6    0    0  0.13875897462E+03  0.22049533917E+03 -0.60026768421E+03  0.65436499016E+03  0.00000000000E+00 0. -1.
         -5    1    3    3    0  503 -0.62707848512E+01 -0.12829212248E+03 -0.19201085511E+03  0.23105940776E+03  0.47000000000E+01 0.  1.
         11    1    4    4    0    0 -0.21072356831E+03 -0.25389807704E+03 -0.62140311817E+03  0.70356981959E+03  0.00000000000E+00 0. -1.
        -12    1    4    4    0    0 -0.10464873282E+02  0.44192985948E+01 -0.10575029836E+02  0.15520149126E+02  0.00000000000E+00 0.  1.
</event>
<event>
12    1  0.8500177E-002  0.1815496E+03  0.7818608E-02  0.1167537E+00
         21   -1    0    0  503  502  0.00000000000E+00  0.00000000000E+00  0.88217676695E+02  0.88217676695E+02  0.00000000000E+00 0.  1.
         21   -1    0    0  501  503 -0.00000000000E+00 -0.00000000000E+00 -0.38685458599E+03  0.38685458599E+03  0.00000000000E+00 0.  1.
          6    2    1    2  501    0  0.36024650751E+02 -0.16152415236E+02 -0.92704636649E+02  0.20384900510E+03  0.17720494137E+03 0.  0.
         24    2    3    3    0    0 -0.30641922824E+02 -0.56423110219E+02 -0.81556242205E+02  0.12502935269E+03  0.69702393012E+02 0.  0.
         -6    2    1    2    0  502 -0.36024650751E+02  0.16152415236E+02 -0.20593227265E+03  0.27122325759E+03  0.17203278338E+03 0.  0.
        -24    2    5    5    0    0  0.24847261395E+02 -0.36095223482E+02 -0.74900764499E+02  0.11751394893E+03  0.79241101162E+02 0.  0.
          5    1    3    3  501    0  0.66666573575E+02  0.40270694983E+02 -0.11148394444E+02  0.78819652406E+02  0.47000000000E+01 0. -1.
        -11    1    4    4    0    0 -0.36977377679E+02 -0.10024913329E+02 -0.64827546765E+02  0.75302298549E+02  0.00000000000E+00 0.  1.
         12    1    4    4    0    0  0.63354548544E+01 -0.46398196890E+02 -0.16728695440E+02  0.49727054145E+02  0.00000000000E+00 0. -1.
         -5    1    5    5    0  502 -0.60871912146E+02  0.52247638718E+02 -0.13103150815E+03  0.15370930866E+03  0.47000000000E+01 0.  1.
         11    1    6    6    0    0  0.15733219038E+02 -0.37036775114E+02 -0.90713693649E+02  0.99238254255E+02  0.00000000000E+00 0. -1.
        -12    1    6    6    0    0  0.91140423567E+01  0.94155163188E+00  0.15812929150E+02  0.18275694675E+02  0.00000000000E+00 0.  1.
</event>
<event>
12    1  0.8500177E-002  0.1890924E+03  0.7818608E-02  0.1160377E+00
         21   -1    0    0  503  502  0.00000000000E+00  0.00000000000E+00  0.46844340598E+02  0.46844340598E+02  0.00000000000E+00 0.  1.
         21   -1    0    0  501  503 -0.00000000000E+00 -0.00000000000E+00 -0.74573477925E+03  0.74573477925E+03  0.00000000000E+00 0.  1.
          6    2    1    2  501    0  0.70481292894E+02  0.32983522392E+02 -0.33593561041E+03  0.38549794485E+03  0.17233805657E+03 0.  0.
         24    2    3    3    0    0  0.32460623722E+02  0.87248932585E+02 -0.19873578904E+03  0.23306373933E+03  0.78464797296E+02 0.  0.
         -6    2    1    2    0  502 -0.70481292894E+02 -0.32983522392E+02 -0.36295482824E+03  0.40708117500E+03  0.16710281356E+03 0.  0.
        -24    2    5    5    0    0 -0.95661703219E+02 -0.43012722357E+02 -0.18912063412E+03  0.23108385979E+03  0.81436357107E+02 0.  0.
          5    1    3    3  501    0  0.38020669172E+02 -0.54265410193E+02 -0.13719982137E+03  0.15243420552E+03  0.47000000000E+01 0. -1.
        -13    1    4    4    0    0  0.56489015972E+02  0.77286108048E+02 -0.15731698798E+03  0.18415424548E+03  0.00000000000E+00 0.  1.
         14    1    4    4    0    0 -0.24028392250E+02  0.99628245366E+01 -0.41418801062E+02  0.48909493846E+02  0.00000000000E+00 0. -1.
         -5    1    5    5    0  502  0.25180410324E+02  0.10029199965E+02 -0.17383419411E+03  0.17599731521E+03  0.47000000000E+01 0.  1.
         11    1    6    6    0    0 -0.14922742809E+02 -0.10505392522E+02  0.45031594512E+01  0.18797073443E+02  0.00000000000E+00 0. -1.
        -12    1    6    6    0    0 -0.80738960410E+02 -0.32507329836E+02 -0.19362379358E+03  0.21228678635E+03  0.00000000000E+00 0.  1.
</event>
<event>
12    1  0.8500177E-002  0.2073000E+03  0.7818608E-02  0.1143888E+00
         21   -1    0    0  501  502  0.00000000000E+00  0.00000000000E+00  0.75463804588E+03  0.75463804588E+03  0.00000000000E+00 0. -1.
         21   -1    0    0  502  503 -0.00000000000E+00 -0.00000000000E+00 -0.59047822623E+02  0.59047822623E+02  0.00000000000E+00 0. -1.
         -6    2    1    2    0  503 -0.11278490164E+03 -0.18480355497E+02  0.26768450437E+03  0.33856799021E+03  0.17294893042E+03 0.  0.
        -24    2    3    3    0    0 -0.84126008554E+02  0.55710816111E+02  0.16833542701E+03  0.21121811282E+03  0.78073009742E+02 0.  0.
          6    2    1    2  501    0  0.11278490164E+03  0.18480355497E+02  0.42790571888E+03  0.47511787829E+03  0.17196434643E+03 0.  0.
         24    2    5    5    0    0 -0.82387084471E+00  0.31301785080E+02  0.14530901171E+03  0.17023375088E+03  0.82971926235E+02 0.  0.
          5    1    5    5  501    0  0.11360877248E+03 -0.12821429583E+02  0.28259670718E+03  0.30488412741E+03  0.47000000000E+01 0. -1.
        -11    1    6    6    0    0 -0.22984025267E+02 -0.20973678333E+02  0.40965923313E+02  0.51442856387E+02  0.00000000000E+00 0.  1.
         12    1    6    6    0    0  0.22160154423E+02  0.52275463413E+02  0.10434308839E+03  0.11879089449E+03  0.00000000000E+00 0. -1.
         -5    1    3    3    0  503 -0.28658893086E+02 -0.74191171608E+02  0.99349077357E+02  0.12734987738E+03  0.47000000000E+01 0.  1.
         13    1    4    4    0    0 -0.38967262173E+02  0.55863435453E+02  0.14541345021E+03  0.16057472542E+03  0.00000000000E+00 0. -1.
        -14    1    4    4    0    0 -0.45158746381E+02 -0.15261934211E+00  0.22921976809E+02  0.50643387408E+02  0.00000000000E+00 0.  1.
</event>
<event>
12    1  0.8500177E-002  0.2140401E+03  0.7818608E-02  0.1138720E+00
         21   -1    0    0  503  502  0.00000000000E+00  0.00000000000E+00  0.10991565930E+04  0.10991565930E+04  0.00000000000E+00 0. -1.
         21   -1    0    0  501  503 -0.00000000000E+00 -0.00000000000E+00 -0.53468933704E+02  0.53468933704E+02  0.00000000000E+00 0. -1.
          6    2    1    2  501    0 -0.23450733775E+02  0.12340341364E+03  0.24710968280E+03  0.32586076817E+03  0.17130004521E+03 0.  0.
         24    2    3    3    0    0  0.13956547970E+02  0.81230377955E+02  0.52538744858E+02  0.12323350061E+03  0.75053423830E+02 0.  0.
         -6    2    1    2    0  502  0.23450733775E+02 -0.12340341364E+03  0.79857797647E+03  0.82676475850E+03  0.17330563174E+03 0.  0.
        -24    2    5    5    0    0  0.69113148091E+02 -0.57952711526E+02  0.60615489141E+03  0.61839589291E+03  0.82792414931E+02 0.  0.
          5    1    3    3  501    0 -0.37407281746E+02  0.42173035681E+02  0.19457093795E+03  0.20262726756E+03  0.47000000000E+01 0. -1.
        -13    1    4    4    0    0  0.38389943220E+02  0.49319630873E+02  0.76251616468E+01  0.62963138581E+02  0.00000000000E+00 0.  1.
         14    1    4    4    0    0 -0.24433395250E+02  0.31910747082E+02  0.44913583211E+02  0.60270362033E+02  0.00000000000E+00 0. -1.
         -5    1    5    5    0  502 -0.45662414316E+02 -0.65450702109E+02  0.19242308505E+03  0.20836886559E+03  0.47000000000E+01 0.  1.
         11    1    6    6    0    0  0.55947274859E+01 -0.57122060074E+02  0.23969083798E+03  0.24646689136E+03  0.00000000000E+00 0. -1.
        -12    1    6    6    0    0  0.63518420605E+02 -0.83065145206E+00  0.36646405343E+03  0.37192900155E+03  0.00000000000E+00 0.  1.
</event>
<event>
12    1  0.8500177E-002  0.1822035E+03  0.7818608E-02  0.1165765E+00
         21   -1    0    0  503  502  0.00000000000E+00  0.00000000000E+00  0.73630819978E+03  0.73630819978E+03  0.00000000000E+00 0.  1.
         21   -1    0    0  501  503 -0.00000000000E+00 -0.00000000000E+00 -0.51052513013E+02  0.51052513013E+02  0.00000000000E+00 0.  1.
          6    2    1    2  501    0 -0.41903281504E+01  0.58524670628E+02  0.20741969100E+03  0.27608160642E+03  0.17249762105E+03 0.  0.
         24    2    3    3    0    0 -0.67994248814E+02  0.44209278134E+02  0.15623465498E+03  0.19290788060E+03  0.78908205123E+02 0.  0.
         -6    2    1    2    0  502  0.41903281504E+01 -0.58524670628E+02  0.47783599577E+03  0.51127910638E+03  0.17215222868E+03 0.  0.
        -24    2    5    5    0    0  0.53055134518E+02 -0.69873989444E+02  0.41010099432E+03  0.42685934115E+03  0.79554068952E+02 0.  0.
          5    1    3    3  501    0  0.63803920664E+02  0.14315392494E+02  0.51185036017E+02  0.83173725818E+02  0.47000000000E+01 0. -1.
        -11    1    4    4    0    0  0.13568407521E+02  0.33484986751E+01  0.25778324632E+01  0.14211240138E+02  0.00000000000E+00 0.  1.
         12    1    4    4    0    0 -0.81562656336E+02  0.40860779458E+02  0.15365682252E+03  0.17869664046E+03  0.00000000000E+00 0. -1.
         -5    1    5    5    0  502 -0.48864806367E+02  0.11349318816E+02  0.67735001449E+02  0.84419765222E+02  0.47000000000E+01 0.  1.
         13    1    6    6    0    0  0.38110146504E+02 -0.24598430759E+02  0.33393242000E+03  0.33699900177E+03  0.00000000000E+00 0. -1.
        -14    1    6    6    0    0  0.14944988014E+02 -0.45275558685E+02  0.76168574317E+02  0.89860339385E+02  0.00000000000E+00 0.  1.
</event>
<event>
12    1  0.8500177E-002  0.1866352E+03  0.7818608E-02  0.1161644E+00
         21   -1    0    0  501  502  0.00000000000E+00  0.00000000000E+00  0.48043497292E+03  0.48043497292E+03  0.00000000000E+00 0.  1.
         21   -1    0    0  502  503 -0.00000000000E+00 -0.00000000000E+00 -0.35684764347E+03  0.35684764347E+03  0.00000000000E+00 0.  1.
         -6    2    1    2    0  503 -0.38496597685E+02  0.60611742132E+02 -0.31204747882E+03  0.36335183061E+03  0.17174152803E+03 0.  0.
        -24    2    3    3    0    0 -0.77567419829E+02 -0.24360068969E+00 -0.21101642467E+03  0.23901653476E+03  0.81143135531E+02 0.  0.
          6    2    1    2  501    0  0.38496597685E+02 -0.60611742132E+02  0.43563480827E+03  0.47393078579E+03  0.17226993999E+03 0.  0.
         24    2    5    5    0    0 -0.47169963094E+02 -0.36380503327E+02  0.26081606095E+03  0.27769216323E+03  0.74426967080E+02 0.  0.
          5    1    5    5  501    0  0.85666560778E+02 -0.24231238805E+02  0.17481874733E+03  0.19623862256E+03  0.47000000000E+01 0. -1.
        -13    1    6    6    0    0  0.11628017384E+02 -0.34599801317E+02  0.10113547106E+03  0.10752088423E+03  0.00000000000E+00 0.  1.
         14    1    6    6    0    0 -0.58797980478E+02 -0.17807020096E+01  0.15968058989E+03  0.17017127900E+03  0.00000000000E+00 0. -1.
         -5    1    3    3    0  503  0.39070822144E+02  0.60855342822E+02 -0.10103105414E+03  0.12433529585E+03  0.47000000000E+01 0.  1.
         11    1    4    4    0    0  0.12779110136E+02  0.22504476272E+01 -0.47503921740E+01  0.13817973665E+02  0.00000000000E+00 0. -1.
        -12    1    4    4    0    0 -0.90346529965E+02 -0.24940483169E+01 -0.20626603250E+03  0.22519856109E+03  0.00000000000E+00 0.  1.
</event>
<event>
12    1  0.8500177E-002  0.2002360E+03  0.7818608E-02  0.1149675E+00
         21   -1    0    0  501  502  0.00000000000E+00  0.00000000000E+00  0.20018318769E+03  0.20018318769E+03  0.00000000000E+00 0. -1.
         21   -1    0    0  502  503 -0.00000000000E+00 -0.00000000000E+00 -0.42243115710E+03  0.42243115710E+03  0.00000000000E+00 0. -1.
         -6    2    1    2    0  503  0.36363903187E+01 -0.99598142302E+02 -0.33728156666E+03  0.39224139028E+03  0.17367049190E+03 0.  0.
        -24    2    3    3    0    0  0.56854446647E+02 -0.24815112642E+02 -0.23147385796E+03  0.25209138399E+03  0.78241300099E+02 0.  0.
          6    2    1    2  501    0 -0.36363903187E+01  0.99598142302E+02  0.11503359725E+03  0.23037295451E+03  0.17293338714E+03 0.  0.
         24    2    5    5    0    0  0.55500579414E+02  0.97178256647E+02  0.66782817402E+02  0.15386632217E+03  0.81798365004E+02 0.  0.
          5    1    5    5  501    0 -0.59136969733E+02  0.24198856544E+01  0.48250779845E+02  0.76506632336E+02  0.47000000000E+01 0. -1.
        -13    1    6    6    0    0  0.35498047818E+02  0.27742145296E+02 -0.12340686706E+02  0.46712210105E+02  0.00000000000E+00 0.  1.
         14    1    6    6    0    0  0.20002531596E+02  0.69436111352E+02  0.79123504108E+02  0.10715411206E+03  0.00000000000E+00 0. -1.
         -5    1    3    3    0  503 -0.53218056328E+02 -0.74783029660E+02 -0.10580770870E+03  0.14015000630E+03  0.47000000000E+01 0.  1.
         13    1    4    4    0    0  0.14947614300E+02 -0.77999992826E+01 -0.18993385530E+03  0.19068072936E+03  0.00000000000E+00 0. -1.
        -14    1    4    4    0    0  0.41906832347E+02 -0.17015113360E+02 -0.41540002667E+02  0.61410654625E+02  0.00000000000E+00 0.  1.
</event>
<event>
12    1  0.8500177E-002  0.2032862E+03  0.7818608E-02  0.1147870E+00
         21   -1    0    0  501  502  0.00000000000E+00  0.00000000000E+00  0.37894198004E+03  0.37894198004E+03  0.00000000000E+00 0.  1.
         21   -1    0    0  502  503 -0.00000000000E+00 -0.00000000000E+00 -0.16653291227E+03  0.16653291227E+03  0.00000000000E+00 0.  1.
         -6    2    1    2    0  503 -0.10607356872E+03 -0.22194348603E+02 -0.57814652116E+02  0.20732383594E+03  0.16702229749E+03 0.  0.
        -24    2    3    3    0    0 -0.69360509793E+02  0.85607279356E+01 -0.98506214240E+02  0.14430307224E+03  0.78966676731E+02 0.  0.
          6    2    1    2  501    0  0.10607356872E+03  0.22194348603E+02  0.27022371988E+03  0.33815105637E+03  0.17199153190E+03 0.  0.
         24    2    5    5    0    0  0.52389530699E+02 -0.33834087425E+02  0.22708114230E+03  0.24924361245E+03  0.81652463308E+02 0.  0.
          5    1    5    5  501    0  0.53684038026E+02  0.56028436028E+02  0.43142577585E+02  0.88907443913E+02  0.47000000000E+01 0. -1.
        -13    1    6    6    0    0  0.19309987572E+02  0.21974309079E+02  0.12433400361E+03  0.12772897217E+03  0.00000000000E+00 0.  1.
         14    1    6    6    0    0  0.33079543127E+02 -0.55808396504E+02  0.10274713869E+03  0.12151464028E+03  0.00000000000E+00 0. -1.
         -5    1    3    3    0  503 -0.36713058931E+02 -0.30755076539E+02  0.40691562124E+02  0.63020763698E+02  0.47000000000E+01 0.  1.
         11    1    4    4    0    0 -0.77918534771E+02  0.14454200266E+02 -0.47809723471E+02  0.92552642451E+02  0.00000000000E+00 0. -1.
        -12    1    4    4    0    0  0.85580249783E+01 -0.58934723299E+01 -0.50696490768E+02  0.51750429794E+02  0.00000000000E+00 0.  1.
</event>
<event>
12    1  0.8500177E-002  0.2916342E+03  0.7818608E-02  0.1089507E+00
         21   -1    0    0  503  502  0.00000000000E+00  0.00000000000E+00  0.41536103400E+03  0.41536103400E+03  0.00000000000E+00 0. -1.
         21   -1    0    0  501  503 -0.00000000000E+00 -0.00000000000E+00 -0.23275612285E+03  0.23275612285E+03  0.00000000000E+00 0. -1.
          6    2    1    2  501    0 -0.47341920589E+02  0.22920475887E+03  0.20376435730E+03  0.35571637748E+03  0.17389119865E+03 0.  0.
         24    2    3    3    0    0  0.14177152501E+02  0.21169693935E+03  0.14614081227E+03  0.26949756840E+03  0.79089927148E+02 0.  0.
         -6    2    1    2    0  502  0.47341920589E+02 -0.22920475887E+03 -0.21159446155E+02  0.29240077937E+03  0.17399544442E+03 0.  0.
        -24    2    5    5    0    0  0.25161538839E+02 -0.23204837460E+03  0.18426507371E+02  0.24669308635E+03  0.77707087750E+02 0.  0.
          5    1    3    3  501    0 -0.61519073090E+02  0.17507819518E+02  0.57623545027E+02  0.86218809083E+02  0.47000000000E+01 0. -1.
        -11    1    4    4    0    0  0.58837349177E+01 -0.61007872508E+01  0.52862267404E+01  0.99891008010E+01  0.00000000000E+00 0.  1.
         12    1    4    4    0    0  0.82934175836E+01  0.21779772661E+03  0.14085458553E+03  0.25950846760E+03  0.00000000000E+00 0. -1.
         -5    1    5    5    0  502  0.22180381749E+02  0.28436157250E+01 -0.39585953526E+02  0.45707693023E+02  0.47000000000E+01 0.  1.
         13    1    6    6    0    0 -0.26216348130E+02 -0.50158343687E+02 -0.16667356095E+01  0.56620971011E+02  0.00000000000E+00 0. -1.
        -14    1    6    6    0    0  0.51377886969E+02 -0.18189003091E+03  0.20093242980E+02  0.19007211533E+03  0.00000000000E+00 0.  1.
</event>
<event>
12    1  0.8500177E-002  0.1878568E+03  0.7818608E-02  0.1161713E+00
         21   -1    0    0  501  502  0.00000000000E+00  0.00000000000E+00  0.23058699434E+03  0.23058699434E+03  0.00000000000E+00 0. -1.
         21   -1    0    0  502  503 -0.00000000000E+00 -0.00000000000E+00 -0.16212736782E+03  0.16212736782E+03  0.00000000000E+00 0. -1.
         -6    2    1    2    0  503  0.23205706761E+02 -0.73039839433E+02  0.90654461572E+02  0.20355093934E+03  0.16535244338E+03 0.  0.
        -24    2    3    3    0    0  0.22532225121E+02  0.20184705839E+02  0.22552255905E+02  0.88003244272E+02  0.79503730965E+02 0.  0.
          6    2    1    2  501    0 -0.23205706761E+02  0.73039839433E+02 -0.22194835045E+02  0.18916342282E+03  0.17151345970E+03 0.  0.
         24    2    5    5    0    0 -0.13908886496E+02  0.34482109590E+02 -0.79601024018E+02  0.11922995494E+03  0.80603884051E+02 0.  0.
          5    1    5    5  501    0 -0.92968202651E+01  0.38557729843E+02  0.57406188973E+02  0.69933467883E+02  0.47000000000E+01 0. -1.
        -11    1    6    6    0    0 -0.80526480261E+01 -0.22814143219E+02 -0.45355876264E+01  0.24615073149E+02  0.00000000000E+00 0.  1.
         12    1    6    6    0    0 -0.58562384695E+01  0.57296252809E+02 -0.75065436391E+02  0.94614881787E+02  0.00000000000E+00 0. -1.
         -5    1    3    3    0  503  0.67348164004E+00 -0.93224545273E+02  0.68102205667E+02  0.11554769507E+03  0.47000000000E+01 0.  1.
         13    1    4    4    0    0  0.31434933454E+02 -0.46164900923E+01  0.43829969403E+02  0.54134399783E+02  0.00000000000E+00 0. -1.
        -14    1    4    4    0    0 -0.89027083334E+01  0.24801195931E+02 -0.21277713498E+02  0.33868844489E+02  0.00000000000E+00 0.  1.
</event>
<event>
12    1  0.8500177E-002  0.2229512E+03  0.7818608E-02  0.1131793E+00
         21   -1    0    0  503  502  0.00000000000E+00  0.00000000000E+00  0.48514472181E+03  0.48514472181E+03  0.00000000000E+00 0. -1.
         21   -1    0    0  501  503 -0.00000000000E+00 -0.00000000000E+00 -0.12711147776E+03  0.12711147776E+03  0.00000000000E+00 0.  1.
          6    2    1    2  501    0  0.61661487400E+02  0.12933331533E+03  0.43413455194E+02  0.22664909211E+03  0.17016414834E+03 0.  0.
         24    2    3    3    0    0  0.10320921870E+03  0.63406250424E+02  0.24406485273E+02  0.14630018566E+03  0.78329894562E+02 0.  0.
         -6    2    1    2    0  502 -0.61661487400E+02 -0.12933331533E+03  0.31461978886E+03  0.38560710746E+03  0.17081564417E+03 0.  0.
        -24    2    5    5    0    0  0.10847804113E+02 -0.12367914835E+03  0.17909075299E+03  0.23172476108E+03  0.78795053787E+02 0.  0.
          5    1    3    3  501    0 -0.41547731302E+02  0.65927064904E+02  0.19006969921E+02  0.80348906457E+02  0.47000000000E+01 0. -1.
        -13    1    4    4    0    0  0.32566663141E+02  0.65179668608E+02  0.50770236987E+01  0.73039392917E+02  0.00000000000E+00 0.  1.
         14    1    4    4    0    0  0.70642555560E+02 -0.17734181844E+01  0.19329461574E+02  0.73260792740E+02  0.00000000000E+00 0. -1.
         -5    1    5    5    0  502 -0.72509291513E+02 -0.56541669736E+01  0.13552903588E+03  0.15388234638E+03  0.47000000000E+01 0.  1.
         11    1    6    6    0    0  0.28494192728E+02 -0.14129030096E+02  0.66131517227E+02  0.73382055582E+02  0.00000000000E+00 0. -1.
        -12    1    6    6    0    0 -0.17646388615E+02 -0.10955011826E+03  0.11295923576E+03  0.15834270550E+03  0.00000000000E+00 0.  1.
</event>
<event>
12    1  0.8500177E-002  0.1914028E+03  0.7818608E-02  0.1157280E+00
         21   -1    0    0  503  502  0.00000000000E+00  0.00000000000E+00  0.71387089202E+03  0.71387089202E+03  0.00000000000E+00 0. -1.
         21   -1    0    0  501  503 -0.00000000000E+00 -0.00000000000E+00 -0.52203220572E+02  0.52203220572E+02  0.00000000000E+00 0. -1.
          6    2    1    2  501    0  0.36850620494E+02 -0.77424057489E+02  0.27811104318E+03  0.33741258951E+03  0.17073092957E+03 0.  0.
         24    2    3    3    0    0 -0.14317065834E+02 -0.62934997477E+02  0.74578326751E+02  0.12699462060E+03  0.79999465987E+02 0.  0.
         -6    2    1    2    0  502 -0.36850620494E+02  0.77424057489E+02  0.38355662826E+03  0.42866152308E+03  0.17112148133E+03 0.  0.
        -24    2    5    5    0    0 -0.65885374672E+02  0.72811552521E+02  0.37743475357E+03  0.39826646588E+03  0.80726574702E+02 0.  0.
          5    1    3    3  501    0  0.51167686328E+02 -0.14489060012E+02  0.20353271643E+03  0.21041796892E+03  0.47000000000E+01 0. -1.
        -11    1    4    4    0    0 -0.29004631046E+02 -0.26037178324E+02  0.77936187631E+02  0.87139271398E+02  0.00000000000E+00 0.  1.
         12    1    4    4    0    0  0.14687565212E+02 -0.36897819153E+02 -0.33578608809E+01  0.39855349200E+02  0.00000000000E+00 0. -1.
         -5    1    5    5    0  502  0.29034754178E+02  0.46125049679E+01  0.61218746878E+01  0.30395057196E+02  0.47000000000E+01 0.  1.
         13    1    6    6    0    0  0.90423177823E+01  0.24386363985E+02  0.17664119710E+03  0.17854571060E+03  0.00000000000E+00 0. -1.
        -14    1    6    6    0    0 -0.74927692454E+02  0.48425188535E+02  0.20079355647E+03  0.21972075528E+03  0.00000000000E+00 0.  1.
</event>
<event>
12    1  0.8500177E-002  0.1783087E+03  0.7818608E-02  0.1169628E+00
         21   -1    0    0  501  502  0.00000000000E+00  0.00000000000E+00  0.49718075285E+02  0.49718075285E+02  0.00000000000E+00 0.  1.
         21   -1    0    0  502  503 -0.00000000000E+00 -0.00000000000E+00 -0.69568448143E+03  0.69568448143E+03  0.00000000000E+00 0.  1.
         -6    2    1    2    0  503 -0.39579664441E+02 -0.27133758968E+02 -0.43072702037E+03  0.46589944687E+03  0.17097876419E+03 0.  0.
        -24    2    3    3    0    0  0.34581328097E+02  0.10031438173E+02 -0.17903626865E+03  0.20084958516E+03  0.83606652614E+02 0.  0.
          6    2    1    2  501    0  0.39579664441E+02  0.27133758968E+02 -0.21523938578E+03  0.27950310984E+03  0.17173003381E+03 0.  0.
         24    2    5    5    0    0  0.36874192848E+02  0.52717610027E+02 -0.52238825605E+02  0.11441790267E+03  0.78890487678E+02 0.  0.
          5    1    5    5  501    0  0.27054715932E+01 -0.25583851059E+02 -0.16300056017E+03  0.16508520717E+03  0.47000000000E+01 0. -1.
        -13    1    6    6    0    0 -0.93455769061E+01  0.54473569459E+02 -0.32605750893E+02  0.64170433758E+02  0.00000000000E+00 0.  1.
         14    1    6    6    0    0  0.46219769754E+02 -0.17559594325E+01 -0.19633074711E+02  0.50247468914E+02  0.00000000000E+00 0. -1.
         -5    1    3    3    0  503 -0.74160992538E+02 -0.37165197141E+02 -0.25169075172E+03  0.26504986172E+03  0.47000000000E+01 0.  1.
         13    1    4    4    0    0 -0.45265584095E+01  0.40803845313E+02 -0.74134232678E+02  0.84742716372E+02  0.00000000000E+00 0. -1.
        -14    1    4    4    0    0  0.39107886506E+02 -0.30772407140E+02 -0.10490203597E+03  0.11610686878E+03  0.00000000000E+00 0.  1.
</event>
<event>
12    1  0.8500177E-002  0.1902384E+03  0.7818608E-02  0.1158447E+00
         21   -1    0    0  503  502  0.00000000000E+00  0.00000000000E+00  0.15357592146E+03  0.15357592146E+03  0.00000000000E+00 0. -1.
         21   -1    0    0  501  503 -0.00000000000E+00 -0.00000000000E+00 -0.26154129604E+03  0.26154129604E+03  0.00000000000E+00 0. -1.
          6    2    1    2  501    0 -0.76386143724E+02 -0.18486637216E+02  0.12577692338E+02  0.19065376649E+03  0.17324566841E+03 0.  0.
         24    2    3    3    0    0  0.60265677053E+01  0.65769691399E+01  0.52037393484E+02  0.95789666939E+02  0.79926178004E+02 0.  0.
         -6    2    1    2    0  502  0.76386143724E+02  0.18486637216E+02 -0.12054306692E+03  0.22446345101E+03  0.17226900809E+03 0.  0.
        -24    2    5    5    0    0  0.10927756063E+03 -0.13965556386E+02 -0.11343991613E+03  0.17747903948E+03  0.80582708191E+02 0.  0.
          5    1    3    3  501    0 -0.82412711429E+02 -0.25063606356E+02 -0.39459701146E+02  0.94864099549E+02  0.47000000000E+01 0. -1.
        -13    1    4    4    0    0  0.40887321490E+02 -0.90413179142E+01  0.31648126611E+02  0.52489259914E+02  0.00000000000E+00 0.  1.
         14    1    4    4    0    0 -0.34860753785E+02  0.15618287054E+02  0.20389266873E+02  0.43300407025E+02  0.00000000000E+00 0. -1.
         -5    1    5    5    0  502 -0.32891416908E+02  0.32452193602E+02 -0.71031507897E+01  0.46984411531E+02  0.47000000000E+01 0.  1.
         11    1    6    6    0    0  0.98981945530E+02 -0.67811275693E+01 -0.12556101861E+03  0.16002805575E+03  0.00000000000E+00 0. -1.
        -12    1    6    6    0    0  0.10295615101E+02 -0.71844288164E+01  0.12121102481E+02  0.17450983728E+02  0.00000000000E+00 0.  1.
</event>
<event>
12    1  0.8500177E-002  0.2065127E+03  0.7818608E-02  0.1144380E+00
         21   -1    0    0  503  502  0.00000000000E+00  0.00000000000E+00  0.15060873155E+03  0.15060873155E+03  0.00000000000E+00 0. -1.
         21   -1    0    0  501  503 -0.00000000000E+00 -0.00000000000E+00 -0.29208457119E+03  0.29208457119E+03  0.00000000000E+00 0. -1.
          6    2    1    2  501    0  0.10306895543E+03 -0.51291707535E+02 -0.10976173607E+03  0.23386993025E+03  0.17144520038E+03 0.  0.
         24    2    3    3    0    0  0.60101036614E+02  0.38292359063E+02 -0.57631155828E+02  0.12157017766E+03  0.79871888728E+02 0.  0.
         -6    2    1    2    0  502 -0.10306895543E+03  0.51291707535E+02 -0.31714103574E+02  0.20882337249E+03  0.17131073432E+03 0.  0.
        -24    2    5    5    0    0 -0.78179261131E+02  0.32396229834E+02 -0.87148665052E+02  0.14501415241E+03  0.79200391422E+02 0.  0.
          5    1    3    3  501    0  0.42967918821E+02 -0.89584066598E+02 -0.52130580241E+02  0.11229975259E+03  0.47000000000E+01 0. -1.
        -13    1    4    4    0    0  0.13224562968E+02  0.21475041549E+02 -0.66376414997E+02  0.71006302136E+02  0.00000000000E+00 0.  1.
         14    1    4    4    0    0  0.46876473646E+02  0.16817317514E+02  0.87452591684E+01  0.50563875522E+02  0.00000000000E+00 0. -1.
         -5    1    5    5    0  502 -0.24889694304E+02  0.18895477700E+02  0.55434561478E+02  0.63809220073E+02  0.47000000000E+01 0.  1.
         11    1    6    6    0    0 -0.29907278178E+02 -0.21490318080E+02 -0.78170248894E+01  0.37648173094E+02  0.00000000000E+00 0. -1.
        -12    1    6    6    0    0 -0.48271982953E+02  0.53886547914E+02 -0.79331640162E+02  0.10736597932E+03  0.00000000000E+00 0.  1.
</event>
<event>
12    1  0.8500177E-002  0.2770796E+03  0.7818608E-02  0.1097754E+00
         21   -1    0    0  501  502  0.00000000000E+00  0.00000000000E+00  0.12861523512E+04  0.12861523512E+04  0.00000000000E+00 0.  1.
         21   -1    0    0  502  503 -0.00000000000E+00 -0.00000000000E+00 -0.15040157007E+03  0.15040157007E+03  0.00000000000E+00 0. -1.
         -6    2    1    2    0  503 -0.21775500034E+03  0.30249788127E+01  0.65548417588E+01  0.27386025710E+03  0.16592192079E+03 0.  0.
        -24    2    3    3    0    0 -0.22901272655E+03 -0.14650534299E+02  0.27026492952E+02  0.24418975549E+03  0.78973022544E+02 0.  0.
          6    2    1    2  501    0  0.21775500034E+03 -0.30249788127E+01  0.11291959393E+04  0.11626936641E+04  0.17130877541E+03 0.  0.
         24    2    5    5    0    0  0.31484373248E+02 -0.60476441289E+01  0.26748309075E+03  0.28106051682E+03  0.80124718532E+02 0.  0.
          5    1    5    5  501    0  0.18627062709E+03  0.30226653162E+01  0.86171284858E+03  0.88163314730E+03  0.47000000000E+01 0. -1.
        -13    1    6    6    0    0  0.31508554420E+02  0.20670637000E+02  0.23921057936E+03  0.24216061924E+03  0.00000000000E+00 0.  1.
         14    1    6    6    0    0 -0.24181171301E-01 -0.26718281129E+02  0.28272511398E+02  0.38899897583E+02  0.00000000000E+00 0. -1.
         -5    1    3    3    0  503  0.11257726210E+02  0.17675513112E+02 -0.20471651193E+02  0.29670501609E+02  0.47000000000E+01 0.  1.
         11    1    4    4    0    0 -0.20620367968E+03 -0.35941610157E+02  0.12263522206E+02  0.20967153081E+03  0.00000000000E+00 0. -1.
        -12    1    4    4    0    0 -0.22809046872E+02  0.21291075858E+02  0.14762970746E+02  0.34518224688E+02  0.00000000000E+00 0.  1.
</event>
<event>
12    1  0.8500177E-002  0.2212977E+03  0.7818608E-02  0.1133060E+00
         21   -1    0    0  503  502  0.00000000000E+00  0.00000000000E+00  0.17641289573E+03  0.17641289573E+03  0.00000000000E+00 0. -1.
         21   -1    0    0  501  503 -0.00000000000E+00 -0.00000000000E+00 -0.30942086630E+03  0.30942086630E+03  0.00000000000E+00 0. -1.
          6    2    1    2  501    0  0.12341648136E+03 -0.63886271120E+02 -0.14545339188E+03  0.26418636788E+03  0.17124445758E+03 0.  0.
         24    2    3    3    0    0  0.72488354062E+02  0.29132907838E+02 -0.53565495564E+02  0.12378794447E+03  0.79692566081E+02 0.  0.
         -6    2    1    2    0  502 -0.12341648136E+03  0.63886271120E+02  0.12445421314E+02  0.22164739415E+03  0.17221961362E+03 0.  0.
        -24    2    5    5    0    0 -0.13016754013E+03  0.23229338729E+02 -0.35297293995E+02  0.15840168433E+03  0.79762171187E+02 0.  0.
          5    1    3    3  501    0  0.50928127298E+02 -0.93019178958E+02 -0.91887896320E+02  0.14039842340E+03  0.47000000000E+01 0. -1.
        -11    1    4    4    0    0  0.59912278223E+00  0.14571291817E+02 -0.48069621331E+02  0.50233156264E+02  0.00000000000E+00 0.  1.
         12    1    4    4    0    0  0.71889231279E+02  0.14561616021E+02 -0.54958742326E+01  0.73554788210E+02  0.00000000000E+00 0. -1.
         -5    1    5    5    0  502  0.67510587743E+01  0.40656932391E+02  0.47742715309E+02  0.63245709824E+02  0.47000000000E+01 0.  1.
         13    1    6    6    0    0 -0.11378711269E+03  0.28551150076E+02 -0.57217926909E+02  0.13052419831E+03  0.00000000000E+00 0. -1.
        -14    1    6    6    0    0 -0.16380427441E+02 -0.53218113473E+01  0.21920632914E+02  0.27877486015E+02  0.00000000000E+00 0.  1.
</event>
<event>
12    1  0.8500177E-002  0.1963544E+03  0.7818608E-02  0.1153503E+00
         21   -1    0    0  501  502  0.00000000000E+00  0.00000000000E+00  0.26984000839E+03  0.26984000839E+03  0.00000000000E+00 0. -1.
         21   -1    0    0  502  503 -0.00000000000E+00 -0.00000000000E+00 -0.66806276420E+03  0.66806276420E+03  0.00000000000E+00 0. -1.
         -6    2    1    2    0  503  0.57073585156E+02  0.73920086675E+02 -0.61607720370E+03  0.64661128491E+03  0.17272365071E+03 0.  0.
        -24    2    3    3    0    0  0.14660444207E+02  0.97892152369E+02 -0.54771997720E+03  0.56253789510E+03  0.81571489400E+02 0.  0.
          6    2    1    2  501    0 -0.57073585156E+02 -0.73920086675E+02  0.21785444790E+03  0.29129148768E+03  0.16931803504E+03 0.  0.
         24    2    5    5    0    0 -0.91515816079E+02 -0.89866477812E+02  0.14781247098E+03  0.21148846022E+03  0.80173024151E+02 0.  0.
          5    1    5    5  501    0  0.34442230923E+02  0.15946391137E+02  0.70041976915E+02  0.79803027458E+02  0.47000000000E+01 0. -1.
        -11    1    6    6    0    0 -0.57501423528E+02 -0.42665397571E+02  0.13363133941E+03  0.15160502871E+03  0.00000000000E+00 0.  1.
         12    1    6    6    0    0 -0.34014392551E+02 -0.47201080241E+02  0.14181131569E+02  0.59883431508E+02  0.00000000000E+00 0. -1.
         -5    1    3    3    0  503  0.42413140949E+02 -0.23972065694E+02 -0.68357226509E+02  0.84073389814E+02  0.47000000000E+01 0.  1.
         13    1    4    4    0    0  0.20938247384E+02  0.22610678169E+01 -0.22240675991E+03  0.22340163268E+03  0.00000000000E+00 0. -1.
        -14    1    4    4    0    0 -0.62778031775E+01  0.95631084552E+02 -0.32531321728E+03  0.33913626242E+03  0.00000000000E+00 0.  1.
</event>
<event>
12    1  0.8500177E-002  0.1970434E+03  0.7818608E-02  0.1155638E+00
         21   -1    0    0  503  502  0.00000000000E+00  0.00000000000E+00  0.68322524498E+03  0.68322524498E+03  0.00000000000E+00 0.  1.
         21   -1    0    0  501  503 -0.00000000000E+00 -0.00000000000E+00 -0.74466127423E+02  0.74466127423E+02  0.00000000000E+00 0.  1.
          6    2    1    2  501    0  0.95221174768E+01  0.91767934444E+02  0.90501549547E+02  0.20323939658E+03  0.15685565766E+03 0.  0.
         24    2    3    3    0    0 -0.15811712286E+02  0.91802743758E+00  0.70841645641E+02  0.10678158013E+03  0.78312924082E+02 0.  0.
         -6    2    1    2    0  502 -0.95221174768E+01 -0.91767934444E+02  0.51825756801E+03  0.55445197582E+03  0.17410933971E+03 0.  0.
        -24    2    5    5    0    0 -0.57638315401E+02 -0.18412817591E+02  0.35423522752E+03  0.36838327922E+03  0.81008868306E+02 0.  0.
          5    1    3    3  501    0  0.25333829762E+02  0.90849907007E+02  0.19659903906E+02  0.96457816454E+02  0.47000000000E+01 0. -1.
        -13    1    4    4    0    0 -0.26464490243E+02  0.22469312032E+02  0.74756673332E+02  0.82424507488E+02  0.00000000000E+00 0.  1.
         14    1    4    4    0    0  0.10652777957E+02 -0.21551284595E+02 -0.39150276913E+01  0.24357072642E+02  0.00000000000E+00 0. -1.
         -5    1    5    5    0  502  0.48116197924E+02 -0.73355116853E+02  0.16402234050E+03  0.18606869660E+03  0.47000000000E+01 0.  1.
         13    1    6    6    0    0 -0.53947711115E+01  0.14163073816E+02  0.88436695654E+01  0.17547270632E+02  0.00000000000E+00 0. -1.
        -14    1    6    6    0    0 -0.52243544290E+02 -0.32575891406E+02  0.34539155795E+03  0.35083600859E+03  0.00000000000E+00 0.  1.
</event>
<event>
12    1  0.8500177E-002  0.2690249E+03  0.7818608E-02  0.1102039E+00
         21   -1    0    0  501  502  0.00000000000E+00  0.00000000000E+00  0.14724032047E+03  0.14724032047E+03  0.00000000000E+00 0. -1.
         21   -1    0    0  502  503 -0.00000000000E+00 -0.00000000000E+00 -0.51434805670E+03  0.51434805670E+03  0.00000000000E+00 0.  1.
         -6    2    1    2    0  503 -0.15764850480E+03  0.13342132481E+03 -0.25742714814E+03  0.37234810758E+03  0.17239511488E+03 0.  0.
        -24    2    3    3    0    0 -0.21522043152E+02  0.70619948360E+02 -0.58870552274E+02  0.12350832336E+03  0.79612741233E+02 0.  0.
          6    2    1    2  501    0  0.15764850480E+03 -0.13342132481E+03 -0.10968058810E+03  0.28924026959E+03  0.17022279862E+03 0.  0.
         24    2    5    5    0    0  0.76816179505E+02 -0.11163535399E+03 -0.76835252698E+01  0.15720245621E+03  0.79312029247E+02 0.  0.
          5    1    5    5  501    0  0.80832325296E+02 -0.21785970817E+02 -0.10199706283E+03  0.13203781338E+03  0.47000000000E+01 0. -1.
        -11    1    6    6    0    0 -0.12472323385E+02 -0.30470634060E+00  0.59835377152E+01  0.13836705539E+02  0.00000000000E+00 0.  1.
         12    1    6    6    0    0  0.89288502891E+02 -0.11133064765E+03 -0.13667062985E+02  0.14336575067E+03  0.00000000000E+00 0. -1.
         -5    1    3    3    0  503 -0.13612646165E+03  0.62801376452E+02 -0.19855659587E+03  0.24883978422E+03  0.47000000000E+01 0.  1.
         13    1    4    4    0    0  0.87784847594E+01  0.33006562618E+02  0.13312081850E+02  0.36656602321E+02  0.00000000000E+00 0. -1.
        -14    1    4    4    0    0 -0.30300527911E+02  0.37613385742E+02 -0.72182634123E+02  0.86851721040E+02  0.00000000000E+00 0.  1.
</event>
<event>
12    1  0.8500177E-002  0.1916823E+03  0.7818608E-02  0.1157864E+00
         21   -1    0    0  503  502  0.00000000000E+00  0.00000000000E+00  0.77275134260E+02  0.77275134260E+02  0.00000000000E+00 0.  1.
         21   -1    0    0  501  503 -0.00000000000E+00 -0.00000000000E+00 -0.46738398321E+03  0.46738398321E+03  0.00000000000E+00 0.  1.
          6    2    1    2  501    0 -0.74749600781E+02 -0.89448598593E+01 -0.21026720500E+03  0.28181863657E+03  0.17187766896E+03 0.  0.
         24    2    3    3    0    0 -0.85189041632E+02 -0.54134379172E+02 -0.19266866195E+03  0.23199019792E+03  0.80687885161E+02 0.  0.
         -6    2    1    2    0  502  0.74749600781E+02  0.89448598593E+01 -0.17984164395E+03  0.26284048090E+03  0.17627985751E+03 0.  0.
        -24    2    5    5    0    0  0.39665430700E+02  0.53632451785E+02 -0.41948405294E+02  0.11362749510E+03  0.81864233091E+02 0.  0.
          5    1    3    3  501    0  0.10439440852E+02  0.45189519312E+02 -0.17598543049E+02  0.49828438651E+02  0.47000000000E+01 0. -1.
        -13    1    4    4    0    0 -0.56875270377E+02  0.10982114740E+02 -0.94331979789E+02  0.11069745090E+03  0.00000000000E+00 0.  1.
         14    1    4    4    0    0 -0.28313771256E+02 -0.65116493911E+02 -0.98336682161E+02  0.12129274702E+03  0.00000000000E+00 0. -1.
         -5    1    5    5    0  502  0.35084170081E+02 -0.44687591926E+02 -0.13789323866E+03  0.14921298580E+03  0.47000000000E+01 0.  1.
         13    1    6    6    0    0  0.17688859470E+02  0.64003724275E+02 -0.54838194601E+02  0.86119684495E+02  0.00000000000E+00 0. -1.
        -14    1    6    6    0    0  0.21976571230E+02 -0.10371272490E+02  0.12889789307E+02  0.27507810608E+02  0.00000000000E+00 0.  1.
</event>
<event>
12    1  0.8500177E-002  0.1901855E+03  0.7818608E-02  0.1158312E+00
         21   -1    0    0  501  502  0.00000000000E+00  0.00000000000E+00  0.13227066309E+03  0.13227066309E+03  0.00000000000E+00 0. -1.
         21   -1    0    0  502  503 -0.00000000000E+00 -0.00000000000E+00 -0.43299429284E+03  0.43299429284E+03  0.00000000000E+00 0. -1.
         -6    2    1    2    0  503 -0.34606851068E+02 -0.73592623032E+02 -0.32200207167E+03  0.37397307623E+03  0.17192154978E+03 0.  0.
        -24    2    3    3    0    0  0.16193887371E+02  0.31033557138E+01 -0.22831870917E+03  0.24258947531E+03  0.80301605011E+02 0.  0.
          6    2    1    2  501    0  0.34606851068E+02  0.73592623032E+02  0.21278441921E+02  0.19129187970E+03  0.17183219385E+03 0.  0.
         24    2    5    5    0    0  0.44940106095E+02  0.11321376424E+03  0.36830203814E+01  0.14647782109E+03  0.81272491546E+02 0.  0.
          5    1    5    5  501    0 -0.10333255027E+02 -0.39621141209E+02  0.17595421540E+02  0.44814058612E+02  0.47000000000E+01 0. -1.
        -11    1    6    6    0    0  0.66924015913E+02  0.10131541381E+03  0.23824437816E+01  0.12144674973E+03  0.00000000000E+00 0.  1.
         12    1    6    6    0    0 -0.21983909818E+02  0.11898350429E+02  0.13005765998E+01  0.25031071357E+02  0.00000000000E+00 0. -1.
         -5    1    3    3    0  503 -0.50800738439E+02 -0.76695978745E+02 -0.93683362500E+02  0.13138360092E+03  0.47000000000E+01 0.  1.
         13    1    4    4    0    0  0.27850605141E+02 -0.11624136281E+02 -0.21997787124E+03  0.22203837639E+03  0.00000000000E+00 0. -1.
        -14    1    4    4    0    0 -0.11656717770E+02  0.14727491995E+02 -0.83408379302E+01  0.20551098924E+02  0.00000000000E+00 0.  1.
</event>
<event>
12    1  0.8500177E-002  0.1975234E+03  0.7818608E-02  0.1151851E+00
         21   -1    0    0  501  502  0.00000000000E+00  0.00000000000E+00  0.12507608213E+03  0.12507608213E+03  0.00000000000E+00 0.  1.
         21   -1    0    0  502  503 -0.00000000000E+00 -0.00000000000E+00 -0.64506441597E+03  0.64506441597E+03  0.00000000000E+00 0. -1.
         -6    2    1    2    0  503 -0.10103027274E+02  0.98275217910E+02 -0.53672649617E+03  0.57190913160E+03  0.17101062396E+03 0.  0.
        -24    2    3    3    0    0  0.33633283770E+02  0.97798855004E+02 -0.49337823819E+03  0.51014949029E+03  0.78323704636E+02 0.  0.
          6    2    1    2  501    0  0.10103027274E+02 -0.98275217910E+02  0.16738162321E+02  0.19823136650E+03  0.17104215554E+03 0.  0.
         24    2    5    5    0    0 -0.57808750678E+02 -0.72418063849E+02  0.22857684456E+02  0.12515510119E+03  0.80963559632E+02 0.  0.
          5    1    5    5  501    0  0.67911777952E+02 -0.25857154061E+02 -0.61195221352E+01  0.73076265312E+02  0.47000000000E+01 0. -1.
        -11    1    6    6    0    0  0.22165109959E+01 -0.85490602516E+01  0.35515560347E+02  0.36597190861E+02  0.00000000000E+00 0.  1.
         12    1    6    6    0    0 -0.60025261674E+02 -0.63869003597E+02 -0.12657875891E+02  0.88557910327E+02  0.00000000000E+00 0. -1.
         -5    1    3    3    0  503 -0.43736311044E+02  0.47636290546E+00 -0.43348257978E+02  0.61759641313E+02  0.47000000000E+01 0.  1.
         13    1    4    4    0    0 -0.12868107330E+02  0.44741168909E+02 -0.31336889903E+03  0.31680818686E+03  0.00000000000E+00 0. -1.
        -14    1    4    4    0    0  0.46501391101E+02  0.53057686095E+02 -0.18000933916E+03  0.19334130343E+03  0.00000000000E+00 0.  1.
</event>
<event>
12    1  0.8500177E-002  0.4363019E+03  0.7818608E-02  0.1031891E+00
         21   -1    0    0  501  502  0.00000000000E+00  0.00000000000E+00  0.66334830101E+03  0.66334830101E+03  0.00000000000E+00 0. -1.
         21   -1    0    0  502  503 -0.00000000000E+00 -0.00000000000E+00 -0.51149889733E+03  0.51149889733E+03  0.00000000000E+00 0.  1.
         -6    2    1    2    0  503 -0.30863293167E+03 -0.25588325779E+03 -0.31329160123E+03  0.53713219549E+03  0.17213029919E+03 0.  0.
        -24    2    3    3    0    0 -0.11954096025E+03 -0.96254925256E+02 -0.58195490245E+02  0.18169852510E+03  0.77926806212E+02 0.  0.
          6    2    1    2  501    0  0.30863293167E+03  0.25588325779E+03  0.46514100491E+03  0.63771500285E+03  0.17202831826E+03 0.  0.
         24    2    5    5    0    0  0.25421720329E+03  0.20220529809E+03  0.27598958977E+03  0.43364946754E+03  0.79801240663E+02 0.  0.
          5    1    5    5  501    0  0.54415728387E+02  0.53677959696E+02  0.18915141514E+03  0.20406553532E+03  0.47000000000E+01 0. -1.
        -13    1    6    6    0    0  0.18430718139E+03  0.10486458712E+03  0.14984536372E+03  0.25965236716E+03  0.00000000000E+00 0.  1.
         14    1    6    6    0    0  0.69910021900E+02  0.97340710969E+02  0.12614422606E+03  0.17399710038E+03  0.00000000000E+00 0. -1.
         -5    1    3    3    0  503 -0.18909197143E+03 -0.15962833253E+03 -0.25509611099E+03  0.35543367039E+03  0.47000000000E+01 0.  1.
         11    1    4    4    0    0 -0.21905376076E+02 -0.39358001878E+01 -0.40439767857E+02  0.46159623574E+02  0.00000000000E+00 0. -1.
        -12    1    4    4    0    0 -0.97635584171E+02 -0.92319125069E+02 -0.17755722388E+02  0.13553890153E+03  0.00000000000E+00 0.  1.
</event>
<event>
12    1  0.8500177E-002  0.2177856E+03  0.7818608E-02  0.1135567E+00
         21   -1    0    0  501  502  0.00000000000E+00  0.00000000000E+00  0.10551645754E+03  0.10551645754E+03  0.00000000000E+00 0.  1.
         21   -1    0    0  502  503 -0.00000000000E+00 -0.00000000000E+00 -0.52545024796E+03  0.52545024796E+03  0.00000000000E+00 0.  1.
         -6    2    1    2    0  503  0.13358240978E+03 -0.26155044323E+01 -0.33014252723E+03  0.39550558331E+03  0.17198685147E+03 0.  0.
        -24    2    3    3    0    0  0.33100243507E+02 -0.23887744740E+01 -0.25700308972E+03  0.27113442723E+03  0.79761877730E+02 0.  0.
          6    2    1    2  501    0 -0.13358240978E+03  0.26155044323E+01 -0.89791263198E+02  0.23546112219E+03  0.17183820312E+03 0.  0.
         24    2    5    5    0    0 -0.40812309564E+02 -0.57837611460E+02 -0.38264065789E+02  0.11323995877E+03  0.79676317812E+02 0.  0.
          5    1    5    5  501    0 -0.92770100215E+02  0.60453115893E+02 -0.51527197409E+02  0.12222116342E+03  0.47000000000E+01 0. -1.
        -13    1    6    6    0    0 -0.51025002267E+02 -0.38901692144E+02  0.55765062118E+01  0.64404890571E+02  0.00000000000E+00 0.  1.
         14    1    6    6    0    0  0.10212692703E+02 -0.18935919316E+02 -0.43840572001E+02  0.48835068198E+02  0.00000000000E+00 0. -1.
         -5    1    3    3    0  503  0.10048216627E+03 -0.22672995835E+00 -0.73139437503E+02  0.12437115607E+03  0.47000000000E+01 0.  1.
         11    1    4    4    0    0  0.13625137445E+02 -0.29898371559E+01 -0.56873580006E+00  0.13960908174E+02  0.00000000000E+00 0. -1.
        -12    1    4    4    0    0  0.19475106061E+02  0.60106268189E+00 -0.25643435392E+03  0.25717351906E+03  0.00000000000E+00 0.  1.
</event>
<event>
12    1  0.8500177E-002  0.2216018E+03  0.7818608E-02  0.1133408E+00
         21   -1    0    0  503  502  0.00000000000E+00  0.00000000000E+00  0.13101448899E+04  0.13101448899E+04  0.00000000000E+00 0. -1.
         21   -1    0    0  501  503 -0.00000000000E+00 -0.00000000000E+00 -0.95854848034E+02  0.95854848034E+02  0.00000000000E+00 0. -1.
          6    2    1    2  501    0  0.33379655096E+02  0.13019897630E+03  0.57568826493E+02  0.22895749214E+03  0.17618566519E+03 0.  0.
         24    2    3    3    0    0 -0.67650797257E+01  0.86386321399E+02  0.10189171199E+03  0.15467588847E+03  0.77681057370E+02 0.  0.
         -6    2    1    2    0  502 -0.33379655096E+02 -0.13019897630E+03  0.11567212154E+04  0.11770422458E+04  0.17134323299E+03 0.  0.
        -24    2    5    5    0    0 -0.36749745450E+02 -0.15029184659E+03  0.11283201212E+04  0.11417747948E+04  0.81272402200E+02 0.  0.
          5    1    3    3  501    0  0.40144734822E+02  0.43812654906E+02 -0.44322885499E+02  0.74281603663E+02  0.47000000000E+01 0. -1.
        -11    1    4    4    0    0  0.16273546827E+01  0.99900786899E+02  0.92748960665E+02  0.13632749250E+03  0.00000000000E+00 0.  1.
         12    1    4    4    0    0 -0.83924344084E+01 -0.13514465501E+02  0.91427513271E+01  0.18348395976E+02  0.00000000000E+00 0. -1.
         -5    1    5    5    0  502  0.33700903537E+01  0.20092870285E+02  0.28401094234E+02  0.35267450985E+02  0.47000000000E+01 0.  1.
         13    1    6    6    0    0 -0.88918302596E+00 -0.77506879454E+02  0.31413775447E+03  0.32355932345E+03  0.00000000000E+00 0. -1.
        -14    1    6    6    0    0 -0.35860562424E+02 -0.72784967136E+02  0.81418236670E+03  0.81821547139E+03  0.00000000000E+00 0.  1.
</event>
<event>
12    1  0.8500177E-002  0.1897165E+03  0.7818608E-02  0.1158971E+00
         21   -1    0    0  501  502  0.00000000000E+00  0.00000000000E+00  0.99032371268E+02  0.99032371268E+02  0.00000000000E+00 0.  1.
         21   -1    0    0  502  503 -0.00000000000E+00 -0.00000000000E+00 -0.47213923759E+03  0.47213923759E+03  0.00000000000E+00 0.  1.
         -6    2    1    2    0  503 -0.69062816341E+02 -0.42589605624E+02 -0.32534704560E+03  0.37662054713E+03  0.17148991028E+03 0.  0.
        -24    2    3    3    0    0  0.25546456184E+02  0.10694285214E+01 -0.12187719594E+03  0.14797432382E+03  0.79928621401E+02 0.  0.
          6    2    1    2  501    0  0.69062816341E+02  0.42589605624E+02 -0.47759820724E+02  0.19455106174E+03  0.17025148469E+03 0.  0.
         24    2    5    5    0    0 -0.31090804980E+02  0.24880892799E+02 -0.16030705273E+02  0.87905981489E+02  0.76712326841E+02 0.  0.
          5    1    5    5  501    0  0.10015362132E+03  0.17708712825E+02 -0.31729115451E+02  0.10664508025E+03  0.47000000000E+01 0. -1.
        -13    1    6    6    0    0  0.23467532121E+02 -0.43634617698E+01 -0.93846951963E+01  0.25648340422E+02  0.00000000000E+00 0.  1.
         14    1    6    6    0    0 -0.54558337101E+02  0.29244354569E+02 -0.66460100764E+01  0.62257641068E+02  0.00000000000E+00 0. -1.
         -5    1    3    3    0  503 -0.94609272525E+02 -0.43659034146E+02 -0.20346984966E+03  0.22864622330E+03  0.47000000000E+01 0.  1.
         13    1    4    4    0    0 -0.12519956962E+02 -0.25053818816E+01  0.62845715324E+01  0.14231025966E+02  0.00000000000E+00 0. -1.
        -14    1    4    4    0    0  0.38066413146E+02  0.35748104030E+01 -0.12816176747E+03  0.13374329785E+03  0.00000000000E+00 0.  1.
</event>
<event>
12    1  0.8500177E-002  0.1923198E+03  0.7818608E-02  0.1157841E+00
         21   -1    0    0  501  502  0.00000000000E+00  0.00000000000E+00  0.48942845904E+02  0.48942845904E+02  0.00000000000E+00 0. -1.
         21   -1    0    0  502  503 -0.00000000000E+00 -0.00000000000E+00 -0.90022268248E+03  0.90022268248E+03  0.00000000000E+00 0.  1.
         -6    2    1    2    0  503  0.34786637866E+02 -0.65371944214E+02 -0.62572616072E+03  0.65275137677E+03  0.17049202445E+03 0.  0.
        -24    2    3    3    0    0 -0.39162941247E+02 -0.48726608609E+02 -0.27973614637E+03  0.29852434861E+03  0.83405376172E+02 0.  0.
          6    2    1    2  501    0 -0.34786637866E+02  0.65371944214E+02 -0.22555367585E+03  0.29641415161E+03  0.17749165422E+03 0.  0.
         24    2    5    5    0    0 -0.71380813741E+02  0.86842810742E+02 -0.12000106216E+03  0.18255645062E+03  0.79307681815E+02 0.  0.
          5    1    5    5  501    0  0.36594175875E+02 -0.21470866528E+02 -0.10555261370E+03  0.11385770099E+03  0.47000000000E+01 0. -1.
        -13    1    6    6    0    0 -0.27135634591E+02 -0.10549486891E+02 -0.37451428366E+02  0.47436734974E+02  0.00000000000E+00 0.  1.
         14    1    6    6    0    0 -0.44245179150E+02  0.97392297633E+02 -0.82549633792E+02  0.13511971564E+03  0.00000000000E+00 0. -1.
         -5    1    3    3    0  503  0.73949579113E+02 -0.16645335605E+02 -0.34599001435E+03  0.35422702816E+03  0.47000000000E+01 0.  1.
         13    1    4    4    0    0  0.91498710214E+01 -0.34854164411E+02 -0.41136977107E+02  0.54688059044E+02  0.00000000000E+00 0. -1.
        -14    1    4    4    0    0 -0.48312812268E+02 -0.13872444198E+02 -0.23859916926E+03  0.24383628957E+03  0.00000000000E+00 0.  1.
</event>
<event>
12    1  0.8500177E-002  0.1864704E+03  0.7818608E-02  0.1163733E+00
         21   -1    0    0  503  502  0.00000000000E+00  0.00000000000E+00  0.55836910053E+02  0.55836910053E+02  0.00000000000E+00 0. -1.
         21   -1    0    0  501  503 -0.00000000000E+00 -0.00000000000E+00 -0.91690899995E+03  0.91690899995E+03  0.00000000000E+00 0. -1.
          6    2    1    2  501    0 -0.50945914301E+02  0.14720608147E+02 -0.72565228690E+03  0.74922789878E+03  0.17877085985E+03 0.  0.
         24    2    3    3    0    0 -0.80903660888E+02 -0.39161879817E+02 -0.55473923426E+03  0.56747490526E+03  0.78823187536E+02 0.  0.
         -6    2    1    2    0  502  0.50945914301E+02 -0.14720608147E+02 -0.13541980300E+03  0.22351801123E+03  0.16973389706E+03 0.  0.
        -24    2    5    5    0    0  0.61507624408E+02  0.12506937931E+02 -0.17581324997E+02  0.10202362501E+03  0.78486340941E+02 0.  0.
          5    1    3    3  501    0  0.29957746588E+02  0.53882487963E+02 -0.17091305264E+03  0.18175299352E+03  0.47000000000E+01 0. -1.
        -13    1    4    4    0    0 -0.13801793098E+02 -0.49017206094E+02 -0.20588922160E+03  0.21209325203E+03  0.00000000000E+00 0.  1.
         14    1    4    4    0    0 -0.67101867790E+02  0.98553262775E+01 -0.34885001265E+03  0.35538165322E+03  0.00000000000E+00 0. -1.
         -5    1    5    5    0  502 -0.10561710107E+02 -0.27227546077E+02 -0.11783847800E+03  0.12149438622E+03  0.47000000000E+01 0.  1.
         13    1    6    6    0    0  0.66615035338E+02 -0.18443672216E+02 -0.12651484098E+02  0.70269424559E+02  0.00000000000E+00 0. -1.
        -14    1    6    6    0    0 -0.51074109302E+01  0.30950610147E+02 -0.49298408995E+01  0.31754200449E+02  0.00000000000E+00 0.  1.
</event>
<event>
12    1  0.8500177E-002  0.2772251E+03  0.7818608E-02  0.1097386E+00
         21   -1    0    0  501  502  0.00000000000E+00  0.00000000000E+00  0.62998464640E+02  0.62998464640E+02  0.00000000000E+00 0.  1.
         21   -1    0    0  502  503 -0.00000000000E+00 -0.00000000000E+00 -0.19790657185E+04  0.19790657185E+04  0.00000000000E+00 0.  1.
         -6    2    1    2    0  503 -0.18841788761E+03  0.10457727975E+03 -0.15913445141E+04  0.16150997353E+04  0.17242994067E+03 0.  0.
        -24    2    3    3    0    0 -0.17839841752E+03  0.13850381693E+03 -0.14249157896E+04  0.14448880728E+04  0.79418088004E+02 0.  0.
          6    2    1    2  501    0  0.18841788761E+03 -0.10457727975E+03 -0.32472273976E+03  0.42696444789E+03  0.17440204768E+03 0.  0.
         24    2    5    5    0    0  0.12552454852E+03 -0.13141310966E+03 -0.18593082306E+03  0.27217097254E+03  0.80504345598E+02 0.  0.
          5    1    5    5  501    0  0.62893339085E+02  0.26835829910E+02 -0.13879191670E+03  0.15479347535E+03  0.47000000000E+01 0. -1.
        -13    1    6    6    0    0  0.12323747673E+03 -0.95447372254E+02 -0.11883336835E+03  0.19600777019E+03  0.00000000000E+00 0.  1.
         14    1    6    6    0    0  0.22870717923E+01 -0.35965737405E+02 -0.67097454710E+02  0.76163202356E+02  0.00000000000E+00 0. -1.
         -5    1    3    3    0  503 -0.10019470083E+02 -0.33926537178E+02 -0.16642872448E+03  0.17021166246E+03  0.47000000000E+01 0.  1.
         11    1    4    4    0    0 -0.72478666604E+02  0.10998783493E+02 -0.40222675507E+03  0.40885265420E+03  0.00000000000E+00 0. -1.
        -12    1    4    4    0    0 -0.10591975092E+03  0.12750503343E+03 -0.10226890346E+04  0.10360354186E+04  0.00000000000E+00 0.  1.
</event>
<event>
12    1  0.8500177E-002  0.1893939E+03  0.7818608E-02  0.1159277E+00
         21   -1    0    0  503  502  0.00000000000E+00  0.00000000000E+00  0.79587048155E+02  0.79587048155E+02  0.00000000000E+00 0. -1.
         21   -1    0    0  501  503 -0.00000000000E+00 -0.00000000000E+00 -0.68418385390E+03  0.68418385390E+03  0.00000000000E+00 0. -1.
          6    2    1    2  501    0  0.55613277200E+02  0.57672230762E+02 -0.52733913897E+03  0.56031831481E+03  0.17161329675E+03 0.  0.
         24    2    3    3    0    0  0.12235163168E+02  0.23071539968E+02 -0.95931361888E+02  0.12533138546E+03  0.76309467387E+02 0.  0.
         -6    2    1    2    0  502 -0.55613277200E+02 -0.57672230762E+02 -0.77257666776E+02  0.20345258724E+03  0.17030938136E+03 0.  0.
        -24    2    5    5    0    0 -0.47884702286E+02 -0.23312621831E+02 -0.11556432187E+03  0.15120506653E+03  0.81678862668E+02 0.  0.
          5    1    3    3  501    0  0.43378114032E+02  0.34600690794E+02 -0.43140777708E+03  0.43498692935E+03  0.47000000000E+01 0. -1.
        -11    1    4    4    0    0 -0.10055731242E+02  0.38866949889E+02 -0.88249153708E+02  0.96951898664E+02  0.00000000000E+00 0.  1.
         12    1    4    4    0    0  0.22290894410E+02 -0.15795409921E+02 -0.76822081808E+01  0.28379486794E+02  0.00000000000E+00 0. -1.
         -5    1    5    5    0  502 -0.77285749140E+01 -0.34359608930E+02  0.38306655093E+02  0.52247520711E+02  0.47000000000E+01 0.  1.
         11    1    6    6    0    0 -0.40309460216E+01 -0.42574300088E+02 -0.27164004162E+02  0.50662635896E+02  0.00000000000E+00 0. -1.
        -12    1    6    6    0    0 -0.43853756264E+02  0.19261678257E+02 -0.88400317708E+02  0.10054243064E+03  0.00000000000E+00 0.  1.
</event>
<event>
12    1  0.8500177E-002  0.2226516E+03  0.7818608E-02  0.1132242E+00
         21   -1    0    0  503  502  0.00000000000E+00  0.00000000000E+00  0.65800879389E+02  0.65800879389E+02  0.00000000000E+00 0.  1.
         21   -1    0    0  501  503 -0.00000000000E+00 -0.00000000000E+00 -0.74778008503E+03  0.74778008503E+03  0.00000000000E+00 0. -1.
          6    2    1    2  501    0 -0.67134341978E+02  0.12279839299E+03 -0.35009249836E+03  0.41489575209E+03  0.17316830685E+03 0.  0.
         24    2    3    3    0    0 -0.83466427288E+02  0.13408659787E+02 -0.19398293490E+03  0.22351880325E+03  0.72005831248E+02 0.  0.
         -6    2    1    2    0  502  0.67134341978E+02 -0.12279839299E+03 -0.33188670727E+03  0.39868521233E+03  0.17092292669E+03 0.  0.
        -24    2    5    5    0    0 -0.17384336376E+01 -0.11212024214E+02 -0.18244942507E+03  0.19981699408E+03  0.80686472070E+02 0.  0.
          5    1    3    3  501    0  0.16332085309E+02  0.10938973320E+03 -0.15610956346E+03  0.19137694883E+03  0.47000000000E+01 0. -1.
        -11    1    4    4    0    0 -0.81864702155E+02  0.26386764423E+02 -0.11579458977E+03  0.14424450705E+03  0.00000000000E+00 0.  1.
         12    1    4    4    0    0 -0.16017251328E+01 -0.12978104636E+02 -0.78188345133E+02  0.79274296200E+02  0.00000000000E+00 0. -1.
         -5    1    5    5    0  502  0.68872775616E+02 -0.11158636878E+03 -0.14943728220E+03  0.19886821825E+03  0.47000000000E+01 0.  1.
         13    1    6    6    0    0 -0.67995763560E+01 -0.45393774872E+02 -0.11941601603E+03  0.12793363092E+03  0.00000000000E+00 0. -1.
        -14    1    6    6    0    0  0.50611427185E+01  0.34181750658E+02 -0.63033409045E+02  0.71883363162E+02  0.00000000000E+00 0.  1.
</event>
<event>
12    1  0.8500177E-002  0.1923308E+03  0.7818608E-02  0.1156700E+00
         21   -1    0    0  503  502  0.00000000000E+00  0.00000000000E+00  0.54299434247E+03  0.54299434247E+03  0.00000000000E+00 0.  1.
         21   -1    0    0  501  503 -0.00000000000E+00 -0.00000000000E+00 -0.99956712752E+02  0.99956712752E+02  0.00000000000E+00 0. -1.
          6    2    1    2  501    0 -0.51828559743E+02 -0.69872836662E+02  0.39213239501E+02  0.19628754052E+03  0.17153048564E+03 0.  0.
         24    2    3    3    0    0 -0.72951886238E+01 -0.66681065223E+02  0.83353249902E+02  0.13332851363E+03  0.79555917706E+02 0.  0.
         -6    2    1    2    0  502  0.51828559743E+02  0.69872836662E+02  0.40382439022E+03  0.44666351471E+03  0.16989921814E+03 0.  0.
        -24    2    5    5    0    0  0.73316791864E+02 -0.77505629911E+01  0.25027214958E+03  0.27320597841E+03  0.81055133004E+02 0.  0.
          5    1    3    3  501    0 -0.44533371119E+02 -0.31917714397E+01 -0.44140010401E+02  0.62959026886E+02  0.47000000000E+01 0. -1.
        -11    1    4    4    0    0 -0.10059402497E+02  0.93122107102E+00  0.61344242991E+02  0.62170530796E+02  0.00000000000E+00 0.  1.
         12    1    4    4    0    0  0.27642138733E+01 -0.67612286294E+02  0.22009006911E+02  0.71157982837E+02  0.00000000000E+00 0. -1.
         -5    1    5    5    0  502 -0.21488232121E+02  0.77623399653E+02  0.15355224064E+03  0.17345753630E+03  0.47000000000E+01 0.  1.
         11    1    6    6    0    0 -0.67019028680E+01  0.14376604886E+02  0.94239327742E+01  0.18450278563E+02  0.00000000000E+00 0. -1.
        -12    1    6    6    0    0  0.80018694732E+02 -0.22127167878E+02  0.24084821680E+03  0.25475569984E+03  0.00000000000E+00 0.  1.
</event>
<event>
12    1  0.8500177E-002  0.2329945E+03  0.7818608E-02  0.1124616E+00
         21   -1    0    0  503  502  0.00000000000E+00  0.00000000000E+00  0.91976267852E+03  0.91976267852E+03  0.00000000000E+00 0. -1.
         21   -1    0    0  501  503 -0.00000000000E+00 -0.00000000000E+00 -0.97474054975E+02  0.97474054975E+02  0.00000000000E+00 0.  1.
          6    2    1    2  501    0  0.21365215836E+02  0.15550372788E+03  0.91085620294E+02  0.24980968450E+03  0.17166946850E+03 0.  0.
         24    2    3    3    0    0  0.29574444679E+02  0.11688682540E+02  0.22510712438E+02  0.90201518385E+02  0.81352988063E+02 0.  0.
         -6    2    1    2    0  502 -0.21365215836E+02 -0.15550372788E+03  0.73120300325E+03  0.76742704899E+03  0.17218757718E+03 0.  0.
        -24    2    5    5    0    0  0.53834322870E+02 -0.75086941493E+02  0.38837839336E+03  0.40732618354E+03  0.80874348637E+02 0.  0.
          5    1    3    3  501    0 -0.82092288438E+01  0.14381504534E+03  0.68574907856E+02  0.15960816612E+03  0.47000000000E+01 0. -1.
        -11    1    4    4    0    0 -0.79757786883E+01  0.37994770641E+02 -0.66576087903E+00  0.38828583277E+02  0.00000000000E+00 0.  1.
         12    1    4    4    0    0  0.37550223368E+02 -0.26306088101E+02  0.23176473317E+02  0.51372935107E+02  0.00000000000E+00 0. -1.
         -5    1    5    5    0  502 -0.75199538706E+02 -0.80416786383E+02  0.34282460989E+03  0.36010086545E+03  0.47000000000E+01 0.  1.
         13    1    6    6    0    0  0.11724122867E+02 -0.19280226006E+02  0.26141441158E+03  0.26238650262E+03  0.00000000000E+00 0. -1.
        -14    1    6    6    0    0  0.42110200004E+02 -0.55806715487E+02  0.12696398177E+03  0.14493968092E+03  0.00000000000E+00 0.  1.
</event>
<event>
12    1  0.8500177E-002  0.1791902E+03  0.7818608E-02  0.1169810E+00
         21   -1    0    0  503  502  0.00000000000E+00  0.00000000000E+00  0.77794669561E+03  0.77794669561E+03  0.00000000000E+00 0.  1.
         21   -1    0    0  501  503 -0.00000000000E+00 -0.00000000000E+00 -0.62719628175E+02  0.62719628175E+02  0.00000000000E+00 0.  1.
          6    2    1    2  501    0  0.23854593411E+02 -0.30052277100E+01  0.10224954900E+03  0.20203454523E+03  0.17258306457E+03 0.  0.
         24    2    3    3    0    0 -0.20836426060E+02 -0.22152304183E+02 -0.29650386783E+01  0.86034126187E+02  0.80425109156E+02 0.  0.
         -6    2    1    2    0  502 -0.23854593411E+02  0.30052277100E+01  0.61297751844E+03  0.63863177855E+03  0.17756981007E+03 0.  0.
        -24    2    5    5    0    0 -0.78815923206E+02 -0.91175363538E+01  0.27306976638E+03  0.29406381850E+03  0.74908963575E+02 0.  0.
          5    1    3    3  501    0  0.44691019471E+02  0.19147076473E+02  0.10521458767E+03  0.11600041904E+03  0.47000000000E+01 0. -1.
        -13    1    4    4    0    0 -0.28605383022E+02  0.21168500534E+02 -0.17536927924E+02  0.39672625243E+02  0.00000000000E+00 0.  1.
         14    1    4    4    0    0  0.77689569614E+01 -0.43320804717E+02  0.14571889245E+02  0.46361500944E+02  0.00000000000E+00 0. -1.
         -5    1    5    5    0  502  0.54961329795E+02  0.12122764064E+02  0.33990775206E+03  0.34456796005E+03  0.47000000000E+01 0.  1.
         11    1    6    6    0    0 -0.63569325631E+02  0.26343308853E+02  0.19862893108E+03  0.21021056430E+03  0.00000000000E+00 0. -1.
        -12    1    6    6    0    0 -0.15246597575E+02 -0.35460845207E+02  0.74440835299E+02  0.83853254203E+02  0.00000000000E+00 0.  1.
</event>
<event>
12    1  0.8500177E-002  0.2046010E+03  0.7818608E-02  0.1146178E+00
         21   -1    0    0  503  502  0.00000000000E+00  0.00000000000E+00  0.40906230437E+03  0.40906230437E+03  0.00000000000E+00 0.  1.
         21   -1    0    0  501  503 -0.00000000000E+00 -0.00000000000E+00 -0.12174381164E+03  0.12174381164E+03  0.00000000000E+00 0.  1.
          6    2    1    2  501    0  0.85029207898E+02 -0.68889639092E+02  0.35576145246E+02  0.20640548083E+03  0.17135288686E+03 0.  0.
         24    2    3    3    0    0  0.87963195213E+02 -0.15786522860E+02 -0.28404459114E+02  0.12307387237E+03  0.79709640232E+02 0.  0.
         -6    2    1    2    0  502 -0.85029207898E+02  0.68889639092E+02  0.25174234748E+03  0.32440063518E+03  0.17287513997E+03 0.  0.
        -24    2    5    5    0    0 -0.92838110664E+02  0.30719484459E+02  0.83249666346E+02  0.15139828473E+03  0.80176880421E+02 0.  0.
          5    1    3    3  501    0 -0.29339873145E+01 -0.53103116232E+02  0.63980604360E+02  0.83331608465E+02  0.47000000000E+01 0. -1.
        -13    1    4    4    0    0  0.40005843323E+02  0.75716290326E+01  0.24847976858E+02  0.47699255970E+02  0.00000000000E+00 0.  1.
         14    1    4    4    0    0  0.47957351890E+02 -0.23358151893E+02 -0.53252435971E+02  0.75374616397E+02  0.00000000000E+00 0. -1.
         -5    1    5    5    0  502  0.78089027656E+01  0.38170154633E+02  0.16849268114E+03  0.17300235046E+03  0.47000000000E+01 0.  1.
         13    1    6    6    0    0 -0.17450767699E+02  0.15251269016E+02 -0.14234309930E+02  0.27198273458E+02  0.00000000000E+00 0. -1.
        -14    1    6    6    0    0 -0.75387342965E+02  0.15468215443E+02  0.97483976276E+02  0.12420001127E+03  0.00000000000E+00 0.  1.
</event>
<event>
12    1  0.8500177E-002  0.1905814E+03  0.7818608E-02  0.1158071E+00
         21   -1    0    0  503  502  0.00000000000E+00  0.00000000000E+00  0.35965076699E+02  0.35965076699E+02  0.00000000000E+00 0.  1.
         21   -1    0    0  501  503 -0.00000000000E+00 -0.00000000000E+00 -0.15350934637E+04  0.15350934637E+04  0.00000000000E+00 0.  1.
          6    2    1    2  501    0  0.96426021471E+01 -0.82107212721E+02 -0.12111636436E+04  0.12260663218E+04  0.17171685901E+03 0.  0.
         24    2    3    3    0    0 -0.53193927302E+02 -0.80876119715E+02 -0.90611656780E+03  0.91457674976E+03  0.77671462712E+02 0.  0.
         -6    2    1    2    0  502 -0.96426021471E+01  0.82107212721E+02 -0.28796474340E+03  0.34499221862E+03  0.17105953147E+03 0.  0.
        -24    2    5    5    0    0 -0.11555488823E+02  0.95109444309E+02 -0.30111453803E+03  0.32581608083E+03  0.79415475816E+02 0.  0.
          5    1    3    3  501    0  0.62836529449E+02 -0.12310930061E+01 -0.30504707583E+03  0.31148957205E+03  0.47000000000E+01 0. -1.
        -13    1    4    4    0    0 -0.28543393344E+02  0.74168298704E+01 -0.31724462774E+03  0.31861244248E+03  0.00000000000E+00 0.  1.
         14    1    4    4    0    0 -0.24650533957E+02 -0.88292949585E+02 -0.58887194006E+03  0.59596430728E+03  0.00000000000E+00 0. -1.
         -5    1    5    5    0  502  0.19128866761E+01 -0.13002231588E+02  0.13149794626E+02  0.19176137786E+02  0.47000000000E+01 0.  1.
         11    1    6    6    0    0  0.10412699684E+02  0.50885966093E+02 -0.24764567770E+03  0.25303396519E+03  0.00000000000E+00 0. -1.
        -12    1    6    6    0    0 -0.21968188507E+02  0.44223478216E+02 -0.53468860330E+02  0.72782115639E+02  0.00000000000E+00 0.  1.
</event>
<event>
12    1  0.8500177E-002  0.1951387E+03  0.7818608E-02  0.1154084E+00
         21   -1    0    0  503  502  0.00000000000E+00  0.00000000000E+00  0.11854975828E+04  0.11854975828E+04  0.00000000000E+00 0.  1.
         21   -1    0    0  501  503 -0.00000000000E+00 -0.00000000000E+00 -0.10367177581E+03  0.10367177581E+03  0.00000000000E+00 0.  1.
          6    2    1    2  501    0  0.77790567201E+02  0.47264865753E+02  0.45679801517E+01  0.19438008801E+03  0.17168987243E+03 0.  0.
         24    2    3    3    0    0  0.75827976278E+02  0.95904729032E+02  0.83055631507E+01  0.14533166715E+03  0.78132656806E+02 0.  0.
         -6    2    1    2    0  502 -0.77790567201E+02 -0.47264865753E+02  0.10772578268E+04  0.10947892706E+04  0.17260875308E+03 0.  0.
        -24    2    5    5    0    0  0.67978098515E+01 -0.62552238874E+02  0.43904158941E+03  0.45079318906E+03  0.80610106479E+02 0.  0.
          5    1    3    3  501    0  0.19625909238E+01 -0.48639863278E+02 -0.37375829990E+01  0.49048420867E+02  0.47000000000E+01 0. -1.
        -11    1    4    4    0    0  0.83642535914E+02  0.89188811851E+02 -0.11696804898E+02  0.12283132018E+03  0.00000000000E+00 0.  1.
         12    1    4    4    0    0 -0.78145596364E+01  0.67159171813E+01  0.20002368049E+02  0.22500346963E+02  0.00000000000E+00 0. -1.
         -5    1    5    5    0  502 -0.84588377053E+02  0.15287373120E+02  0.63821623743E+03  0.64399608153E+03  0.47000000000E+01 0.  1.
         13    1    6    6    0    0  0.34771396605E+02 -0.24737341433E+02  0.31938918787E+03  0.32222731016E+03  0.00000000000E+00 0. -1.
        -14    1    6    6    0    0 -0.27973586754E+02 -0.37814897441E+02  0.11965240154E+03  0.12856587891E+03  0.00000000000E+00 0.  1.
</event>
<event>
12    1  0.8500177E-002  0.2188356E+03  0.7818608E-02  0.1135940E+00
         21   -1    0    0  503  502  0.00000000000E+00  0.00000000000E+00  0.48965388099E+03  0.48965388099E+03  0.00000000000E+00 0.  1.
         21   -1    0    0  501  503 -0.00000000000E+00 -0.00000000000E+00 -0.20811714821E+03  0.20811714821E+03  0.00000000000E+00 0.  1.
          6    2    1    2  501    0 -0.28356416942E+02 -0.12064349175E+03 -0.11731193361E+03  0.24283226157E+03  0.17276133540E+03 0.  0.
         24    2    3    3    0    0  0.40086650421E+02 -0.89350923832E+02 -0.10957741303E+03  0.16703258423E+03  0.79386066885E+02 0.  0.
         -6    2    1    2    0  502  0.28356416942E+02  0.12064349175E+03  0.39884866638E+03  0.45493876763E+03  0.18036098562E+03 0.  0.
        -24    2    5    5    0    0 -0.72033026651E+00  0.12806954841E+03  0.18498088480E+03  0.23892459785E+03  0.80403405470E+02 0.  0.
          5    1    3    3  501    0 -0.68443067362E+02 -0.31292567915E+02 -0.77345205731E+01  0.75799677342E+02  0.47000000000E+01 0. -1.
        -13    1    4    4    0    0  0.17526377703E+02 -0.57308507716E+02 -0.11278055991E+03  0.12771410911E+03  0.00000000000E+00 0.  1.
         14    1    4    4    0    0  0.22560272717E+02 -0.32042416116E+02  0.32031468785E+01  0.39318475118E+02  0.00000000000E+00 0. -1.
         -5    1    5    5    0  502  0.29076747208E+02 -0.74260566613E+01  0.21386778158E+03  0.21601416978E+03  0.47000000000E+01 0.  1.
         13    1    6    6    0    0  0.50559469193E+01 -0.79668766589E+01  0.25327811634E+00  0.94391669522E+01  0.00000000000E+00 0. -1.
        -14    1    6    6    0    0 -0.57762771858E+01  0.13603642507E+03  0.18472760669E+03  0.22948543090E+03  0.00000000000E+00 0.  1.
</event>
<event>
12    1  0.8500177E-002  0.2614096E+03  0.7818608E-02  0.1106357E+00
         21   -1    0    0  503  502  0.00000000000E+00  0.00000000000E+00  0.18868576302E+04  0.18868576302E+04  0.00000000000E+00 0. -1.
         21   -1    0    0  501  503 -0.00000000000E+00 -0.00000000000E+00 -0.23992757981E+03  0.23992757981E+03  0.00000000000E+00 0. -1.
          6    2    1    2  501    0  0.11472728268E+03 -0.16006219643E+03 -0.15642527204E+03  0.30463723770E+03  0.17190905951E+03 0.  0.
         24    2    3    3    0    0  0.87675128440E+02 -0.18780948222E+03 -0.13982838087E+03  0.26221934390E+03  0.79042257445E+02 0.  0.
         -6    2    1    2    0  502 -0.11472728268E+03  0.16006219643E+03  0.18033553224E+04  0.18221479723E+04  0.17132004539E+03 0.  0.
        -24    2    5    5    0    0 -0.14290074784E+03  0.15306032191E+03  0.17094101110E+04  0.17237073143E+04  0.72359464811E+02 0.  0.
          5    1    3    3  501    0  0.27052154243E+02  0.27747285784E+02 -0.16596891171E+02  0.42417893796E+02  0.47000000000E+01 0. -1.
        -13    1    4    4    0    0  0.22982273265E+02 -0.79333024386E+02 -0.13699304690E+02  0.83723261950E+02  0.00000000000E+00 0.  1.
         14    1    4    4    0    0  0.64692855176E+02 -0.10847645783E+03 -0.12612907618E+03  0.17849608195E+03  0.00000000000E+00 0. -1.
         -5    1    5    5    0  502  0.28173465160E+02  0.70018745286E+01  0.93945211448E+02  0.98440657963E+02  0.47000000000E+01 0.  1.
         11    1    6    6    0    0 -0.20476684791E+02  0.51118385621E+02  0.65749394407E+03  0.65979593092E+03  0.00000000000E+00 0. -1.
        -12    1    6    6    0    0 -0.12242406305E+03  0.10194193629E+03  0.10519161669E+04  0.10639113834E+04  0.00000000000E+00 0.  1.
</event>
<event>
12    1  0.8500177E-002  0.2064189E+03  0.7818608E-02  0.1144518E+00
         21   -1    0    0  501  502  0.00000000000E+00  0.00000000000E+00  0.50901167622E+03  0.50901167622E+03  0.00000000000E+00 0. -1.
         21   -1    0    0  502  503 -0.00000000000E+00 -0.00000000000E+00 -0.85337382717E+02  0.85337382717E+02  0.00000000000E+00 0. -1.
         -6    2    1    2    0  503  0.59922451150E+02  0.97375382237E+02  0.16891274592E+03  0.26672137824E+03  0.17186073623E+03 0.  0.
        -24    2    3    3    0    0 -0.14059161563E+02  0.94657728342E+02  0.69091778079E+02  0.14235506334E+03  0.79583570544E+02 0.  0.
          6    2    1    2  501    0 -0.59922451150E+02 -0.97375382237E+02  0.25476154758E+03  0.32762768070E+03  0.17135864675E+03 0.  0.
         24    2    5    5    0    0 -0.40899140946E+02  0.14955968552E+02  0.10261015944E+03  0.13748995794E+03  0.80487408884E+02 0.  0.
          5    1    5    5  501    0 -0.19023310204E+02 -0.11233135079E+03  0.15215138814E+03  0.19013772275E+03  0.47000000000E+01 0. -1.
        -11    1    6    6    0    0 -0.51842257994E+02 -0.13462395172E+02  0.36828591214E+02  0.65001545585E+02  0.00000000000E+00 0.  1.
         12    1    6    6    0    0  0.10943117048E+02  0.28418363724E+02  0.65781568231E+02  0.72488412359E+02  0.00000000000E+00 0. -1.
         -5    1    3    3    0  503  0.73981612713E+02  0.27176538943E+01  0.99820967842E+02  0.12436631491E+03  0.47000000000E+01 0.  1.
         13    1    4    4    0    0  0.75531445509E+01  0.65356992916E+02  0.80718266366E+02  0.10413464861E+03  0.00000000000E+00 0. -1.
        -14    1    4    4    0    0 -0.21612306114E+02  0.29300735426E+02 -0.11626488287E+02  0.38220414728E+02  0.00000000000E+00 0.  1.
</event>
<event>
12    1  0.8500177E-002  0.1737263E+03  0.7818608E-02  0.1174182E+00
         21   -1    0    0  501  502  0.00000000000E+00  0.00000000000E+00  0.14253807459E+03  0.14253807459E+03  0.00000000000E+00 0.  1.
         21   -1    0    0  502  503 -0.00000000000E+00 -0.00000000000E+00 -0.22032078616E+03  0.22032078616E+03  0.00000000000E+00 0.  1.
         -6    2    1    2    0  503  0.67193871260E+01  0.25410971071E+02 -0.13962440438E+01  0.17308082239E+03  0.17106768826E+03 0.  0.
        -24    2    3    3    0    0 -0.35115943612E+02 -0.19408055809E+02  0.40915818088E+02  0.98439408482E+02  0.80040057761E+02 0.  0.
          6    2    1    2  501    0 -0.67193871260E+01 -0.25410971071E+02 -0.76386467518E+02  0.18977803836E+03  0.17172636317E+03 0.  0.
         24    2    5    5    0    0 -0.58974344720E+02  0.22925285537E+02 -0.32161315313E+02  0.10584396671E+03  0.78517851690E+02 0.  0.
          5    1    5    5  501    0  0.52254957594E+02 -0.48336256608E+02 -0.44225152205E+02  0.83934071649E+02  0.47000000000E+01 0. -1.
        -11    1    6    6    0    0 -0.65004439721E+02  0.12708330644E+02  0.53988564654E+01  0.66454695111E+02  0.00000000000E+00 0.  1.
         12    1    6    6    0    0  0.60300950013E+01  0.10216954894E+02 -0.37560171778E+02  0.39389271598E+02  0.00000000000E+00 0. -1.
         -5    1    3    3    0  503  0.41835330738E+02  0.44819026880E+02 -0.42312062132E+02  0.74641413908E+02  0.47000000000E+01 0.  1.
         11    1    4    4    0    0 -0.38569190866E+02  0.20255524347E+02  0.33374521542E+01  0.43692188519E+02  0.00000000000E+00 0. -1.
        -12    1    4    4    0    0  0.34532472545E+01 -0.39663580156E+02  0.37578365934E+02  0.54747219963E+02  0.00000000000E+00 0.  1.
</event>
<event>
12    1  0.8500177E-002  0.1916094E+03  0.7818608E-02  0.1157037E+00
         21   -1    0    0  503  502  0.00000000000E+00  0.00000000000E+00  0.58031092529E+02  0.58031092529E+02  0.00000000000E+00 0.  1.
         21   -1    0    0  501  503 -0.00000000000E+00 -0.00000000000E+00 -0.63808288881E+03  0.63808288881E+03  0.00000000000E+00 0.  1.
          6    2    1    2  501    0  0.10515429174E+02  0.86412682883E+02 -0.32288286163E+03  0.37541158357E+03  0.17059539481E+03 0.  0.
         24    2    3    3    0    0  0.31967249424E+02 -0.37443574928E+01 -0.22490886088E+03  0.24046912418E+03  0.78774861071E+02 0.  0.
         -6    2    1    2    0  502 -0.10515429174E+02 -0.86412682883E+02 -0.25716893466E+03  0.32070239777E+03  0.17069399805E+03 0.  0.
        -24    2    5    5    0    0 -0.45193576563E+02 -0.52387817932E+02 -0.69034816468E+02  0.12633984539E+03  0.80056279072E+02 0.  0.
          5    1    3    3  501    0 -0.21451820250E+02  0.90157040376E+02 -0.97974000752E+02  0.13494245938E+03  0.47000000000E+01 0. -1.
        -13    1    4    4    0    0 -0.16412918240E+02  0.62369349355E+01 -0.14815973572E+03  0.14919648297E+03  0.00000000000E+00 0.  1.
         14    1    4    4    0    0  0.48380167664E+02 -0.99812924283E+01 -0.76749125158E+02  0.91272641215E+02  0.00000000000E+00 0. -1.
         -5    1    5    5    0  502  0.34678147389E+02 -0.34024864951E+02 -0.18813411819E+03  0.19436255238E+03  0.47000000000E+01 0.  1.
         13    1    6    6    0    0  0.12357921079E+02 -0.29892334904E+02 -0.53674502733E+02  0.62667552553E+02  0.00000000000E+00 0. -1.
        -14    1    6    6    0    0 -0.57551497641E+02 -0.22495483028E+02 -0.15360313735E+02  0.63672292840E+02  0.00000000000E+00 0.  1.
</event>
<event>
12    1  0.8500177E-002  0.2319518E+03  0.7818608E-02  0.1125737E+00
         21   -1    0    0  503  502  0.00000000000E+00  0.00000000000E+00  0.19564332103E+04  0.19564332103E+04  0.00000000000E+00 0. -1.
         21   -1    0    0  501  503 -0.00000000000E+00 -0.00000000000E+00 -0.54249296450E+02  0.54249296450E+02  0.00000000000E+00 0. -1.
          6    2    1    2  501    0 -0.11556246165E+02  0.15091767508E+03  0.24376573743E+03  0.33648682742E+03  0.17576108445E+03 0.  0.
         24    2    3    3    0    0  0.11614691162E+02  0.19771470268E+02  0.40852126262E+02  0.93727187097E+02  0.81179291039E+02 0.  0.
         -6    2    1    2    0  502  0.11556246165E+02 -0.15091767508E+03  0.16584181764E+04  0.16741956793E+04  0.17225165697E+03 0.  0.
        -24    2    5    5    0    0  0.43038919467E+02 -0.65033008148E+02  0.12187271087E+04  0.12250657874E+04  0.96998852605E+02 0.  0.
          5    1    3    3  501    0 -0.23170937327E+02  0.13114620481E+03  0.20291361116E+03  0.24275964032E+03  0.47000000000E+01 0. -1.
        -11    1    4    4    0    0 -0.23542619077E+02 -0.10312325886E+01  0.46845828613E+02  0.52439012310E+02  0.00000000000E+00 0.  1.
         12    1    4    4    0    0  0.35157310239E+02  0.20802702856E+02 -0.59937023510E+01  0.41288174787E+02  0.00000000000E+00 0. -1.
         -5    1    5    5    0  502 -0.31482673302E+02 -0.85884666929E+02  0.43969106777E+03  0.44912989191E+03  0.47000000000E+01 0.  1.
         13    1    6    6    0    0  0.57826984625E+02 -0.79223261259E+02  0.11167842465E+04  0.11210831096E+04  0.00000000000E+00 0. -1.
        -14    1    6    6    0    0 -0.14788065159E+02  0.14190253110E+02  0.10194286215E+03  0.10398267788E+03  0.00000000000E+00 0.  1.
</event>
<event>
12    1  0.8500177E-002  0.2334199E+03  0.7818608E-02  0.1124979E+00
         21   -1    0    0  501  502  0.00000000000E+00  0.00000000000E+00  0.96889830634E+02  0.96889830634E+02  0.00000000000E+00 0.  1.
         21   -1    0    0  502  503 -0.00000000000E+00 -0.00000000000E+00 -0.58671394671E+03  0.58671394671E+03  0.00000000000E+00 0.  1.
         -6    2    1    2    0  503  0.10348971673E+03  0.11238413859E+03 -0.32966482522E+03  0.40393533210E+03  0.17647815575E+03 0.  0.
        -24    2    3    3    0    0  0.11492844602E+03  0.12266157647E+03 -0.33828637533E+03  0.38569002082E+03  0.77876250439E+02 0.  0.
          6    2    1    2  501    0 -0.10348971673E+03 -0.11238413859E+03 -0.16015929085E+03  0.27966844524E+03  0.17094772518E+03 0.  0.
         24    2    5    5    0    0  0.27895030017E+01 -0.29779463129E+02 -0.10386292082E+03  0.13368839101E+03  0.78679615012E+02 0.  0.
          5    1    5    5  501    0 -0.10627921973E+03 -0.82604675457E+02 -0.56296370028E+02  0.14598005423E+03  0.47000000000E+01 0. -1.
        -13    1    6    6    0    0  0.17254967926E+02  0.23305616756E+02 -0.32059735893E+02  0.43228605761E+02  0.00000000000E+00 0.  1.
         14    1    6    6    0    0 -0.14465464924E+02 -0.53085079884E+02 -0.71803184931E+02  0.90459785253E+02  0.00000000000E+00 0. -1.
         -5    1    3    3    0  503 -0.11438729291E+02 -0.10277437884E+02  0.86215501085E+01  0.18245311275E+02  0.47000000000E+01 0.  1.
         11    1    4    4    0    0  0.50424675925E+02  0.13592056729E+02 -0.57743483250E+02  0.77856931651E+02  0.00000000000E+00 0. -1.
        -12    1    4    4    0    0  0.64503770096E+02  0.10906951974E+03 -0.28054289208E+03  0.30783308917E+03  0.00000000000E+00 0.  1.
</event>
<event>
12    1  0.8500177E-002  0.2145029E+03  0.7818608E-02  0.1138310E+00
         21   -1    0    0  503  502  0.00000000000E+00  0.00000000000E+00  0.47349986297E+03  0.47349986297E+03  0.00000000000E+00 0. -1.
         21   -1    0    0  501  503 -0.00000000000E+00 -0.00000000000E+00 -0.25968374286E+03  0.25968374286E+03  0.00000000000E+00 0. -1.
          6    2    1    2  501    0 -0.59705503990E+02  0.11280694484E+03 -0.18376290095E+03  0.28143082732E+03  0.17071717193E+03 0.  0.
         24    2    3    3    0    0  0.20517139997E+02  0.61767803384E+02 -0.45239465016E+02  0.11334900537E+03  0.81025756738E+02 0.  0.
         -6    2    1    2    0  502  0.59705503990E+02 -0.11280694484E+03  0.39757902106E+03  0.45175277851E+03  0.17239878450E+03 0.  0.
        -24    2    5    5    0    0  0.23178969371E+02  0.72830235741E+01  0.11648892633E+03  0.14387371199E+03  0.80868213730E+02 0.  0.
          5    1    3    3  501    0 -0.80222643987E+02  0.51039141452E+02 -0.13852343593E+03  0.16808182195E+03  0.47000000000E+01 0. -1.
        -13    1    4    4    0    0  0.13260798211E+02  0.35578350743E+01  0.20860496345E+02  0.24973331123E+02  0.00000000000E+00 0.  1.
         14    1    4    4    0    0  0.72563417852E+01  0.58209968310E+02 -0.66099961361E+02  0.88375674248E+02  0.00000000000E+00 0. -1.
         -5    1    5    5    0  502  0.36526534619E+02 -0.12008996841E+03  0.28109009473E+03  0.30787906652E+03  0.47000000000E+01 0.  1.
         13    1    6    6    0    0 -0.10195614237E+01  0.22897381745E+01  0.11901063766E+03  0.11903702904E+03  0.00000000000E+00 0. -1.
        -14    1    6    6    0    0  0.24198530795E+02  0.49932853996E+01 -0.25217113382E+01  0.24836682947E+02  0.00000000000E+00 0.  1.
</event>
<event>
12    1  0.8500177E-002  0.2055588E+03  0.7818608E-02  0.1145558E+00
         21   -1    0    0  503  502  0.00000000000E+00  0.00000000000E+00  0.95724148562E+02  0.95724148562E+02  0.00000000000E+00 0. -1.
         21   -1    0    0  501  503 -0.00000000000E+00 -0.00000000000E+00 -0.63613987099E+03  0.63613987099E+03  0.00000000000E+00 0.  1.
          6    2    1    2  501    0  0.20008144399E+02  0.10965543033E+03 -0.47402113391E+03  0.51584857636E+03  0.17023242669E+03 0.  0.
         24    2    3    3    0    0 -0.27605435322E+02  0.31702154523E+02 -0.35051508908E+03  0.36216188438E+03  0.80828931469E+02 0.  0.
         -6    2    1    2    0  502 -0.20008144399E+02 -0.10965543033E+03 -0.66394588521E+02  0.21601544320E+03  0.17271303098E+03 0.  0.
        -24    2    5    5    0    0 -0.75483563682E+02 -0.51115890340E+02 -0.24087215572E+02  0.12482112488E+03  0.81789465286E+02 0.  0.
          5    1    3    3  501    0  0.47613579721E+02  0.77953275805E+02 -0.12350604483E+03  0.15368669198E+03  0.47000000000E+01 0. -1.
        -13    1    4    4    0    0 -0.21423533777E+02 -0.24368667886E+02 -0.91718588646E+02  0.97288741780E+02  0.00000000000E+00 0.  1.
         14    1    4    4    0    0 -0.61819015449E+01  0.56070822409E+02 -0.25879650044E+03  0.26487314260E+03  0.00000000000E+00 0. -1.
         -5    1    5    5    0  502  0.55475419283E+02 -0.58539539988E+02 -0.42307372949E+02  0.91194318313E+02  0.47000000000E+01 0.  1.
         13    1    6    6    0    0 -0.32117327743E+02 -0.24776594522E+02  0.30157230339E+02  0.50545632048E+02  0.00000000000E+00 0. -1.
        -14    1    6    6    0    0 -0.43366235940E+02 -0.26339295819E+02 -0.54244445911E+02  0.74275492835E+02  0.00000000000E+00 0.  1.
</event>
<event>
12    1  0.8500177E-002  0.1833067E+03  0.7818608E-02  0.1165072E+00
         21   -1    0    0  503  502  0.00000000000E+00  0.00000000000E+00  0.42741229096E+03  0.42741229096E+03  0.00000000000E+00 0. -1.
         21   -1    0    0  501  503 -0.00000000000E+00 -0.00000000000E+00 -0.10756181854E+03  0.10756181854E+03  0.00000000000E+00 0. -1.
          6    2    1    2  501    0  0.15465092444E+02 -0.53392973044E+02  0.18737092054E+02  0.18245372079E+03  0.17276661413E+03 0.  0.
         24    2    3    3    0    0  0.90528107884E+01  0.37241053120E+02  0.30288477764E+02  0.90741297605E+02  0.76470528867E+02 0.  0.
         -6    2    1    2    0  502 -0.15465092444E+02  0.53392973044E+02  0.30111338036E+03  0.35252038871E+03  0.17467506397E+03 0.  0.
        -24    2    5    5    0    0 -0.12244328338E+02  0.10158804923E+03  0.17957062999E+03  0.22164690455E+03  0.80072990562E+02 0.  0.
          5    1    3    3  501    0  0.64122816556E+01 -0.90634026164E+02 -0.11551385710E+02  0.91712423186E+02  0.47000000000E+01 0. -1.
        -13    1    4    4    0    0  0.39066693773E+02  0.30384163700E+02  0.33535721679E+02  0.59783347134E+02  0.00000000000E+00 0.  1.
         14    1    4    4    0    0 -0.30013882984E+02  0.68568894201E+01 -0.32472439153E+01  0.30957950471E+02  0.00000000000E+00 0. -1.
         -5    1    5    5    0  502 -0.32207641062E+01 -0.48195076186E+02  0.12154275037E+03  0.13087348416E+03  0.47000000000E+01 0.  1.
         11    1    6    6    0    0 -0.45361674380E+01  0.13230280347E+01  0.79970815691E+02  0.80110290104E+02  0.00000000000E+00 0. -1.
        -12    1    6    6    0    0 -0.77081608997E+01  0.10026502120E+03  0.99599814302E+02  0.14153661445E+03  0.00000000000E+00 0.  1.
</event>
<event>
12    1  0.8500177E-002  0.2058853E+03  0.7818608E-02  0.1144907E+00
         21   -1    0    0  503  502  0.00000000000E+00  0.00000000000E+00  0.88363023205E+03  0.88363023205E+03  0.00000000000E+00 0.  1.
         21   -1    0    0  501  503 -0.00000000000E+00 -0.00000000000E+00 -0.50507125882E+02  0.50507125882E+02  0.00000000000E+00 0. -1.
          6    2    1    2  501    0 -0.96307293162E+02  0.55716917730E+02  0.31114130603E+03  0.37309203729E+03  0.17323188602E+03 0.  0.
         24    2    3    3    0    0 -0.13153023071E+03  0.63907026732E+02  0.22753737155E+03  0.28188106714E+03  0.79368576295E+02 0.  0.
         -6    2    1    2    0  502  0.96307293162E+02 -0.55716917730E+02  0.52198180014E+03  0.56104532065E+03  0.17299532509E+03 0.  0.
        -24    2    5    5    0    0  0.84214935181E+01  0.22968896420E+02  0.24798963746E+03  0.26270128042E+03  0.83154138148E+02 0.  0.
          5    1    3    3  501    0  0.35222937550E+02 -0.81901090017E+01  0.83603934474E+02  0.91210970144E+02  0.47000000000E+01 0. -1.
        -13    1    4    4    0    0 -0.61803727398E+02  0.36846984330E+02  0.17847035486E+03  0.19242938585E+03  0.00000000000E+00 0.  1.
         14    1    4    4    0    0 -0.69726503314E+02  0.27060042402E+02  0.49067016697E+02  0.89451681296E+02  0.00000000000E+00 0. -1.
         -5    1    5    5    0  502  0.87885799644E+02 -0.78685814150E+02  0.27399216268E+03  0.29834404023E+03  0.47000000000E+01 0.  1.
         13    1    6    6    0    0  0.12785752033E+02 -0.51797235012E+01  0.73864223414E+00  0.13814868184E+02  0.00000000000E+00 0. -1.
        -14    1    6    6    0    0 -0.43642585144E+01  0.28148619921E+02  0.24725099523E+03  0.24888641224E+03  0.00000000000E+00 0.  1.
</event>
<event>
12    1  0.8500177E-002  0.1937140E+03  0.7818608E-02  0.1155571E+00
         21   -1    0    0  503  502  0.00000000000E+00  0.00000000000E+00  0.13200770360E+03  0.13200770360E+03  0.00000000000E+00 0. -1.
         21   -1    0    0  501  503 -0.00000000000E+00 -0.00000000000E+00 -0.29370803799E+03  0.29370803799E+03  0.00000000000E+00 0. -1.
          6    2    1    2  501    0 -0.83379649057E+02 -0.97243008396E+01 -0.37834498693E+02  0.19737415820E+03  0.17458058635E+03 0.  0.
         24    2    3    3    0    0 -0.21717139322E+02 -0.28144398982E+02  0.42352122521E+02  0.94449188714E+02  0.76571571960E+02 0.  0.
         -6    2    1    2    0  502  0.83379649057E+02  0.97243008396E+01 -0.12386583570E+03  0.22834158339E+03  0.17248305872E+03 0.  0.
        -24    2    5    5    0    0  0.12709571715E+03  0.75138947615E+01 -0.98503472687E+02  0.17753489128E+03  0.74872715707E+02 0.  0.
          5    1    3    3  501    0 -0.61662509735E+02  0.18420098143E+02 -0.80186621214E+02  0.10292496949E+03  0.47000000000E+01 0. -1.
        -13    1    4    4    0    0  0.18305158992E+01 -0.14495959085E+02 -0.20951212587E+02  0.25542844930E+02  0.00000000000E+00 0.  1.
         14    1    4    4    0    0 -0.23547655221E+02 -0.13648439897E+02  0.63303335108E+02  0.68906343785E+02  0.00000000000E+00 0. -1.
         -5    1    5    5    0  502 -0.43716068097E+02  0.22104060781E+01 -0.25362363018E+02  0.50806692106E+02  0.47000000000E+01 0.  1.
         11    1    6    6    0    0  0.49098187271E+02 -0.11306910021E+02 -0.81032336346E+02  0.95418644621E+02  0.00000000000E+00 0. -1.
        -12    1    6    6    0    0  0.77997529883E+02  0.18820804783E+02 -0.17471136340E+02  0.82116246660E+02  0.00000000000E+00 0.  1.
</event>
<event>
12    1  0.8500177E-002  0.3572352E+03  0.7818608E-02  0.1059701E+00
         21   -1    0    0  503  502  0.00000000000E+00  0.00000000000E+00  0.45325933721E+03  0.45325933721E+03  0.00000000000E+00 0.  1.
         21   -1    0    0  501  503 -0.00000000000E+00 -0.00000000000E+00 -0.36431190652E+03  0.36431190652E+03  0.00000000000E+00 0. -1.
          6    2    1    2  501    0  0.34107541101E+02 -0.31126755827E+03 -0.15051243799E+03  0.38764803299E+03  0.17194820818E+03 0.  0.
         24    2    3    3    0    0  0.95137240968E+01 -0.76523385388E+02 -0.54914506725E+02  0.13295068907E+03  0.93348504096E+02 0.  0.
         -6    2    1    2    0  502 -0.34107541101E+02  0.31126755827E+03  0.23945986868E+03  0.42992321074E+03  0.17158706604E+03 0.  0.
        -24    2    5    5    0    0 -0.75837666369E+02  0.13267147397E+03  0.91943049618E+02  0.19450599262E+03  0.77627219100E+02 0.  0.
          5    1    3    3  501    0  0.24593817004E+02 -0.23474417288E+03 -0.95597931269E+02  0.25469734392E+03  0.47000000000E+01 0. -1.
        -13    1    4    4    0    0  0.36640001064E+02 -0.16454257298E+02 -0.53662086060E+02  0.67028738177E+02  0.00000000000E+00 0.  1.
         14    1    4    4    0    0 -0.27126276967E+02 -0.60069128090E+02 -0.12524206643E+01  0.65921950890E+02  0.00000000000E+00 0. -1.
         -5    1    5    5    0  502  0.41730125268E+02  0.17859608430E+03  0.14751681907E+03  0.23541721813E+03  0.47000000000E+01 0.  1.
         11    1    6    6    0    0 -0.87016904623E+02  0.99369351427E+02  0.88965504622E+02  0.15925159561E+03  0.00000000000E+00 0. -1.
        -12    1    6    6    0    0  0.11179238254E+02  0.33302122541E+02  0.29775449960E+01  0.35254397001E+02  0.00000000000E+00 0.  1.
</event>
<event>
12    1  0.8500177E-002  0.1829502E+03  0.7818608E-02  0.1165073E+00
         21   -1    0    0  501  502  0.00000000000E+00  0.00000000000E+00  0.12799518319E+04  0.12799518319E+04  0.00000000000E+00 0.  1.
         21   -1    0    0  502  503 -0.00000000000E+00 -0.00000000000E+00 -0.26342674655E+02  0.26342674655E+02  0.00000000000E+00 0.  1.
         -6    2    1    2    0  503  0.62057879259E+02 -0.50437535772E+01  0.56253732967E+03  0.59141615714E+03  0.17160478966E+03 0.  0.
        -24    2    3    3    0    0  0.16522756248E+02 -0.38213152348E+00  0.52750493984E+03  0.53358418947E+03  0.78596935054E+02 0.  0.
          6    2    1    2  501    0 -0.62057879259E+02  0.50437535772E+01  0.69107182759E+03  0.71487834942E+03  0.17202954327E+03 0.  0.
         24    2    5    5    0    0 -0.62068270099E+02  0.65892836743E+02  0.50038653245E+03  0.51466450672E+03  0.79363319776E+02 0.  0.
          5    1    5    5  501    0  0.10390840071E-01 -0.60849083166E+02  0.19068529514E+03  0.20021384271E+03  0.47000000000E+01 0. -1.
        -13    1    6    6    0    0 -0.34971217441E+02  0.75979830854E+01  0.33994418476E+03  0.34182270865E+03  0.00000000000E+00 0.  1.
         14    1    6    6    0    0 -0.27097052658E+02  0.58294853657E+02  0.16044234769E+03  0.17284179807E+03  0.00000000000E+00 0. -1.
         -5    1    3    3    0  503  0.45535123011E+02 -0.46616220537E+01  0.35032389824E+02  0.57831967670E+02  0.47000000000E+01 0.  1.
         11    1    4    4    0    0  0.38005399672E+02  0.62595869058E+01  0.13369548385E+03  0.13913330023E+03  0.00000000000E+00 0. -1.
        -12    1    4    4    0    0 -0.21482643423E+02 -0.66417184293E+01  0.39380945599E+03  0.39445088924E+03  0.00000000000E+00 0.  1.
</event>
<event>
12    1  0.8500177E-002  0.1922489E+03  0.7818608E-02  0.1156651E+00
         21   -1    0    0  501  502  0.00000000000E+00  0.00000000000E+00  0.15332896536E+03  0.15332896536E+03  0.00000000000E+00 0. -1.
         21   -1    0    0  502  503 -0.00000000000E+00 -0.00000000000E+00 -0.27260743580E+03  0.27260743580E+03  0.00000000000E+00 0. -1.
         -6    2    1    2    0  503 -0.15284111282E+02 -0.80794004823E+02  0.13996216361E+02  0.19275766108E+03  0.17377671466E+03 0.  0.
        -24    2    3    3    0    0 -0.65545662655E+02 -0.86199009288E+02 -0.15196082364E+02  0.13419386745E+03  0.77785410240E+02 0.  0.
          6    2    1    2  501    0  0.15284111282E+02  0.80794004823E+02 -0.13327468680E+03  0.23317874009E+03  0.17276836346E+03 0.  0.
         24    2    5    5    0    0 -0.41042105898E+02  0.87984828436E+02 -0.12992001262E+03  0.17610252328E+03  0.68608341581E+02 0.  0.
          5    1    5    5  501    0  0.56326217180E+02 -0.71908236123E+01 -0.33546741817E+01  0.57076216806E+02  0.47000000000E+01 0. -1.
        -13    1    6    6    0    0 -0.36779642711E+02  0.62869541092E+02 -0.40954994360E+02  0.83562149793E+02  0.00000000000E+00 0.  1.
         14    1    6    6    0    0 -0.42624631876E+01  0.25115287344E+02 -0.88965018261E+02  0.92540373486E+02  0.00000000000E+00 0. -1.
         -5    1    3    3    0  503  0.50261551373E+02  0.54050044642E+01  0.29192298726E+02  0.58563793632E+02  0.47000000000E+01 0.  1.
         11    1    4    4    0    0 -0.63321511295E+02 -0.54255454343E+02  0.20875991230E+02  0.85959729690E+02  0.00000000000E+00 0. -1.
        -12    1    4    4    0    0 -0.22241513602E+01 -0.31943554945E+02 -0.36072073594E+02  0.48234137757E+02  0.00000000000E+00 0.  1.
</event>
<event>
12    1  0.8500177E-002  0.1876202E+03  0.7818608E-02  0.1160803E+00
         21   -1    0    0  501  502  0.00000000000E+00  0.00000000000E+00  0.85060730397E+02  0.85060730397E+02  0.00000000000E+00 0.  1.
         21   -1    0    0  502  503 -0.00000000000E+00 -0.00000000000E+00 -0.46245309080E+03  0.46245309080E+03  0.00000000000E+00 0.  1.
         -6    2    1    2    0  503  0.74517120122E+02 -0.12546517853E+02 -0.98044123342E+02  0.21100709641E+03  0.17088337634E+03 0.  0.
        -24    2    3    3    0    0  0.28539425395E+02  0.57028301653E+02 -0.71421729729E+02  0.12334042222E+03  0.77750050055E+02 0.  0.
          6    2    1    2  501    0 -0.74517120122E+02  0.12546517853E+02 -0.27934823706E+03  0.33650672479E+03  0.17172979351E+03 0.  0.
         24    2    5    5    0    0  0.98988503465E+01  0.49546394527E+02 -0.19096628329E+03  0.20872367937E+03  0.67413800734E+02 0.  0.
          5    1    5    5  501    0 -0.84415970469E+02 -0.36999876673E+02 -0.88381953779E+02  0.12778304542E+03  0.47000000000E+01 0. -1.
        -11    1    6    6    0    0 -0.13595389377E+02  0.14772749969E+02 -0.14538754453E+03  0.14676718591E+03  0.00000000000E+00 0.  1.
         12    1    6    6    0    0  0.23494239724E+02  0.34773644558E+02 -0.45578738754E+02  0.61956493465E+02  0.00000000000E+00 0. -1.
         -5    1    3    3    0  503  0.45977694727E+02 -0.69574819507E+02 -0.26622393613E+02  0.87666674190E+02  0.47000000000E+01 0.  1.
         11    1    4    4    0    0  0.36628938461E+02 -0.40374965884E+01 -0.14933165915E+02  0.39761538649E+02  0.00000000000E+00 0. -1.
        -12    1    4    4    0    0 -0.80895130660E+01  0.61065798242E+02 -0.56488563814E+02  0.83578883567E+02  0.00000000000E+00 0.  1.
</event>
<event>
12    1  0.8500177E-002  0.1870774E+03  0.7818608E-02  0.1161315E+00
         21   -1    0    0  501  502  0.00000000000E+00  0.00000000000E+00  0.12588004838E+03  0.12588004838E+03  0.00000000000E+00 0.  1.
         21   -1    0    0  502  503 -0.00000000000E+00 -0.00000000000E+00 -0.27997574010E+03  0.27997574010E+03  0.00000000000E+00 0.  1.
         -6    2    1    2    0  503  0.57023033661E+02  0.44122237144E+02 -0.98498722933E+02  0.21069178843E+03  0.17172837015E+03 0.  0.
        -24    2    3    3    0    0  0.10590319196E+02 -0.36077157827E+02 -0.67721607709E+02  0.11293054484E+03  0.82178924491E+02 0.  0.
          6    2    1    2  501    0 -0.57023033661E+02 -0.44122237144E+02 -0.55596968786E+02  0.19516400006E+03  0.17262550739E+03 0.  0.
         24    2    5    5    0    0 -0.65407032060E+02 -0.90248150168E+02 -0.54409003498E+02  0.14803234888E+03  0.80811064840E+02 0.  0.
          5    1    5    5  501    0  0.83839983990E+01  0.46125913024E+02 -0.11879652883E+01  0.47131651180E+02  0.47000000000E+01 0. -1.
        -13    1    6    6    0    0 -0.45260095732E+02 -0.10277458780E+03 -0.53239066473E+02  0.12427988720E+03  0.00000000000E+00 0.  1.
         14    1    6    6    0    0 -0.20146936328E+02  0.12526437631E+02 -0.11699370246E+01  0.23752461678E+02  0.00000000000E+00 0. -1.
         -5    1    3    3    0  503  0.46432714465E+02  0.80199394972E+02 -0.30777115224E+02  0.97761243588E+02  0.47000000000E+01 0.  1.
         13    1    4    4    0    0  0.36463548910E+01 -0.44070156355E+02 -0.83174002423E+02  0.94198669121E+02  0.00000000000E+00 0. -1.
        -14    1    4    4    0    0  0.69439643046E+01  0.79929985271E+01  0.15452394714E+02  0.18731875723E+02  0.00000000000E+00 0.  1.
</event>
<event>
12    1  0.8500177E-002  0.3331259E+03  0.7818608E-02  0.1070022E+00
         21   -1    0    0  503  502  0.00000000000E+00  0.00000000000E+00  0.40548548883E+03  0.40548548883E+03  0.00000000000E+00 0.  1.
         21   -1    0    0  501  503 -0.00000000000E+00 -0.00000000000E+00 -0.27183676990E+03  0.27183676990E+03  0.00000000000E+00 0. -1.
          6    2    1    2  501    0  0.25586890400E+03  0.12884086405E+03  0.73014284589E+02  0.33872303784E+03  0.16532799620E+03 0.  0.
         24    2    3    3    0    0  0.18053943757E+03  0.13026701528E+03  0.10221601239E+03  0.25778236002E+03  0.80247418400E+02 0.  0.
         -6    2    1    2    0  502 -0.25586890400E+03 -0.12884086405E+03  0.60634434342E+02  0.33859922089E+03  0.17001186274E+03 0.  0.
        -24    2    5    5    0    0 -0.11235867615E+03 -0.82968913576E+02 -0.27310132023E+02  0.16408343911E+03  0.81665286084E+02 0.  0.
          5    1    3    3  501    0  0.75329466435E+02 -0.14261512321E+01 -0.29201727799E+02  0.80940677828E+02  0.47000000000E+01 0. -1.
        -11    1    4    4    0    0  0.13387620288E+03  0.10557544794E+03  0.38051868343E+02  0.17469103465E+03  0.00000000000E+00 0.  1.
         12    1    4    4    0    0  0.46663234689E+02  0.24691567347E+02  0.64164144045E+02  0.83091325364E+02  0.00000000000E+00 0. -1.
         -5    1    5    5    0  502 -0.14351022785E+03 -0.45871950474E+02  0.87944566366E+02  0.17451578178E+03  0.47000000000E+01 0.  1.
         11    1    6    6    0    0 -0.10332718410E+03 -0.59241293179E+02  0.93709653209E+01  0.11947323040E+03  0.00000000000E+00 0. -1.
        -12    1    6    6    0    0 -0.90314920538E+01 -0.23727620398E+02 -0.36681097344E+02  0.44610208706E+02  0.00000000000E+00 0.  1.
</event>
<event>
12    1  0.8500177E-002  0.2288254E+03  0.7818608E-02  0.1127780E+00
         21   -1    0    0  503  502  0.00000000000E+00  0.00000000000E+00  0.63298666089E+03  0.63298666089E+03  0.00000000000E+00 0.  1.
         21   -1    0    0  501  503 -0.00000000000E+00 -0.00000000000E+00 -0.13129263205E+03  0.13129263205E+03  0.00000000000E+00 0. -1.
          6    2    1    2  501    0  0.15088466561E+03 -0.17596913319E+02  0.16313730043E+02  0.22766480220E+03  0.16878770896E+03 0.  0.
         24    2    3    3    0    0  0.96781660785E+02  0.59328642314E+01  0.72824902546E+02  0.14583334015E+03  0.81006221530E+02 0.  0.
         -6    2    1    2    0  502 -0.15088466561E+03  0.17596913319E+02  0.48538029880E+03  0.53661449075E+03  0.17112931818E+03 0.  0.
        -24    2    5    5    0    0 -0.15426178183E+03  0.35405957613E+02  0.48653743784E+03  0.51785293582E+03  0.80016907889E+02 0.  0.
          5    1    3    3  501    0  0.54103004826E+02 -0.23529777551E+02 -0.56511172503E+02  0.81831462045E+02  0.47000000000E+01 0. -1.
        -11    1    4    4    0    0  0.34765996298E+02  0.22267218845E+00  0.75895549286E+02  0.83479689045E+02  0.00000000000E+00 0.  1.
         12    1    4    4    0    0  0.62015664487E+02  0.57101920429E+01 -0.30706467406E+01  0.62353651107E+02  0.00000000000E+00 0. -1.
         -5    1    5    5    0  502  0.33771162214E+01 -0.17809044293E+02 -0.11571390375E+01  0.18761554929E+02  0.47000000000E+01 0.  1.
         13    1    6    6    0    0 -0.81126925700E+02  0.12800381355E+02  0.13453523196E+03  0.15762346423E+03  0.00000000000E+00 0. -1.
        -14    1    6    6    0    0 -0.73134856133E+02  0.22605576258E+02  0.35200220588E+03  0.36022947159E+03  0.00000000000E+00 0.  1.
</event>
<event>
12    1  0.8500177E-002  0.3359683E+03  0.7818608E-02  0.1068557E+00
         21   -1    0    0  501  502  0.00000000000E+00  0.00000000000E+00  0.18483544007E+04  0.18483544007E+04  0.00000000000E+00 0. -1.
         21   -1    0    0  502  503 -0.00000000000E+00 -0.00000000000E+00 -0.13786138726E+03  0.13786138726E+03  0.00000000000E+00 0.  1.
         -6    2    1    2    0  503 -0.28663820115E+03 -0.31482515340E+02  0.11363705896E+03  0.35439972621E+03  0.17185219708E+03 0.  0.
        -24    2    3    3    0    0 -0.12773108480E+03  0.37635303525E+01  0.11687285057E+03  0.19153071225E+03  0.81825157182E+02 0.  0.
          6    2    1    2  501    0  0.28663820115E+03  0.31482515340E+02  0.15968559545E+04  0.16318160618E+04  0.17240102354E+03 0.  0.
         24    2    5    5    0    0  0.17547431828E+03  0.65824789936E+02  0.12330847493E+04  0.12498626871E+04  0.80836862586E+02 0.  0.
          5    1    5    5  501    0  0.11116388286E+03 -0.34342274596E+02  0.36377120520E+03  0.38195337466E+03  0.47000000000E+01 0. -1.
        -13    1    6    6    0    0  0.20175589952E+02  0.31318541479E+01  0.38345552649E+02  0.43442425672E+02  0.00000000000E+00 0.  1.
         14    1    6    6    0    0  0.15529872833E+03  0.62692935788E+02  0.11947391967E+04  0.12064202615E+04  0.00000000000E+00 0. -1.
         -5    1    3    3    0  503 -0.15890711635E+03 -0.35246045692E+02 -0.32357916101E+01  0.16286901396E+03  0.47000000000E+01 0.  1.
         11    1    4    4    0    0 -0.13630029079E+03  0.89495716451E+01  0.91919735106E+02  0.16464234511E+03  0.00000000000E+00 0. -1.
        -12    1    4    4    0    0  0.85692059915E+01 -0.51860412926E+01  0.24953115467E+02  0.26888367134E+02  0.00000000000E+00 0.  1.
</event>
<event>
12    1  0.8500177E-002  0.1891083E+03  0.7818608E-02  0.1159803E+00
         21   -1    0    0  501  502  0.00000000000E+00  0.00000000000E+00  0.39625500222E+03  0.39625500222E+03  0.00000000000E+00 0. -1.
         21   -1    0    0  502  503 -0.00000000000E+00 -0.00000000000E+00 -0.90776731969E+02  0.90776731969E+02  0.00000000000E+00 0.  1.
         -6    2    1    2    0  503  0.13533739012E+02 -0.77841398502E+02  0.11905175885E+03  0.22148174311E+03  0.16922882685E+03 0.  0.
        -24    2    3    3    0    0 -0.55114695519E+02 -0.66907697647E+02  0.86175693952E+02  0.14444227907E+03  0.76961367499E+02 0.  0.
          6    2    1    2  501    0 -0.13533739012E+02  0.77841398502E+02  0.18642651140E+03  0.26554999107E+03  0.17181242153E+03 0.  0.
         24    2    5    5    0    0  0.64165654080E+01 -0.14325523242E+02  0.13648631254E+03  0.15873768105E+03  0.79515689931E+02 0.  0.
          5    1    5    5  501    0 -0.19950304420E+02  0.92166921744E+02  0.49940198858E+02  0.10681231002E+03  0.47000000000E+01 0. -1.
        -13    1    6    6    0    0 -0.12921327176E+02  0.17205422051E+02  0.49223121864E+01  0.22072978983E+02  0.00000000000E+00 0.  1.
         14    1    6    6    0    0  0.19337892584E+02 -0.31530945293E+02  0.13156400036E+03  0.13666470207E+03  0.00000000000E+00 0. -1.
         -5    1    3    3    0  503  0.68648434531E+02 -0.10933700855E+02  0.32876064894E+02  0.77039464048E+02  0.47000000000E+01 0.  1.
         13    1    4    4    0    0  0.17944022429E+02 -0.24465922336E+02  0.31871486695E+02  0.44004101636E+02  0.00000000000E+00 0. -1.
        -14    1    4    4    0    0 -0.73058717948E+02 -0.42441775312E+02  0.54304207256E+02  0.10043817743E+03  0.00000000000E+00 0.  1.
</event>
<event>
12    1  0.8500177E-002  0.1931286E+03  0.7818608E-02  0.1155829E+00
         21   -1    0    0  501  502  0.00000000000E+00  0.00000000000E+00  0.22875777631E+03  0.22875777631E+03  0.00000000000E+00 0. -1.
         21   -1    0    0  502  503 -0.00000000000E+00 -0.00000000000E+00 -0.16246054124E+03  0.16246054124E+03  0.00000000000E+00 0. -1.
         -6    2    1    2    0  503  0.55868632010E+02 -0.67911772510E+02  0.35407534971E+02  0.19634751125E+03  0.17194574363E+03 0.  0.
        -24    2    3    3    0    0  0.13853415431E+02 -0.56234681525E+02 -0.41907389109E+02  0.10745813976E+03  0.80229458518E+02 0.  0.
          6    2    1    2  501    0 -0.55868632010E+02  0.67911772510E+02  0.30889700100E+02  0.19487080630E+03  0.17113487280E+03 0.  0.
         24    2    5    5    0    0 -0.92022258868E+02  0.57797426189E+02  0.59895199919E+02  0.14719697956E+03  0.79188870537E+02 0.  0.
          5    1    5    5  501    0  0.36153626858E+02  0.10114346321E+02 -0.29005499818E+02  0.47673826742E+02  0.47000000000E+01 0. -1.
        -11    1    6    6    0    0  0.52827568671E+01 -0.25817662655E+01  0.27592731386E+02  0.28212264399E+02  0.00000000000E+00 0.  1.
         12    1    6    6    0    0 -0.97305015735E+02  0.60379192455E+02  0.32302468533E+02  0.11898471516E+03  0.00000000000E+00 0. -1.
         -5    1    3    3    0  503  0.42015216579E+02 -0.11677090985E+02  0.77314924080E+02  0.88889371488E+02  0.47000000000E+01 0.  1.
         13    1    4    4    0    0  0.27437741132E+02 -0.21962505581E+02 -0.57532126233E+02  0.67417555864E+02  0.00000000000E+00 0. -1.
        -14    1    4    4    0    0 -0.13584325701E+02 -0.34272175945E+02  0.15624737125E+02  0.40040583899E+02  0.00000000000E+00 0.  1.
</event>
<event>
12    1  0.8500177E-002  0.1808762E+03  0.7818608E-02  0.1167415E+00
         21   -1    0    0  501  502  0.00000000000E+00  0.00000000000E+00  0.14676997952E+03  0.14676997952E+03  0.00000000000E+00 0. -1.
         21   -1    0    0  502  503 -0.00000000000E+00 -0.00000000000E+00 -0.22430966164E+03  0.22430966164E+03  0.00000000000E+00 0. -1.
         -6    2    1    2    0  503  0.14116122761E+02  0.49818296653E+02 -0.62487540993E+02  0.18957821928E+03  0.17133032668E+03 0.  0.
        -24    2    3    3    0    0 -0.27034187403E+02  0.85038784807E+02 -0.61903751806E+02  0.13520670447E+03  0.80537793837E+02 0.  0.
          6    2    1    2  501    0 -0.14116122761E+02 -0.49818296653E+02 -0.15052141117E+02  0.18150142188E+03  0.17330629415E+03 0.  0.
         24    2    5    5    0    0 -0.10920287617E+02 -0.47268298166E+01 -0.68889877264E+02  0.11104543863E+03  0.86276756130E+02 0.  0.
          5    1    5    5  501    0 -0.31958351438E+01 -0.45091466836E+02  0.53837736146E+02  0.70455983259E+02  0.47000000000E+01 0. -1.
        -11    1    6    6    0    0 -0.45769254398E+02  0.79992041009E+01 -0.22440225430E+02  0.51598213455E+02  0.00000000000E+00 0.  1.
         12    1    6    6    0    0  0.34848966781E+02 -0.12726033918E+02 -0.46449651834E+02  0.59447225170E+02  0.00000000000E+00 0. -1.
         -5    1    3    3    0  503  0.41150310164E+02 -0.35220488155E+02 -0.58378918742E+00  0.54371514805E+02  0.47000000000E+01 0.  1.
         13    1    4    4    0    0 -0.34454098531E+02 -0.37129256910E+00 -0.18722661251E+02  0.39214293416E+02  0.00000000000E+00 0. -1.
        -14    1    4    4    0    0  0.74199111288E+01  0.85410077376E+02 -0.43181090555E+02  0.95992411055E+02  0.00000000000E+00 0.  1.
</event>
<event>
12    1  0.8500177E-002  0.2495316E+03  0.7818608E-02  0.1113775E+00
         21   -1    0    0  501  502  0.00000000000E+00  0.00000000000E+00  0.24243410633E+04  0.24243410633E+04  0.00000000000E+00 0.  1.
         21   -1    0    0  502  503 -0.00000000000E+00 -0.00000000000E+00 -0.27354983447E+02  0.27354983447E+02  0.00000000000E+00 0.  1.
         -6    2    1    2    0  503  0.60940347531E+02  0.16946296065E+03  0.88299526480E+03  0.91727948120E+03  0.17114201119E+03 0.  0.
        -24    2    3    3    0    0  0.18066985291E+02  0.80478948035E+02  0.69891443149E+03  0.70831986099E+03  0.80202031691E+02 0.  0.
          6    2    1    2  501    0 -0.60940347531E+02 -0.16946296065E+03  0.15139908150E+04  0.15344165655E+04  0.17272691613E+03 0.  0.
         24    2    5    5    0    0 -0.68819457964E+02 -0.13260919287E+03  0.72632762446E+03  0.74583830538E+03  0.80010273674E+02 0.  0.
          5    1    5    5  501    0  0.78791104324E+01 -0.36853767775E+02  0.78766319058E+03  0.78857826015E+03  0.47000000000E+01 0. -1.
        -13    1    6    6    0    0 -0.29094408950E+02 -0.65312806582E+01  0.24074746854E+03  0.24258706863E+03  0.00000000000E+00 0.  1.
         14    1    6    6    0    0 -0.39725049013E+02 -0.12607791221E+03  0.48558015592E+03  0.50325123675E+03  0.00000000000E+00 0. -1.
         -5    1    3    3    0  503  0.42873362240E+02  0.88984012612E+02  0.18408083331E+03  0.20895962022E+03  0.47000000000E+01 0.  1.
         11    1    4    4    0    0 -0.79145449220E+01 -0.14224125107E+02  0.12646869565E+03  0.12751194742E+03  0.00000000000E+00 0. -1.
        -12    1    4    4    0    0  0.25981530213E+02  0.94703073142E+02  0.57244573584E+03  0.58080791356E+03  0.00000000000E+00 0.  1.
</event>
<event>
12    1  0.8500177E-002  0.4568221E+03  0.7818608E-02  0.1026164E+00
         21   -1    0    0  501  502  0.00000000000E+00  0.00000000000E+00  0.96450868829E+03  0.96450868829E+03  0.00000000000E+00 0.  1.
         21   -1    0    0  502  503 -0.00000000000E+00 -0.00000000000E+00 -0.24503139132E+03  0.24503139132E+03  0.00000000000E+00 0. -1.
         -6    2    1    2    0  503  0.57205424935E+02 -0.41899854192E+03  0.14043034698E+03  0.47198883302E+03  0.15562948746E+03 0.  0.
        -24    2    3    3    0    0 -0.92425089766E+01 -0.31915699707E+03  0.11635377744E+03  0.34957382904E+03  0.81957596780E+02 0.  0.
          6    2    1    2  501    0 -0.57205424935E+02  0.41899854192E+03  0.57904694999E+03  0.73755124659E+03  0.17278377321E+03 0.  0.
         24    2    5    5    0    0 -0.44293877041E+02  0.39963048983E+03  0.58433698357E+03  0.71322217003E+03  0.74630272109E+02 0.  0.
          5    1    5    5  501    0 -0.12911547894E+02  0.19368052092E+02 -0.52900335827E+01  0.24329076558E+02  0.47000000000E+01 0. -1.
        -11    1    6    6    0    0 -0.65199652513E+02  0.30639108776E+03  0.43976869565E+03  0.53992869809E+03  0.00000000000E+00 0.  1.
         12    1    6    6    0    0  0.20905775473E+02  0.93239402065E+02  0.14456828792E+03  0.17329347194E+03  0.00000000000E+00 0. -1.
         -5    1    3    3    0  503  0.66447933912E+02 -0.99841544844E+02  0.24076569542E+02  0.12241500398E+03  0.47000000000E+01 0.  1.
         13    1    4    4    0    0  0.35995337947E+02 -0.14583450837E+03  0.45629484508E+02  0.15698859208E+03  0.00000000000E+00 0. -1.
        -14    1    4    4    0    0 -0.45237846924E+02 -0.17332248870E+03  0.70724292932E+02  0.19258523696E+03  0.00000000000E+00 0.  1.
</event>
<event>
12    1  0.8500177E-002  0.1784061E+03  0.7818608E-02  0.1170509E+00
         21   -1    0    0  503  502  0.00000000000E+00  0.00000000000E+00  0.27798053605E+03  0.27798053605E+03  0.00000000000E+00 0.  1.
         21   -1    0    0  501  503 -0.00000000000E+00 -0.00000000000E+00 -0.10044364512E+04  0.10044364512E+04  0.00000000000E+00 0.  1.
          6    2    1    2  501    0 -0.44866035952E+02 -0.38296899561E+01 -0.96725013591E+03  0.98273280822E+03  0.16781930527E+03 0.  0.
         24    2    3    3    0    0 -0.32044729556E+02 -0.64353349535E+02 -0.50793606441E+03  0.51924709588E+03  0.80313652385E+02 0.  0.
         -6    2    1    2    0  502  0.44866035952E+02  0.38296899561E+01  0.24079422073E+03  0.29968417905E+03  0.17263001688E+03 0.  0.
        -24    2    5    5    0    0 -0.32797102466E+02 -0.48268816642E+01  0.70530365242E+02  0.11228522018E+03  0.80836189497E+02 0.  0.
          5    1    3    3  501    0 -0.12821306396E+02  0.60523659579E+02 -0.45931407150E+03  0.46348571234E+03  0.47000000000E+01 0. -1.
        -11    1    4    4    0    0 -0.13397955105E+02 -0.15537655129E+01 -0.31883905143E+03  0.31912420796E+03  0.00000000000E+00 0.  1.
         12    1    4    4    0    0 -0.18646774451E+02 -0.62799584022E+02 -0.18909701298E+03  0.20012288792E+03  0.00000000000E+00 0. -1.
         -5    1    5    5    0  502  0.77663138418E+02  0.86565716204E+01  0.17026385549E+03  0.18739895888E+03  0.47000000000E+01 0.  1.
         11    1    6    6    0    0  0.16712873950E+02 -0.25480773189E+02  0.11629924503E+02  0.32616638422E+02  0.00000000000E+00 0. -1.
        -12    1    6    6    0    0 -0.49509976416E+02  0.20653891525E+02  0.58900440738E+02  0.79668581756E+02  0.00000000000E+00 0.  1.
</event>
<event>
12    1  0.8500177E-002  0.1834272E+03  0.7818608E-02  0.1164570E+00
         21   -1    0    0  503  502  0.00000000000E+00  0.00000000000E+00  0.31705829309E+03  0.31705829309E+03  0.00000000000E+00 0.  1.
         21   -1    0    0  501  503 -0.00000000000E+00 -0.00000000000E+00 -0.13927833750E+03  0.13927833750E+03  0.00000000000E+00 0.  1.
          6    2    1    2  501    0  0.63282228333E+02  0.12970215075E+02 -0.22653807357E+02  0.18463967198E+03  0.17148103854E+03 0.  0.
         24    2    3    3    0    0  0.15468426663E+02 -0.26037368325E+02 -0.66688939528E+02  0.10868617266E+03  0.80299767744E+02 0.  0.
         -6    2    1    2    0  502 -0.63282228333E+02 -0.12970215075E+02  0.20043376295E+03  0.27169695861E+03  0.17167608186E+03 0.  0.
        -24    2    5    5    0    0 -0.55970421990E+02  0.50917853898E+02  0.93607605460E+02  0.14692089603E+03  0.84249925257E+02 0.  0.
          5    1    3    3  501    0  0.47813801670E+02  0.39007583400E+02  0.44035132171E+02  0.75953499315E+02  0.47000000000E+01 0. -1.
        -13    1    4    4    0    0  0.35410837226E+02 -0.38746066346E+02 -0.66904413222E+02  0.85037553815E+02  0.00000000000E+00 0.  1.
         14    1    4    4    0    0 -0.19942410563E+02  0.12708698021E+02  0.21547369349E+00  0.23648618847E+02  0.00000000000E+00 0. -1.
         -5    1    5    5    0  502 -0.73118063427E+01 -0.63888068973E+02  0.10682615749E+03  0.12477606258E+03  0.47000000000E+01 0.  1.
         13    1    6    6    0    0 -0.65987140611E+02  0.55757719333E+01  0.62268089831E+02  0.90899433276E+02  0.00000000000E+00 0. -1.
        -14    1    6    6    0    0  0.10016718621E+02  0.45342081965E+02  0.31339515629E+02  0.56021462751E+02  0.00000000000E+00 0.  1.
</event>
<event>
12    1  0.8500177E-002  0.2287801E+03  0.7818608E-02  0.1127603E+00
         21   -1    0    0  503  502  0.00000000000E+00  0.00000000000E+00  0.17869789726E+04  0.17869789726E+04  0.00000000000E+00 0. -1.
         21   -1    0    0  501  503 -0.00000000000E+00 -0.00000000000E+00 -0.57310114978E+02  0.57310114978E+02  0.00000000000E+00 0.  1.
          6    2    1    2  501    0 -0.12909352793E+03  0.78576772967E+02  0.21865323624E+03  0.31605202291E+03  0.17099764696E+03 0.  0.
         24    2    3    3    0    0 -0.26032594101E+01  0.23540702465E+02  0.12036789611E+03  0.14660924446E+03  0.80280125268E+02 0.  0.
         -6    2    1    2    0  502  0.12909352793E+03 -0.78576772967E+02  0.15110156214E+04  0.15282370647E+04  0.17175817171E+03 0.  0.
        -24    2    5    5    0    0  0.16117372587E+03 -0.54661256211E+02  0.12362910815E+04  0.12505740425E+04  0.80962799094E+02 0.  0.
          5    1    3    3  501    0 -0.12649026852E+03  0.55036070502E+02  0.98285340129E+02  0.16944277846E+03  0.47000000000E+01 0. -1.
        -13    1    4    4    0    0 -0.52977720309E+01  0.43312818717E+02  0.27402535788E+02  0.51526358511E+02  0.00000000000E+00 0.  1.
         14    1    4    4    0    0  0.26945126208E+01 -0.19772116253E+02  0.92965360324E+02  0.95082885945E+02  0.00000000000E+00 0. -1.
         -5    1    5    5    0  502 -0.32080197940E+02 -0.23915516756E+02  0.27472453994E+03  0.27766302218E+03  0.47000000000E+01 0.  1.
         13    1    6    6    0    0  0.95522669850E+02 -0.32435784133E+02  0.97646408812E+03  0.98166123277E+03  0.00000000000E+00 0. -1.
        -14    1    6    6    0    0  0.65651056025E+02 -0.22225472078E+02  0.25982699336E+03  0.26891280974E+03  0.00000000000E+00 0.  1.
</event>
<event>
12    1  0.8500177E-002  0.1957498E+03  0.7818608E-02  0.1153438E+00
         21   -1    0    0  503  502  0.00000000000E+00  0.00000000000E+00  0.91366461587E+02  0.91366461587E+02  0.00000000000E+00 0.  1.
         21   -1    0    0  501  503 -0.00000000000E+00 -0.00000000000E+00 -0.65192968280E+03  0.65192968280E+03  0.00000000000E+00 0.  1.
          6    2    1    2  501    0  0.57442239775E+02  0.74211049987E+02 -0.50240786205E+03  0.53909024761E+03  0.17145770432E+03 0.  0.
         24    2    3    3    0    0 -0.43816926329E+01 -0.68997065994E+01 -0.13662049915E+03  0.15932237337E+03  0.81557664786E+02 0.  0.
         -6    2    1    2    0  502 -0.57442239775E+02 -0.74211049987E+02 -0.58155359164E+02  0.20420589678E+03  0.17178798453E+03 0.  0.
        -24    2    5    5    0    0 -0.37067592693E+02  0.76295353475E+01 -0.77578417654E+02  0.11753206651E+03  0.79769414783E+02 0.  0.
          5    1    3    3  501    0  0.61823932408E+02  0.81110756587E+02 -0.36578736289E+03  0.37976787424E+03  0.47000000000E+01 0. -1.
        -11    1    4    4    0    0  0.24311527812E+02 -0.17003105960E+02 -0.13671447601E+02  0.32665952861E+02  0.00000000000E+00 0.  1.
         12    1    4    4    0    0 -0.28693220445E+02  0.10103399360E+02 -0.12294905155E+03  0.12665642051E+03  0.00000000000E+00 0. -1.
         -5    1    5    5    0  502 -0.20374647083E+02 -0.81840585335E+02  0.19423058490E+02  0.86673830265E+02  0.47000000000E+01 0.  1.
         13    1    6    6    0    0 -0.40072215141E+02 -0.17643068400E+02 -0.94325814668E+01  0.44788769597E+02  0.00000000000E+00 0. -1.
        -14    1    6    6    0    0  0.30046224479E+01  0.25272603748E+02 -0.68145836187E+02  0.72743296914E+02  0.00000000000E+00 0.  1.
</event>
<event>
12    1  0.8500177E-002  0.1912573E+03  0.7818608E-02  0.1158684E+00
         21   -1    0    0  501  502  0.00000000000E+00  0.00000000000E+00  0.45540032649E+03  0.45540032649E+03  0.00000000000E+00 0. -1.
         21   -1    0    0  502  503 -0.00000000000E+00 -0.00000000000E+00 -0.24169951420E+03  0.24169951420E+03  0.00000000000E+00 0. -1.
         -6    2    1    2    0  503  0.47341292264E+02 -0.51586674469E+02 -0.17957666109E+03  0.26234928561E+03  0.17798030091E+03 0.  0.
        -24    2    3    3    0    0  0.81057550777E+02 -0.17457319966E+02 -0.18067739346E+03  0.21413206318E+03  0.79580999091E+02 0.  0.
          6    2    1    2  501    0 -0.47341292264E+02  0.51586674469E+02  0.39327747338E+03  0.43475055508E+03  0.17157648771E+03 0.  0.
         24    2    5    5    0    0 -0.17190448310E+02  0.11882727225E+02  0.65251789119E+02  0.10292467249E+03  0.76804827356E+02 0.  0.
          5    1    5    5  501    0 -0.30150843954E+02  0.39703947244E+02  0.32802568426E+03  0.33182588259E+03  0.47000000000E+01 0. -1.
        -11    1    6    6    0    0  0.30246823721E+02  0.10798613907E+02  0.27746701056E+02  0.42442429561E+02  0.00000000000E+00 0.  1.
         12    1    6    6    0    0 -0.47437272031E+02  0.10841133172E+01  0.37505088063E+02  0.60482242932E+02  0.00000000000E+00 0. -1.
         -5    1    3    3    0  503 -0.33716258513E+02 -0.34129354502E+02  0.11007323660E+01  0.48217222427E+02  0.47000000000E+01 0.  1.
         13    1    4    4    0    0  0.33469255730E+02 -0.40579113817E+02 -0.47669776343E+02  0.70987767495E+02  0.00000000000E+00 0. -1.
        -14    1    4    4    0    0  0.47588295046E+02  0.23121793851E+02 -0.13300761711E+03  0.14314429568E+03  0.00000000000E+00 0.  1.
</event>
<event>
12    1  0.8500177E-002  0.2026302E+03  0.7818608E-02  0.1147593E+00
         21   -1    0    0  501  502  0.00000000000E+00  0.00000000000E+00  0.11115905801E+03  0.11115905801E+03  0.00000000000E+00 0.  1.
         21   -1    0    0  502  503 -0.00000000000E+00 -0.00000000000E+00 -0.58758195803E+03  0.58758195803E+03  0.00000000000E+00 0. -1.
         -6    2    1    2    0  503 -0.10631910331E+03  0.77269583479E+01 -0.45144465659E+03  0.49483458387E+03  0.17232390959E+03 0.  0.
        -24    2    3    3    0    0 -0.87158929454E+02 -0.15878869219E+02 -0.44815179844E+03  0.46389463765E+03  0.80680746930E+02 0.  0.
          6    2    1    2  501    0  0.10631910331E+03 -0.77269583479E+01 -0.24978243428E+02  0.20390643218E+03  0.17201878625E+03 0.  0.
         24    2    5    5    0    0  0.10843483618E+03  0.48264532819E+02 -0.28175443558E+01  0.14346877841E+03  0.80546713145E+02 0.  0.
          5    1    5    5  501    0 -0.21157328698E+01 -0.55991491167E+02 -0.22160699072E+02  0.60437653760E+02  0.47000000000E+01 0. -1.
        -13    1    6    6    0    0  0.57804989535E+02 -0.12459978677E+02 -0.20256670399E+02  0.62506004347E+02  0.00000000000E+00 0.  1.
         14    1    6    6    0    0  0.50629846643E+02  0.60724511497E+02  0.17439126043E+02  0.80962774068E+02  0.00000000000E+00 0. -1.
         -5    1    3    3    0  503 -0.19160173854E+02  0.23605827567E+02 -0.32928581493E+01  0.30939946219E+02  0.47000000000E+01 0.  1.
         11    1    4    4    0    0 -0.81238858324E+02  0.37990850828E+01 -0.21547348309E+03  0.23031067509E+03  0.00000000000E+00 0. -1.
        -12    1    4    4    0    0 -0.59200711299E+01 -0.19677954301E+02 -0.23267831535E+03  0.23358396256E+03  0.00000000000E+00 0.  1.
</event>
<event>
12    1  0.8500177E-002  0.1928798E+03  0.7818608E-02  0.1155980E+00
         21   -1    0    0  501  502  0.00000000000E+00  0.00000000000E+00  0.12916803029E+03  0.12916803029E+03  0.00000000000E+00 0.  1.
         21   -1    0    0  502  503 -0.00000000000E+00 -0.00000000000E+00 -0.35048209218E+03  0.35048209218E+03  0.00000000000E+00 0.  1.
         -6    2    1    2    0  503 -0.59915844737E+02  0.60357317619E+02 -0.21230102857E+03  0.28655984130E+03  0.17266123384E+03 0.  0.
        -24    2    3    3    0    0 -0.54662058429E+02  0.78445991673E+02 -0.22958423648E+03  0.26056750252E+03  0.77748231389E+02 0.  0.
          6    2    1    2  501    0  0.59915844737E+02 -0.60357317619E+02 -0.90130333140E+01  0.19309028117E+03  0.17311761226E+03 0.  0.
         24    2    5    5    0    0  0.28283528845E+02  0.35636924530E+02 -0.64180662042E+01  0.91876044088E+02  0.79561721384E+02 0.  0.
          5    1    5    5  501    0  0.31632315892E+02 -0.95994242149E+02 -0.25949671099E+01  0.10121423709E+03  0.47000000000E+01 0. -1.
        -11    1    6    6    0    0 -0.26721444079E+01 -0.22892004383E+02  0.74630988345E+01  0.24225648900E+02  0.00000000000E+00 0.  1.
         12    1    6    6    0    0  0.30955673253E+02  0.58528928913E+02 -0.13881165039E+02  0.67650395188E+02  0.00000000000E+00 0. -1.
         -5    1    3    3    0  503 -0.52537863083E+01 -0.18088674055E+02  0.17283207910E+02  0.25992338781E+02  0.47000000000E+01 0.  1.
         11    1    4    4    0    0  0.13523573064E+02 -0.39805940568E+01 -0.13824633401E+02  0.19744686529E+02  0.00000000000E+00 0. -1.
        -12    1    4    4    0    0 -0.68185631493E+02  0.82426585730E+02 -0.21575960308E+03  0.24082281599E+03  0.00000000000E+00 0.  1.
</event>
<event>
12    1  0.8500177E-002  0.1772378E+03  0.7818608E-02  0.1170956E+00
         21   -1    0    0  501  502  0.00000000000E+00  0.00000000000E+00  0.44888850594E+02  0.44888850594E+02  0.00000000000E+00 0. -1.
         21   -1    0    0  502  503 -0.00000000000E+00 -0.00000000000E+00 -0.72788252569E+03  0.72788252569E+03  0.00000000000E+00 0. -1.
         -6    2    1    2    0  503  0.36594779711E+02 -0.95725305884E+01 -0.42821302794E+03  0.46344322697E+03  0.17315431294E+03 0.  0.
        -24    2    3    3    0    0  0.43401846785E+02 -0.49925744610E+02 -0.39955041237E+03  0.41326002685E+03  0.82261883539E+02 0.  0.
          6    2    1    2  501    0 -0.36594779711E+02  0.95725305884E+01 -0.25478064716E+03  0.30932814931E+03  0.17128897964E+03 0.  0.
         24    2    5    5    0    0 -0.95320795663E+02 -0.10369970657E+01 -0.15948683618E+03  0.19679234417E+03  0.64838617827E+02 0.  0.
          5    1    5    5  501    0  0.58726015953E+02  0.10609527654E+02 -0.95293810982E+02  0.11253580514E+03  0.47000000000E+01 0. -1.
        -13    1    6    6    0    0 -0.25144687397E+02  0.27894917842E+02 -0.37185892791E+02  0.52850471789E+02  0.00000000000E+00 0.  1.
         14    1    6    6    0    0 -0.70176108266E+02 -0.28931914907E+02 -0.12230094339E+03  0.14394187239E+03  0.00000000000E+00 0. -1.
         -5    1    3    3    0  503 -0.68070670749E+01  0.40353214021E+02 -0.28662615562E+02  0.50183200126E+02  0.47000000000E+01 0.  1.
         13    1    4    4    0    0  0.39539267542E+02  0.13470415200E+02 -0.14408812787E+03  0.15002064644E+03  0.00000000000E+00 0. -1.
        -14    1    4    4    0    0  0.38625792431E+01 -0.63396159809E+02 -0.25546228450E+03  0.26323938041E+03  0.00000000000E+00 0.  1.
</event>
<event>
12    1  0.8500177E-002  0.2163147E+03  0.7818608E-02  0.1137260E+00
         21   -1    0    0  503  502  0.00000000000E+00  0.00000000000E+00  0.96506186107E+02  0.96506186107E+02  0.00000000000E+00 0. -1.
         21   -1    0    0  501  503 -0.00000000000E+00 -0.00000000000E+00 -0.67889885155E+03  0.67889885155E+03  0.00000000000E+00 0.  1.
          6    2    1    2  501    0 -0.90508947219E+02 -0.95222951546E+02 -0.78746113309E+02  0.22727010522E+03  0.16790315761E+03 0.  0.
         24    2    3    3    0    0  0.13820358907E+02 -0.29139118084E+02 -0.51766194549E+02  0.10077234564E+03  0.80219924111E+02 0.  0.
         -6    2    1    2    0  502  0.90508947219E+02  0.95222951546E+02 -0.50364655214E+03  0.54813493244E+03  0.17185102461E+03 0.  0.
        -24    2    5    5    0    0  0.27174315771E+02 -0.16538779784E+02 -0.23692506192E+03  0.25205318111E+03  0.79908362933E+02 0.  0.
          5    1    3    3  501    0 -0.10432930613E+03 -0.66083833462E+02 -0.26979918759E+02  0.12649775958E+03  0.47000000000E+01 0. -1.
        -11    1    4    4    0    0 -0.46444069332E+01 -0.53984478202E+02 -0.41181071164E+02  0.68057145287E+02  0.00000000000E+00 0.  1.
         12    1    4    4    0    0  0.18464765840E+02  0.24845360118E+02 -0.10585123386E+02  0.32715200351E+02  0.00000000000E+00 0. -1.
         -5    1    5    5    0  502  0.63334631448E+02  0.11176173133E+03 -0.26672149022E+03  0.29608175134E+03  0.47000000000E+01 0.  1.
         11    1    6    6    0    0 -0.36339888107E+01 -0.30961734374E+02 -0.33334053870E+02  0.45639829289E+02  0.00000000000E+00 0. -1.
        -12    1    6    6    0    0  0.30808304582E+02  0.14422954590E+02 -0.20359100805E+03  0.20641335182E+03  0.00000000000E+00 0.  1.
</event>
<event>
12    1  0.8500177E-002  0.1723091E+03  0.7818608E-02  0.1175869E+00
         21   -1    0    0  501  502  0.00000000000E+00  0.00000000000E+00  0.17203027033E+03  0.17203027033E+03  0.00000000000E+00 0. -1.
         21   -1    0    0  502  503 -0.00000000000E+00 -0.00000000000E+00 -0.89093312033E+03  0.89093312033E+03  0.00000000000E+00 0. -1.
         -6    2    1    2    0  503 -0.10570240461E+02 -0.12465208935E+02 -0.83689222748E+03  0.85412873569E+03  0.16994171143E+03 0.  0.
        -24    2    3    3    0    0 -0.62049605516E+02  0.25237176965E+01 -0.69661090375E+03  0.70387650529E+03  0.79491262356E+02 0.  0.
          6    2    1    2  501    0  0.10570240461E+02  0.12465208935E+02  0.11798937748E+03  0.20883465498E+03  0.17153223750E+03 0.  0.
         24    2    5    5    0    0 -0.27815117508E+02 -0.24901655229E+02  0.10261172249E+02  0.88430442232E+02  0.79503951236E+02 0.  0.
          5    1    5    5  501    0  0.38385357969E+02  0.37366864164E+02  0.10772820523E+03  0.12040421275E+03  0.47000000000E+01 0. -1.
        -13    1    6    6    0    0  0.14241833107E+02 -0.38293453070E+02 -0.61986404488E+01  0.41323619175E+02  0.00000000000E+00 0.  1.
         14    1    6    6    0    0 -0.42056950615E+02  0.13391797841E+02  0.16459812698E+02  0.47106823057E+02  0.00000000000E+00 0. -1.
         -5    1    3    3    0  503  0.51479365054E+02 -0.14988926631E+02 -0.14028132374E+03  0.15025223039E+03  0.47000000000E+01 0.  1.
         11    1    4    4    0    0 -0.34049867240E+02 -0.36523699274E+02 -0.43826074229E+03  0.44109619393E+03  0.00000000000E+00 0. -1.
        -12    1    4    4    0    0 -0.27999738276E+02  0.39047416970E+02 -0.25835016146E+03  0.26278031136E+03  0.00000000000E+00 0.  1.
</event>
<event>
12    1  0.8500177E-002  0.2247440E+03  0.7818608E-02  0.1133690E+00
         21   -1    0    0  501  502  0.00000000000E+00  0.00000000000E+00  0.81936944430E+02  0.81936944430E+02  0.00000000000E+00 0.  1.
         21   -1    0    0  502  503 -0.00000000000E+00 -0.00000000000E+00 -0.63230746672E+03  0.63230746672E+03  0.00000000000E+00 0. -1.
         -6    2    1    2    0  503 -0.11455453929E+03 -0.21092102488E+02 -0.15283814433E+03  0.25758059624E+03  0.17152447621E+03 0.  0.
        -24    2    3    3    0    0 -0.13394995570E+03  0.11735080201E+02 -0.15400479578E+03  0.21914549280E+03  0.78911134526E+02 0.  0.
          6    2    1    2  501    0  0.11455453929E+03  0.21092102488E+02 -0.39753237796E+03  0.45666381490E+03  0.19220361354E+03 0.  0.
         24    2    5    5    0    0 -0.12446402535E+02 -0.29894588221E+02 -0.18008481929E+03  0.19969219658E+03  0.79986448190E+02 0.  0.
          5    1    5    5  501    0  0.12700094182E+03  0.50986690709E+02 -0.21744755867E+03  0.25697161833E+03  0.47000000000E+01 0. -1.
        -11    1    6    6    0    0 -0.22687890948E+02 -0.13612321285E+02 -0.96311344278E+01  0.28156605563E+02  0.00000000000E+00 0.  1.
         12    1    6    6    0    0  0.10241488414E+02 -0.16282266936E+02 -0.17045368486E+03  0.17153559101E+03  0.00000000000E+00 0. -1.
         -5    1    3    3    0  503  0.19395416411E+02 -0.32827182689E+02  0.11666514526E+01  0.38435103443E+02  0.47000000000E+01 0.  1.
         13    1    4    4    0    0 -0.50263083789E+02  0.83178653132E+00 -0.11632373394E+03  0.12672127106E+03  0.00000000000E+00 0. -1.
        -14    1    4    4    0    0 -0.83686871911E+02  0.10903293670E+02 -0.37681061837E+02  0.92424221740E+02  0.00000000000E+00 0.  1.
</event>
<event>
12    1  0.8500177E-002  0.1908440E+03  0.7818608E-02  0.1162168E+00
         21   -1    0    0  501  502  0.00000000000E+00  0.00000000000E+00  0.19188224166E+04  0.19188224166E+04  0.00000000000E+00 0. -1.
         21   -1    0    0  502  503 -0.00000000000E+00 -0.00000000000E+00 -0.17936826488E+02  0.17936826488E+02  0.00000000000E+00 0. -1.
         -6    2    1    2    0  503  0.28679659902E+01 -0.14861705320E+02  0.70110301629E+03  0.72189314038E+03  0.17133350859E+03 0.  0.
        -24    2    3    3    0    0  0.23129358761E+02  0.31511497022E+02  0.60476604692E+03  0.61297161083E+03  0.92001535287E+02 0.  0.
          6    2    1    2  501    0 -0.28679659902E+01  0.14861705320E+02  0.11997825738E+04  0.12148661027E+04  0.19024281207E+03 0.  0.
         24    2    5    5    0    0 -0.11142925570E+02 -0.34787132612E+01  0.11888135515E+04  0.11914726130E+04  0.78696004365E+02 0.  0.
          5    1    5    5  501    0  0.82749595800E+01  0.18340418581E+02  0.10969022347E+02  0.23393489715E+02  0.47000000000E+01 0. -1.
        -11    1    6    6    0    0  0.22501707021E+02  0.16553798062E+02  0.84065734714E+03  0.84112135293E+03  0.00000000000E+00 0.  1.
         12    1    6    6    0    0 -0.33644632592E+02 -0.20032511323E+02  0.34815620431E+03  0.35035126004E+03  0.00000000000E+00 0. -1.
         -5    1    3    3    0  503 -0.20261392771E+02 -0.46373202343E+02  0.96336969374E+02  0.10892152955E+03  0.47000000000E+01 0.  1.
         11    1    4    4    0    0  0.46530020513E+02 -0.10908140034E+02  0.38334698157E+03  0.38631455914E+03  0.00000000000E+00 0. -1.
        -12    1    4    4    0    0 -0.23400661753E+02  0.42419637057E+02  0.22141906535E+03  0.22665705169E+03  0.00000000000E+00 0.  1.
</event>
<event>
12    1  0.8500177E-002  0.2287776E+03  0.7818608E-02  0.1128472E+00
         21   -1    0    0  503  502  0.00000000000E+00  0.00000000000E+00  0.38959383160E+03  0.38959383160E+03  0.00000000000E+00 0.  1.
         21   -1    0    0  501  503 -0.00000000000E+00 -0.00000000000E+00 -0.13123073690E+03  0.13123073690E+03  0.00000000000E+00 0. -1.
          6    2    1    2  501    0 -0.30518421104E+02 -0.14878513465E+03  0.12620382494E+03  0.26127881385E+03  0.17108717900E+03 0.  0.
         24    2    3    3    0    0  0.21680547990E+02 -0.14828848587E+03  0.12193771584E+03  0.20869299141E+03  0.78895100706E+02 0.  0.
         -6    2    1    2    0  502  0.30518421104E+02  0.14878513465E+03  0.13215926976E+03  0.25954575466E+03  0.16379724008E+03 0.  0.
        -24    2    5    5    0    0  0.51300514666E+02  0.39151110215E+02  0.10237125736E+03  0.14395626374E+03  0.77967809393E+02 0.  0.
          5    1    3    3  501    0 -0.52198969095E+02 -0.49664877498E+00  0.42661091001E+01  0.52585822437E+02  0.47000000000E+01 0. -1.
        -11    1    4    4    0    0  0.19023106703E+02 -0.88473955789E+02  0.11797795731E+03  0.14868866081E+03  0.00000000000E+00 0.  1.
         12    1    4    4    0    0  0.26574412874E+01 -0.59814530086E+02  0.39597585303E+01  0.60004330604E+02  0.00000000000E+00 0. -1.
         -5    1    5    5    0  502 -0.20782093562E+02  0.10963402443E+03  0.29788012396E+02  0.11558949091E+03  0.47000000000E+01 0.  1.
         13    1    6    6    0    0  0.24286392662E+02  0.19129818820E+02 -0.51127101296E+01  0.31335581078E+02  0.00000000000E+00 0. -1.
        -14    1    6    6    0    0  0.27014122004E+02  0.20021291395E+02  0.10748396749E+03  0.11262068267E+03  0.00000000000E+00 0.  1.
</event>
<event>
12    1  0.8500177E-002  0.2900330E+03  0.7818608E-02  0.1090609E+00
         21   -1    0    0  501  502  0.00000000000E+00  0.00000000000E+00  0.11062878238E+04  0.11062878238E+04  0.00000000000E+00 0. -1.
         21   -1    0    0  502  503 -0.00000000000E+00 -0.00000000000E+00 -0.10162240808E+03  0.10162240808E+03  0.00000000000E+00 0.  1.
         -6    2    1    2    0  503  0.10854606765E+03  0.20648827956E+03  0.19467089636E+03  0.34755551524E+03  0.16875550328E+03 0.  0.
        -24    2    3    3    0    0  0.54304486172E+02  0.13011459031E+03  0.19536641126E+03  0.25375965546E+03  0.79668966738E+02 0.  0.
          6    2    1    2  501    0 -0.10854606765E+03 -0.20648827956E+03  0.80999451932E+03  0.86035471659E+03  0.17233530873E+03 0.  0.
         24    2    5    5    0    0 -0.40673149748E+01 -0.13864304125E+03  0.47768681789E+03  0.50543319773E+03  0.89663735378E+02 0.  0.
          5    1    5    5  501    0 -0.10447875268E+03 -0.67845238309E+02  0.33230770142E+03  0.35492151886E+03  0.47000000000E+01 0. -1.
        -13    1    6    6    0    0 -0.51570148077E+01 -0.13401843510E+03  0.31109601087E+03  0.33877465036E+03  0.00000000000E+00 0.  1.
         14    1    6    6    0    0  0.10896998329E+01 -0.46246061589E+01  0.16659080702E+03  0.16665854737E+03  0.00000000000E+00 0. -1.
         -5    1    3    3    0  503  0.54241581480E+02  0.76373689252E+02 -0.69551490099E+00  0.93795859783E+02  0.47000000000E+01 0.  1.
         13    1    4    4    0    0 -0.17368620547E+02  0.97165108627E+01  0.39104037600E+02  0.43877161710E+02  0.00000000000E+00 0. -1.
        -14    1    4    4    0    0  0.71673106719E+02  0.12039807945E+03  0.15626237366E+03  0.20988249375E+03  0.00000000000E+00 0.  1.
</event>
<event>
12    1  0.8500177E-002  0.4318337E+03  0.7818608E-02  0.1033284E+00
         21   -1    0    0  503  502  0.00000000000E+00  0.00000000000E+00  0.33746591300E+03  0.33746591300E+03  0.00000000000E+00 0.  1.
         21   -1    0    0  501  503 -0.00000000000E+00 -0.00000000000E+00 -0.81179496702E+03  0.81179496702E+03  0.00000000000E+00 0. -1.
          6    2    1    2  501    0 -0.35025780900E+03  0.18418215737E+03 -0.56189390297E+03  0.70866432782E+03  0.17284898459E+03 0.  0.
         24    2    3    3    0    0 -0.17689428716E+03  0.10055659738E+03 -0.40530927347E+03  0.46049305394E+03  0.79843769027E+02 0.  0.
         -6    2    1    2    0  502  0.35025780900E+03 -0.18418215737E+03  0.87564848945E+02  0.44059655220E+03  0.17278344590E+03 0.  0.
        -24    2    5    5    0    0  0.10093720753E+03 -0.72878619865E+02 -0.18226104293E+02  0.14774325178E+03  0.77435550436E+02 0.  0.
          5    1    3    3  501    0 -0.17336352184E+03  0.83625559989E+02 -0.15658462950E+03  0.24817127389E+03  0.47000000000E+01 0. -1.
        -11    1    4    4    0    0 -0.29359476583E+02 -0.63915638017E+01 -0.26204224465E+02  0.39868437803E+02  0.00000000000E+00 0.  1.
         12    1    4    4    0    0 -0.14753481057E+03  0.10694816118E+03 -0.37910504901E+03  0.42062461613E+03  0.00000000000E+00 0. -1.
         -5    1    5    5    0  502  0.24932060147E+03 -0.11130353751E+03  0.10579095324E+03  0.29285330042E+03  0.47000000000E+01 0.  1.
         11    1    6    6    0    0  0.12205186971E+02 -0.51826748863E+02  0.54559941584E+01  0.53523325372E+02  0.00000000000E+00 0. -1.
        -12    1    6    6    0    0  0.88732020557E+02 -0.21051871003E+02 -0.23682098452E+02  0.94219926406E+02  0.00000000000E+00 0.  1.
</event>
<event>
12    1  0.8500177E-002  0.1963225E+03  0.7818608E-02  0.1153422E+00
         21   -1    0    0  503  502  0.00000000000E+00  0.00000000000E+00  0.65508701516E+03  0.65508701516E+03  0.00000000000E+00 0. -1.
         21   -1    0    0  501  503 -0.00000000000E+00 -0.00000000000E+00 -0.60267063589E+02  0.60267063589E+02  0.00000000000E+00 0. -1.
          6    2    1    2  501    0  0.61469357442E+02 -0.67697768026E+02  0.23127862517E+03  0.30336828387E+03  0.17372692221E+03 0.  0.
         24    2    3    3    0    0  0.63386106958E+02 -0.96969922241E+02  0.11296144002E+03  0.18137820541E+03  0.81956098571E+02 0.  0.
         -6    2    1    2    0  502 -0.61469357442E+02  0.67697768026E+02  0.36354132640E+03  0.41198579488E+03  0.17090503058E+03 0.  0.
        -24    2    5    5    0    0 -0.32145653173E+01  0.97373510463E+02  0.21793608260E+03  0.25230721924E+03  0.81675350081E+02 0.  0.
          5    1    3    3  501    0 -0.19167495157E+01  0.29272154215E+02  0.11831718515E+03  0.12199007846E+03  0.47000000000E+01 0. -1.
        -13    1    4    4    0    0  0.17662202329E+02 -0.37245507949E+01  0.64122834190E+02  0.66615039850E+02  0.00000000000E+00 0.  1.
         14    1    4    4    0    0  0.45723904629E+02 -0.93245371446E+02  0.48838605828E+02  0.11476316556E+03  0.00000000000E+00 0. -1.
         -5    1    5    5    0  502 -0.58254792125E+02 -0.29675742437E+02  0.14560524380E+03  0.15967857564E+03  0.47000000000E+01 0.  1.
         13    1    6    6    0    0 -0.28791235603E+02  0.64490674223E+02  0.73287855081E+02  0.10177962474E+03  0.00000000000E+00 0. -1.
        -14    1    6    6    0    0  0.25576670285E+02  0.32882836240E+02  0.14464822752E+03  0.15052759450E+03  0.00000000000E+00 0.  1.
</event>
<event>
12    1  0.8500177E-002  0.2339533E+03  0.7818608E-02  0.1124493E+00
         21   -1    0    0  503  502  0.00000000000E+00  0.00000000000E+00  0.35897192185E+03  0.35897192185E+03  0.00000000000E+00 0. -1.
         21   -1    0    0  501  503 -0.00000000000E+00 -0.00000000000E+00 -0.41998678310E+03  0.41998678310E+03  0.00000000000E+00 0.  1.
          6    2    1    2  501    0  0.10040817993E+03  0.12200499498E+03 -0.34257657620E+03  0.41288336043E+03  0.16777049014E+03 0.  0.
         24    2    3    3    0    0  0.53451748101E+02  0.12109902081E+03 -0.14722354790E+03  0.21190917565E+03  0.75555697697E+02 0.  0.
         -6    2    1    2    0  502 -0.10040817993E+03 -0.12200499498E+03  0.28156171496E+03  0.36607534451E+03  0.17253155402E+03 0.  0.
        -24    2    5    5    0    0 -0.11417312461E+03 -0.99837944161E+02  0.28794904751E+03  0.33880375011E+03  0.94181790434E+02 0.  0.
          5    1    3    3  501    0  0.46956431833E+02  0.90597417487E+00 -0.19535302831E+03  0.20097418478E+03  0.47000000000E+01 0. -1.
        -11    1    4    4    0    0  0.60510777179E+00  0.76932115543E+02 -0.46517719813E+02  0.89904476051E+02  0.00000000000E+00 0.  1.
         12    1    4    4    0    0  0.52846640329E+02  0.44166905266E+02 -0.10070582809E+03  0.12200469960E+03  0.00000000000E+00 0. -1.
         -5    1    5    5    0  502  0.13764944676E+02 -0.22167050824E+02 -0.63873325524E+01  0.27271594403E+02  0.47000000000E+01 0.  1.
         13    1    6    6    0    0 -0.29635143669E+02 -0.73120370222E+02  0.19497488410E+03  0.21033315410E+03  0.00000000000E+00 0. -1.
        -14    1    6    6    0    0 -0.84537980940E+02 -0.26717573938E+02  0.92974163409E+02  0.12847059601E+03  0.00000000000E+00 0.  1.
</event>
<event>
12    1  0.8500177E-002  0.1732545E+03  0.7818608E-02  0.1174605E+00
         21   -1    0    0  503  502  0.00000000000E+00  0.00000000000E+00  0.33884982525E+03  0.33884982525E+03  0.00000000000E+00 0.  1.
         21   -1    0    0  501  503 -0.00000000000E+00 -0.00000000000E+00 -0.40620448867E+03  0.40620448867E+03  0.00000000000E+00 0.  1.
          6    2    1    2  501    0  0.13446772686E+02 -0.94695822663E+01 -0.36319335435E+03  0.40221665037E+03  0.17204165921E+03 0.  0.
         24    2    3    3    0    0 -0.20312179399E+02 -0.49054104251E+01 -0.75147469787E+02  0.11212525076E+03  0.80549872502E+02 0.  0.
         -6    2    1    2    0  502 -0.13446772686E+02  0.94695822663E+01  0.29583869093E+03  0.34283766355E+03  0.17247215375E+03 0.  0.
        -24    2    5    5    0    0 -0.28782239809E+02  0.30743070508E+02  0.68889615563E+02  0.11433009111E+03  0.80944653245E+02 0.  0.
          5    1    3    3  501    0  0.33758952085E+02 -0.45641718412E+01 -0.28804588456E+03  0.29009139960E+03  0.47000000000E+01 0. -1.
        -11    1    4    4    0    0  0.24014888965E+02  0.18556124457E+02 -0.42717219163E+02  0.52400433775E+02  0.00000000000E+00 0.  1.
         12    1    4    4    0    0 -0.44327068363E+02 -0.23461534882E+02 -0.32430250624E+02  0.59724816988E+02  0.00000000000E+00 0. -1.
         -5    1    5    5    0  502  0.15335467123E+02 -0.21273488242E+02  0.22694907537E+03  0.22850757244E+03  0.47000000000E+01 0.  1.
         13    1    6    6    0    0  0.26899172036E+02  0.11023731518E+02  0.95431349119E+01  0.30596724282E+02  0.00000000000E+00 0. -1.
        -14    1    6    6    0    0 -0.55681411846E+02  0.19719338990E+02  0.59346480651E+02  0.83733366831E+02  0.00000000000E+00 0.  1.
</event>
<event>
12    1  0.8500177E-002  0.2118924E+03  0.7818608E-02  0.1140096E+00
         21   -1    0    0  503  502  0.00000000000E+00  0.00000000000E+00  0.12759695562E+03  0.12759695562E+03  0.00000000000E+00 0.  1.
         21   -1    0    0  501  503 -0.00000000000E+00 -0.00000000000E+00 -0.37002493919E+03  0.37002493919E+03  0.00000000000E+00 0. -1.
          6    2    1    2  501    0  0.24761460797E+02 -0.12083744385E+03 -0.65879313599E+02  0.22189743945E+03  0.17228921004E+03 0.  0.
         24    2    3    3    0    0  0.43865563094E+02 -0.13637575086E+03 -0.12203278157E+02  0.16265545695E+03  0.76061452970E+02 0.  0.
         -6    2    1    2    0  502 -0.24761460797E+02  0.12083744385E+03 -0.17654866997E+03  0.27572445537E+03  0.17216191403E+03 0.  0.
        -24    2    5    5    0    0 -0.76913839998E+02  0.94250217137E+02 -0.92071548739E+02  0.17283993130E+03  0.81225793633E+02 0.  0.
          5    1    3    3  501    0 -0.19104102298E+02  0.15538307015E+02 -0.53676035442E+02  0.59241982498E+02  0.47000000000E+01 0. -1.
        -11    1    4    4    0    0  0.57060338007E+01  0.77251719397E+01  0.76406388549E+01  0.12272590001E+02  0.00000000000E+00 0.  1.
         12    1    4    4    0    0  0.38159529293E+02 -0.14410092280E+03 -0.19843917012E+02  0.15038286695E+03  0.00000000000E+00 0. -1.
         -5    1    5    5    0  502  0.52152379201E+02  0.26587226711E+02 -0.84477121231E+02  0.10288452406E+03  0.47000000000E+01 0.  1.
         11    1    6    6    0    0 -0.43988045546E+02  0.76359605339E+02 -0.18164571398E+02  0.89976047549E+02  0.00000000000E+00 0. -1.
        -12    1    6    6    0    0 -0.32925794452E+02  0.17890611798E+02 -0.73906977340E+02  0.82863883751E+02  0.00000000000E+00 0.  1.
</event>
<event>
12    1  0.8500177E-002  0.2238794E+03  0.7818608E-02  0.1131132E+00
         21   -1    0    0  503  502  0.00000000000E+00  0.00000000000E+00  0.94801177772E+03  0.94801177772E+03  0.00000000000E+00 0. -1.
         21   -1    0    0  501  503 -0.00000000000E+00 -0.00000000000E+00 -0.13957976380E+03  0.13957976380E+03  0.00000000000E+00 0. -1.
          6    2    1    2  501    0  0.11827090728E+03 -0.79594386019E+02 -0.24938904751E+02  0.22467262712E+03  0.17185041930E+03 0.  0.
         24    2    3    3    0    0  0.51955653440E+02 -0.48350141095E+02  0.52133159246E+02  0.11820146304E+03  0.78845377179E+02 0.  0.
         -6    2    1    2    0  502 -0.11827090728E+03  0.79594386019E+02  0.83337091868E+03  0.86291891440E+03  0.17262297338E+03 0.  0.
        -24    2    5    5    0    0 -0.12865920374E+03  0.87428916764E+01  0.59641995876E+03  0.61533923357E+03  0.79347188372E+02 0.  0.
          5    1    3    3  501    0  0.66315253840E+02 -0.31244244924E+02 -0.77072063996E+02  0.10647116408E+03  0.47000000000E+01 0. -1.
        -11    1    4    4    0    0  0.19277413204E+01  0.18164866361E+02  0.24386644091E+02  0.30469443161E+02  0.00000000000E+00 0.  1.
         12    1    4    4    0    0  0.50027912120E+02 -0.66515007456E+02  0.27746515155E+02  0.87732019874E+02  0.00000000000E+00 0. -1.
         -5    1    5    5    0  502  0.10388296458E+02  0.70851494343E+02  0.23695095992E+03  0.24757968083E+03  0.47000000000E+01 0.  1.
         13    1    6    6    0    0 -0.89529473263E+02  0.40978461024E+02  0.34071327560E+03  0.35465518045E+03  0.00000000000E+00 0. -1.
        -14    1    6    6    0    0 -0.39129730475E+02 -0.32235569347E+02  0.25570668316E+03  0.26068405312E+03  0.00000000000E+00 0.  1.
</event>
<event>
12    1  0.8500177E-002  0.2826671E+03  0.7818608E-02  0.1094392E+00
         21   -1    0    0  503  502  0.00000000000E+00  0.00000000000E+00  0.18472892058E+03  0.18472892058E+03  0.00000000000E+00 0. -1.
         21   -1    0    0  501  503 -0.00000000000E+00 -0.00000000000E+00 -0.62389120348E+03  0.62389120348E+03  0.00000000000E+00 0.  1.
          6    2    1    2  501    0 -0.20608564859E+03  0.90362793542E+02 -0.44419222867E+03  0.52590824639E+03  0.16922180298E+03 0.  0.
         24    2    3    3    0    0 -0.10209594612E+03  0.83310091329E+02 -0.36134189252E+03  0.39267961948E+03  0.79152806221E+02 0.  0.
         -6    2    1    2    0  502  0.20608564859E+03 -0.90362793542E+02  0.50299457742E+01  0.28271187767E+03  0.17106716928E+03 0.  0.
        -24    2    5    5    0    0  0.20879258587E+03 -0.77865486625E+02  0.44576943738E+02  0.24088407307E+03  0.79879001148E+02 0.  0.
          5    1    3    3  501    0 -0.10398970248E+03  0.70527022122E+01 -0.82850336146E+02  0.13322862692E+03  0.47000000000E+01 0. -1.
        -13    1    4    4    0    0 -0.92623580434E+02  0.27150968664E+02 -0.23780953355E+03  0.25665088545E+03  0.00000000000E+00 0.  1.
         14    1    4    4    0    0 -0.94723656812E+01  0.56159122665E+02 -0.12353235897E+03  0.13602873403E+03  0.00000000000E+00 0. -1.
         -5    1    5    5    0  502 -0.27069372756E+01 -0.12497306917E+02 -0.39546997963E+02  0.41827804598E+02  0.47000000000E+01 0.  1.
         11    1    6    6    0    0  0.13046836963E+02 -0.24393353640E+02  0.24540076817E+02  0.36979332426E+02  0.00000000000E+00 0. -1.
        -12    1    6    6    0    0  0.19574574891E+03 -0.53472132986E+02  0.20036866921E+02  0.20390474064E+03  0.00000000000E+00 0.  1.
</event>
<event>
12    1  0.8500177E-002  0.2197366E+03  0.7818608E-02  0.1134209E+00
         21   -1    0    0  501  502  0.00000000000E+00  0.00000000000E+00  0.28559341515E+03  0.28559341515E+03  0.00000000000E+00 0.  1.
         21   -1    0    0  502  503 -0.00000000000E+00 -0.00000000000E+00 -0.17338499267E+03  0.17338499267E+03  0.00000000000E+00 0. -1.
         -6    2    1    2    0  503 -0.44240750672E+02  0.12840389015E+03  0.17798510978E+02  0.22045624727E+03  0.17274075066E+03 0.  0.
        -24    2    3    3    0    0 -0.62074776002E+02  0.15506629291E+03  0.26476225696E+02  0.18689542318E+03  0.79561772640E+02 0.  0.
          6    2    1    2  501    0  0.44240750672E+02 -0.12840389015E+03  0.94409911499E+02  0.23852216055E+03  0.17185687841E+03 0.  0.
         24    2    5    5    0    0  0.26139426798E+02 -0.16079306259E+03  0.83648567006E+02  0.19960413192E+03  0.79416925834E+02 0.  0.
          5    1    5    5  501    0  0.18101323874E+02  0.32389172435E+02  0.10761344493E+02  0.38918028628E+02  0.47000000000E+01 0. -1.
        -11    1    6    6    0    0  0.39252293360E+02 -0.29064876435E+02  0.21605821833E+02  0.53407126053E+02  0.00000000000E+00 0.  1.
         12    1    6    6    0    0 -0.13112866562E+02 -0.13172818615E+03  0.62042745174E+02  0.14619700587E+03  0.00000000000E+00 0. -1.
         -5    1    3    3    0  503  0.17834025329E+02 -0.26662402761E+02 -0.86777147181E+01  0.33560824084E+02  0.47000000000E+01 0.  1.
         11    1    4    4    0    0 -0.67740139515E+02  0.10233120318E+03  0.45006042132E+02  0.13071321844E+03  0.00000000000E+00 0. -1.
        -12    1    4    4    0    0  0.56653635127E+01  0.52735089731E+02 -0.18529816436E+02  0.56182204743E+02  0.00000000000E+00 0.  1.
</event>
<event>
12    1  0.8500177E-002  0.2219794E+03  0.7818608E-02  0.1133536E+00
         21   -1    0    0  501  502  0.00000000000E+00  0.00000000000E+00  0.54426443359E+02  0.54426443359E+02  0.00000000000E+00 0. -1.
         21   -1    0    0  502  503 -0.00000000000E+00 -0.00000000000E+00 -0.10213240985E+04  0.10213240985E+04  0.00000000000E+00 0. -1.
         -6    2    1    2    0  503  0.13523940362E+03 -0.31995819712E+02 -0.67704144221E+03  0.71065950438E+03  0.16534324276E+03 0.  0.
        -24    2    3    3    0    0  0.74751459865E+02 -0.69898117364E+02 -0.54937519491E+03  0.56431697397E+03  0.78530342970E+02 0.  0.
          6    2    1    2  501    0 -0.13523940362E+03  0.31995819712E+02 -0.28985621292E+03  0.36509103747E+03  0.17309365297E+03 0.  0.
         24    2    5    5    0    0 -0.11317113284E+03  0.48537369744E+02 -0.30137248830E+03  0.33483635103E+03  0.78271474361E+02 0.  0.
          5    1    5    5  501    0 -0.22068270781E+02 -0.16541550032E+02  0.11516275378E+02  0.30254686436E+02  0.47000000000E+01 0. -1.
        -13    1    6    6    0    0 -0.55926570274E+02  0.13747126581E+02 -0.22937879604E+03  0.23649819624E+03  0.00000000000E+00 0.  1.
         14    1    6    6    0    0 -0.57244562566E+02  0.34790243163E+02 -0.71993692257E+02  0.98338154790E+02  0.00000000000E+00 0. -1.
         -5    1    3    3    0  503  0.60487943756E+02  0.37902297652E+02 -0.12766624730E+03  0.14634253041E+03  0.47000000000E+01 0.  1.
         13    1    4    4    0    0  0.83768034714E+02 -0.73467293959E+02 -0.41834652538E+03  0.43292995071E+03  0.00000000000E+00 0. -1.
        -14    1    4    4    0    0 -0.90165748495E+01  0.35691765946E+01 -0.13102866952E+03  0.13138702326E+03  0.00000000000E+00 0.  1.
</event>
<event>
12    1  0.8500177E-002  0.1877511E+03  0.7818608E-02  0.1160825E+00
         21   -1    0    0  501  502  0.00000000000E+00  0.00000000000E+00  0.16349909829E+03  0.16349909829E+03  0.00000000000E+00 0. -1.
         21   -1    0    0  502  503 -0.00000000000E+00 -0.00000000000E+00 -0.25410252647E+03  0.25410252647E+03  0.00000000000E+00 0. -1.
         -6    2    1    2    0  503  0.41988839138E+02 -0.59741928944E+02 -0.12838387417E+03  0.22744863323E+03  0.17296907506E+03 0.  0.
        -24    2    3    3    0    0  0.86317134485E+02 -0.58567459198E+02 -0.55803495365E+02  0.14226425359E+03  0.79020837584E+02 0.  0.
          6    2    1    2  501    0 -0.41988839138E+02  0.59741928944E+02  0.37780445984E+02  0.19015299153E+03  0.17146030854E+03 0.  0.
         24    2    5    5    0    0  0.26194342388E+02  0.40703565784E+02  0.47133772386E+02  0.11859196702E+03  0.97465574953E+02 0.  0.
          5    1    5    5  501    0 -0.68183181526E+02  0.19038363160E+02 -0.93533264010E+01  0.71561024515E+02  0.47000000000E+01 0. -1.
        -13    1    6    6    0    0  0.23651303711E+02  0.44834483400E+02 -0.17613442859E+02  0.53663287622E+02  0.00000000000E+00 0.  1.
         14    1    6    6    0    0  0.25430386774E+01 -0.41309176169E+01  0.64747215244E+02  0.64928679395E+02  0.00000000000E+00 0. -1.
         -5    1    3    3    0  503 -0.44328295348E+02 -0.11744697451E+01 -0.72580378802E+02  0.85184379640E+02  0.47000000000E+01 0.  1.
         13    1    4    4    0    0  0.94977641037E+02 -0.50060758642E+02 -0.66326754649E+02  0.12619853500E+03  0.00000000000E+00 0. -1.
        -14    1    4    4    0    0 -0.86605065512E+01 -0.85067005567E+01  0.10523259284E+02  0.16065718597E+02  0.00000000000E+00 0.  1.
</event>
<event>
12    1  0.8500177E-002  0.2897033E+03  0.7818608E-02  0.1090766E+00
         21   -1    0    0  501  502  0.00000000000E+00  0.00000000000E+00  0.66305957947E+03  0.66305957947E+03  0.00000000000E+00 0. -1.
         21   -1    0    0  502  503 -0.00000000000E+00 -0.00000000000E+00 -0.17740263351E+03  0.17740263351E+03  0.00000000000E+00 0.  1.
         -6    2    1    2    0  503  0.21195440483E+03 -0.95283816468E+02  0.16576587321E+02  0.29017720581E+03  0.17298656629E+03 0.  0.
        -24    2    3    3    0    0  0.10109572553E+03  0.61620504828E+01  0.45830458842E+02  0.13701458081E+03  0.80088999314E+02 0.  0.
          6    2    1    2  501    0 -0.21195440483E+03  0.95283816468E+02  0.46908035864E+03  0.55028500716E+03  0.16962762404E+03 0.  0.
         24    2    5    5    0    0 -0.17093829148E+03 -0.57073595842E+00  0.29755611130E+03  0.34950384719E+03  0.66280273033E+02 0.  0.
          5    1    5    5  501    0 -0.41016113358E+02  0.95854552426E+02  0.17152424734E+03  0.20078115998E+03  0.47000000000E+01 0. -1.
        -13    1    6    6    0    0 -0.95322383237E+02 -0.68655853740E+01  0.10216572212E+03  0.13989756175E+03  0.00000000000E+00 0.  1.
         14    1    6    6    0    0 -0.75615908240E+02  0.62948494156E+01  0.19539038919E+03  0.20960628544E+03  0.00000000000E+00 0. -1.
         -5    1    3    3    0  503  0.11085867931E+03 -0.10144586695E+03 -0.29253871521E+02  0.15316262500E+03  0.47000000000E+01 0.  1.
         11    1    4    4    0    0  0.82981552545E+02  0.33236053873E+02  0.12241765017E+02  0.90224354531E+02  0.00000000000E+00 0. -1.
        -12    1    4    4    0    0  0.18114172982E+02 -0.27074003390E+02  0.33588693826E+02  0.46790226280E+02  0.00000000000E+00 0.  1.
</event>
<event>
12    1  0.8500177E-002  0.2052384E+03  0.7818608E-02  0.1145525E+00
         21   -1    0    0  501  502  0.00000000000E+00  0.00000000000E+00  0.29775038915E+03  0.29775038915E+03  0.00000000000E+00 0.  1.
         21   -1    0    0  502  503 -0.00000000000E+00 -0.00000000000E+00 -0.16928309487E+03  0.16928309487E+03  0.00000000000E+00 0. -1.
         -6    2    1    2    0  503  0.38673995381E+02  0.10313150134E+03 -0.31086001385E+02  0.20757923170E+03  0.17317913692E+03 0.  0.
        -24    2    3    3    0    0  0.57336740556E+02  0.13425062660E+03 -0.14198774480E+02  0.16728076465E+03  0.80439520532E+02 0.  0.
          6    2    1    2  501    0 -0.38673995381E+02 -0.10313150134E+03  0.15955329566E+03  0.25945425232E+03  0.17241656070E+03 0.  0.
         24    2    5    5    0    0 -0.32982505036E+02 -0.12205143277E+03  0.17733005205E+03  0.23246425537E+03  0.81297507880E+02 0.  0.
          5    1    5    5  501    0 -0.56914903449E+01  0.18919931431E+02 -0.17776756387E+02  0.26989996949E+02  0.47000000000E+01 0. -1.
        -11    1    6    6    0    0 -0.55889871022E+02 -0.98324482021E+02  0.11142089917E+03  0.15876397016E+03  0.00000000000E+00 0.  1.
         12    1    6    6    0    0  0.22907365985E+02 -0.23726950746E+02  0.65909152877E+02  0.73700285217E+02  0.00000000000E+00 0. -1.
         -5    1    3    3    0  503 -0.18662745175E+02 -0.31119125264E+02 -0.16887226906E+02  0.40298467058E+02  0.47000000000E+01 0.  1.
         11    1    4    4    0    0  0.89523089813E+01  0.11314722678E+03 -0.15003662845E+02  0.11448820316E+03  0.00000000000E+00 0. -1.
        -12    1    4    4    0    0  0.48384431575E+02  0.21103399820E+02  0.80488836498E+00  0.52792561484E+02  0.00000000000E+00 0.  1.
</event>
<event>
12    1  0.8500177E-002  0.3250322E+03  0.7818608E-02  0.1073387E+00
         21   -1    0    0  501  502  0.00000000000E+00  0.00000000000E+00  0.15338733969E+03  0.15338733969E+03  0.00000000000E+00 0. -1.
         21   -1    0    0  502  503 -0.00000000000E+00 -0.00000000000E+00 -0.70621034037E+03  0.70621034037E+03  0.00000000000E+00 0.  1.
         -6    2    1    2    0  503  0.26423251203E+03 -0.78593238918E+02 -0.34496777329E+03  0.47378721245E+03  0.17168529482E+03 0.  0.
        -24    2    3    3    0    0  0.28091397636E+03 -0.75975624159E+02 -0.30041883920E+03  0.42591424839E+03  0.80414615916E+02 0.  0.
          6    2    1    2  501    0 -0.26423251203E+03  0.78593238918E+02 -0.20785522739E+03  0.38581046762E+03  0.17219234523E+03 0.  0.
         24    2    5    5    0    0 -0.84564385177E+02 -0.20989337991E+02 -0.10157511164E+03  0.15447763719E+03  0.77163135877E+02 0.  0.
          5    1    5    5  501    0 -0.17966812685E+03  0.99582576909E+02 -0.10628011576E+03  0.23133283043E+03  0.47000000000E+01 0. -1.
        -11    1    6    6    0    0 -0.79595671218E+02 -0.30414477553E+02 -0.43949444129E+02  0.95875257291E+02  0.00000000000E+00 0.  1.
         12    1    6    6    0    0 -0.49687139595E+01  0.94251395620E+01 -0.57625667507E+02  0.58602379899E+02  0.00000000000E+00 0. -1.
         -5    1    3    3    0  503 -0.16681464337E+02 -0.26176147590E+01 -0.44548934086E+02  0.47872964057E+02  0.47000000000E+01 0.  1.
         13    1    4    4    0    0  0.94433862050E+02 -0.61769163247E+02 -0.89532494661E+02  0.14404600456E+03  0.00000000000E+00 0. -1.
        -14    1    4    4    0    0  0.18648011431E+03 -0.14206460912E+02 -0.21088634454E+03  0.28186824383E+03  0.00000000000E+00 0.  1.
</event>
<event>
12    1  0.8500177E-002  0.2151484E+03  0.7818608E-02  0.1137585E+00
         21   -1    0    0  501  502  0.00000000000E+00  0.00000000000E+00  0.10742212149E+04  0.10742212149E+04  0.00000000000E+00 0.  1.
         21   -1    0    0  502  503 -0.00000000000E+00 -0.00000000000E+00 -0.14135987570E+03  0.14135987570E+03  0.00000000000E+00 0.  1.
         -6    2    1    2    0  503 -0.13295907947E+01 -0.12780132465E+03 -0.40469141672E+02  0.21875559426E+03  0.17286211903E+03 0.  0.
        -24    2    3    3    0    0  0.21552065844E+02 -0.14445776177E+03 -0.67192940173E+02  0.17954770584E+03  0.79937168970E+02 0.  0.
          6    2    1    2  501    0  0.13295907947E+01  0.12780132465E+03  0.97333048089E+03  0.99682549637E+03  0.17307194684E+03 0.  0.
         24    2    5    5    0    0  0.53061206068E+01  0.15825179317E+03  0.71967057126E+03  0.74127025072E+03  0.80523713981E+02 0.  0.
          5    1    5    5  501    0 -0.39765298121E+01 -0.30450468515E+02  0.25365990964E+03  0.25555524565E+03  0.47000000000E+01 0. -1.
        -13    1    6    6    0    0  0.19230183594E+02  0.13752237105E+03  0.68254952627E+03  0.69653144818E+03  0.00000000000E+00 0.  1.
         14    1    6    6    0    0 -0.13924062987E+02  0.20729422115E+02  0.37121044989E+02  0.44738802536E+02  0.00000000000E+00 0. -1.
         -5    1    3    3    0  503 -0.22881656638E+02  0.16656437122E+02  0.26723798501E+02  0.39207888421E+02  0.47000000000E+01 0.  1.
         11    1    4    4    0    0  0.28626941337E+02 -0.13552892949E+02  0.11760438969E+01  0.31694885342E+02  0.00000000000E+00 0. -1.
        -12    1    4    4    0    0 -0.70748754931E+01 -0.13090486882E+03 -0.68368984070E+02  0.14785282049E+03  0.00000000000E+00 0.  1.
</event>
<event>
12    1  0.8500177E-002  0.2938558E+03  0.7818608E-02  0.1088473E+00
         21   -1    0    0  503  502  0.00000000000E+00  0.00000000000E+00  0.42845811075E+03  0.42845811075E+03  0.00000000000E+00 0. -1.
         21   -1    0    0  501  503 -0.00000000000E+00 -0.00000000000E+00 -0.21890662982E+03  0.21890662982E+03  0.00000000000E+00 0.  1.
          6    2    1    2  501    0  0.14120997405E+03  0.19136106240E+03  0.19746203013E+03  0.35326032947E+03  0.17100378375E+03 0.  0.
         24    2    3    3    0    0  0.96926722626E+02  0.34882093687E+02  0.92997622899E+02  0.15991717240E+03  0.79456869707E+02 0.  0.
         -6    2    1    2    0  502 -0.14120997405E+03 -0.19136106240E+03  0.12089450798E+02  0.29410441111E+03  0.17260340912E+03 0.  0.
        -24    2    5    5    0    0 -0.85522738328E+02 -0.18043220706E+03  0.56378851723E+02  0.22196462226E+03  0.78865699101E+02 0.  0.
          5    1    3    3  501    0  0.44283251424E+02  0.15647896871E+03  0.10446440723E+03  0.19334315707E+03  0.47000000000E+01 0. -1.
        -11    1    4    4    0    0  0.31145888869E+02  0.16569040000E+02  0.83920181811E+02  0.91034039761E+02  0.00000000000E+00 0.  1.
         12    1    4    4    0    0  0.65780833757E+02  0.18313053687E+02  0.90774410878E+01  0.68883132636E+02  0.00000000000E+00 0. -1.
         -5    1    5    5    0  502 -0.55687235722E+02 -0.10928855337E+02 -0.44289400926E+02  0.72139788853E+02  0.47000000000E+01 0.  1.
         13    1    6    6    0    0 -0.29929333680E+02 -0.55633890342E+02  0.57376384194E+02  0.85340167755E+02  0.00000000000E+00 0. -1.
        -14    1    6    6    0    0 -0.55593404647E+02 -0.12479831672E+03 -0.99753247107E+00  0.13662445450E+03  0.00000000000E+00 0.  1.
</event>
<event>
12    1  0.8500177E-002  0.2519459E+03  0.7818608E-02  0.1112324E+00
         21   -1    0    0  503  502  0.00000000000E+00  0.00000000000E+00  0.83900762628E+03  0.83900762628E+03  0.00000000000E+00 0.  1.
         21   -1    0    0  501  503 -0.00000000000E+00 -0.00000000000E+00 -0.16999692464E+03  0.16999692464E+03  0.00000000000E+00 0. -1.
          6    2    1    2  501    0 -0.15594688042E+03 -0.94920258480E+02 -0.42702652960E+02  0.25401272620E+03  0.17137579619E+03 0.  0.
         24    2    3    3    0    0 -0.16328302347E+03 -0.50414139807E+02 -0.70718315445E+02  0.20070624499E+03  0.77967848470E+02 0.  0.
         -6    2    1    2    0  502  0.15594688042E+03  0.94920258480E+02  0.71171335460E+03  0.75499182471E+03  0.17363027181E+03 0.  0.
        -24    2    5    5    0    0  0.16309780513E+03  0.62141351984E+02  0.43236502290E+03  0.47359677704E+03  0.83017784397E+02 0.  0.
          5    1    3    3  501    0  0.73361430453E+01 -0.44506118673E+02  0.28015662485E+02  0.53306481206E+02  0.47000000000E+01 0. -1.
        -11    1    4    4    0    0 -0.62876812062E+02 -0.38130693256E+02  0.59560768972E+01  0.73776135134E+02  0.00000000000E+00 0.  1.
         12    1    4    4    0    0 -0.10040621140E+03 -0.12283446550E+02 -0.76674392343E+02  0.12693010986E+03  0.00000000000E+00 0. -1.
         -5    1    5    5    0  502 -0.71509247129E+01  0.32778906496E+02  0.27934833170E+03  0.28139504768E+03  0.47000000000E+01 0.  1.
         11    1    6    6    0    0  0.25326099287E+02 -0.21917705594E+00  0.16063299673E+03  0.16261740062E+03  0.00000000000E+00 0. -1.
        -12    1    6    6    0    0  0.13777170585E+03  0.62360529039E+02  0.27173202617E+03  0.31097937642E+03  0.00000000000E+00 0.  1.
</event>
<event>
12    1  0.8500177E-002  0.2048758E+03  0.7818608E-02  0.1145827E+00
         21   -1    0    0  503  502  0.00000000000E+00  0.00000000000E+00  0.17701255594E+03  0.17701255594E+03  0.00000000000E+00 0. -1.
         21   -1    0    0  501  503 -0.00000000000E+00 -0.00000000000E+00 -0.57317085800E+03  0.57317085800E+03  0.00000000000E+00 0. -1.
          6    2    1    2  501    0 -0.11057206442E+03  0.42030670068E+01 -0.48575240143E+03  0.52719018390E+03  0.17242461338E+03 0.  0.
         24    2    3    3    0    0 -0.10951666681E+03 -0.44868684203E+02 -0.26657850251E+03  0.30253836753E+03  0.80363341726E+02 0.  0.
         -6    2    1    2    0  502  0.11057206442E+03 -0.42030670068E+01  0.89594099372E+02  0.22299323005E+03  0.17162468005E+03 0.  0.
        -24    2    5    5    0    0  0.72928721205E+02 -0.63566562579E+02  0.21053066710E+02  0.12470279789E+03  0.75817213941E+02 0.  0.
          5    1    3    3  501    0 -0.10553976140E+01  0.49071751210E+02 -0.21917389892E+03  0.22465181637E+03  0.47000000000E+01 0. -1.
        -13    1    4    4    0    0 -0.32123459580E+01 -0.29278522837E+02 -0.10057365526E+03  0.10479795417E+03  0.00000000000E+00 0.  1.
         14    1    4    4    0    0 -0.10630432085E+03 -0.15590161366E+02 -0.16600484725E+03  0.19774041335E+03  0.00000000000E+00 0. -1.
         -5    1    5    5    0  502  0.37643343218E+02  0.59363495573E+02  0.68541032661E+02  0.98290432156E+02  0.47000000000E+01 0.  1.
         13    1    6    6    0    0  0.77561883744E+02 -0.23064640055E+02  0.22240700117E+02  0.83919438586E+02  0.00000000000E+00 0. -1.
        -14    1    6    6    0    0 -0.46331625399E+01 -0.40501922524E+02 -0.11876334072E+01  0.40783359307E+02  0.00000000000E+00 0.  1.
</event>
<event>
12    1  0.8500177E-002  0.3314398E+03  0.7818608E-02  0.1070539E+00
         21   -1    0    0  503  502  0.00000000000E+00  0.00000000000E+00  0.21732891735E+03  0.21732891735E+03  0.00000000000E+00 0. -1.
         21   -1    0    0  501  503 -0.00000000000E+00 -0.00000000000E+00 -0.50858824097E+03  0.50858824097E+03  0.00000000000E+00 0.  1.
          6    2    1    2  501    0  0.51120908047E+02  0.27842336774E+03 -0.11501606105E+03  0.35082906564E+03  0.17239321349E+03 0.  0.
         24    2    3    3    0    0  0.75490785381E+02  0.10733004770E+03 -0.26056381913E+02  0.15639982505E+03  0.81014643258E+02 0.  0.
         -6    2    1    2    0  502 -0.51120908047E+02 -0.27842336774E+03 -0.17624326258E+03  0.37508809267E+03  0.17174536593E+03 0.  0.
        -24    2    5    5    0    0 -0.30082022619E+02 -0.33277716093E+02 -0.64038651875E+02  0.10462369597E+03  0.69518589966E+02 0.  0.
          5    1    3    3  501    0 -0.24369877334E+02  0.17109332004E+03 -0.88959679133E+02  0.19442924059E+03  0.47000000000E+01 0. -1.
        -13    1    4    4    0    0  0.28247000819E+02  0.58673098435E+02 -0.52460885728E+02  0.83621588520E+02  0.00000000000E+00 0.  1.
         14    1    4    4    0    0  0.47243784562E+02  0.48656949263E+02  0.26404503815E+02  0.72778236534E+02  0.00000000000E+00 0. -1.
         -5    1    5    5    0  502 -0.21038885428E+02 -0.24514565165E+03 -0.11220461070E+03  0.27046439670E+03  0.47000000000E+01 0.  1.
         11    1    6    6    0    0  0.13785372398E+01  0.12383676576E+02  0.71668772791E+01  0.14374280517E+02  0.00000000000E+00 0. -1.
        -12    1    6    6    0    0 -0.31460559859E+02 -0.45661392669E+02 -0.71205529154E+02  0.90249415451E+02  0.00000000000E+00 0.  1.
</event>
<event>
12    1  0.8500177E-002  0.1803583E+03  0.7818608E-02  0.1167689E+00
         21   -1    0    0  501  502  0.00000000000E+00  0.00000000000E+00  0.68170526022E+03  0.68170526022E+03  0.00000000000E+00 0. -1.
         21   -1    0    0  502  503 -0.00000000000E+00 -0.00000000000E+00 -0.47678027326E+02  0.47678027326E+02  0.00000000000E+00 0. -1.
         -6    2    1    2    0  503  0.13041009824E+02  0.49969218835E+02  0.34233259050E+03  0.38693760702E+03  0.17280659260E+03 0.  0.
        -24    2    3    3    0    0 -0.15985642200E+02  0.57538242855E+01  0.64321622242E+02  0.10390097316E+03  0.79809109031E+02 0.  0.
          6    2    1    2  501    0 -0.13041009824E+02 -0.49969218835E+02  0.29169464240E+03  0.34244568052E+03  0.17180305275E+03 0.  0.
         24    2    5    5    0    0 -0.30625134092E+01 -0.95407568162E+02  0.16440617578E+03  0.20684089552E+03  0.81497131085E+02 0.  0.
          5    1    5    5  501    0 -0.99784964150E+01  0.45438349327E+02  0.12728846662E+03  0.13560478500E+03  0.47000000000E+01 0. -1.
        -13    1    6    6    0    0  0.26445988456E+02 -0.72226640225E+02  0.14605300756E+03  0.16506834609E+03  0.00000000000E+00 0.  1.
         14    1    6    6    0    0 -0.29508501865E+02 -0.23180927936E+02  0.18353168218E+02  0.41772549431E+02  0.00000000000E+00 0. -1.
         -5    1    3    3    0  503  0.29026652024E+02  0.44215394550E+02  0.27801096825E+03  0.28303663387E+03  0.47000000000E+01 0.  1.
         13    1    4    4    0    0  0.91798209925E+01  0.70878156797E+01  0.75461704349E+02  0.76347724707E+02  0.00000000000E+00 0. -1.
        -14    1    4    4    0    0 -0.25165463192E+02 -0.13339913942E+01 -0.11140082107E+02  0.27553248449E+02  0.00000000000E+00 0.  1.
</event>
<event>
12    1  0.8500177E-002  0.2201906E+03  0.7818608E-02  0.1133830E+00
         21   -1    0    0  501  502  0.00000000000E+00  0.00000000000E+00  0.69996003466E+02  0.69996003466E+02  0.00000000000E+00 0. -1.
         21   -1    0    0  502  503 -0.00000000000E+00 -0.00000000000E+00 -0.11484846746E+04  0.11484846746E+04  0.00000000000E+00 0. -1.
         -6    2    1    2    0  503 -0.62408496506E+02  0.12251741171E+03 -0.92404719734E+03  0.94991953567E+03  0.17198419907E+03 0.  0.
        -24    2    3    3    0    0 -0.72469765383E+02  0.63362856018E+02 -0.82307307778E+03  0.83236804308E+03  0.78233939884E+02 0.  0.
          6    2    1    2  501    0  0.62408496506E+02 -0.12251741171E+03 -0.15444147381E+03  0.26856114241E+03  0.17136972245E+03 0.  0.
         24    2    5    5    0    0  0.58636183464E+02 -0.15589163673E+03 -0.12232001795E+03  0.22184982507E+03  0.80714024028E+02 0.  0.
          5    1    5    5  501    0  0.37723130420E+01  0.33374225025E+02 -0.32121455857E+02  0.46711317344E+02  0.47000000000E+01 0. -1.
        -13    1    6    6    0    0  0.59874638445E+02 -0.63711390588E+02 -0.86375221132E+02  0.12290155591E+03  0.00000000000E+00 0.  1.
         14    1    6    6    0    0 -0.12384549811E+01 -0.92180246146E+02 -0.35944796820E+02  0.98948269155E+02  0.00000000000E+00 0. -1.
         -5    1    3    3    0  503  0.10061268878E+02  0.59154555691E+02 -0.10097411956E+03  0.11755149259E+03  0.47000000000E+01 0.  1.
         11    1    4    4    0    0  0.16082123174E+02  0.19280017637E+02 -0.16057993893E+03  0.16253082954E+03  0.00000000000E+00 0. -1.
        -12    1    4    4    0    0 -0.88551888558E+02  0.44082838381E+02 -0.66249313885E+03  0.66983721354E+03  0.00000000000E+00 0.  1.
</event>
<event>
12    1  0.8500177E-002  0.2003568E+03  0.7818608E-02  0.1149722E+00
         21   -1    0    0  503  502  0.00000000000E+00  0.00000000000E+00  0.97580227729E+02  0.97580227729E+02  0.00000000000E+00 0.  1.
         21   -1    0    0  501  503 -0.00000000000E+00 -0.00000000000E+00 -0.99852860640E+03  0.99852860640E+03  0.00000000000E+00 0.  1.
          6    2    1    2  501    0 -0.22688639266E+02  0.99454104715E+02 -0.28611241547E+02  0.20105859880E+03  0.17088026133E+03 0.  0.
         24    2    3    3    0    0  0.25153784577E+02  0.11869378308E+03 -0.11508581900E+02  0.14652738104E+03  0.81344323213E+02 0.  0.
         -6    2    1    2    0  502  0.22688639266E+02 -0.99454104715E+02 -0.87233713712E+03  0.89505023533E+03  0.17244404793E+03 0.  0.
        -24    2    5    5    0    0  0.57432586235E+02 -0.45556666410E+02 -0.28944433197E+03  0.30862190382E+03  0.78073980226E+02 0.  0.
          5    1    3    3  501    0 -0.47842423843E+02 -0.19239678360E+02 -0.17102659647E+02  0.54531217753E+02  0.47000000000E+01 0. -1.
        -11    1    4    4    0    0 -0.17573646466E+02  0.89173548324E+02  0.75630968133E+01  0.91202824541E+02  0.00000000000E+00 0.  1.
         12    1    4    4    0    0  0.42727431043E+02  0.29520234751E+02 -0.19071678713E+02  0.55324556503E+02  0.00000000000E+00 0. -1.
         -5    1    5    5    0  502 -0.34743946969E+02 -0.53897438305E+02 -0.58289280515E+03  0.58642833151E+03  0.47000000000E+01 0.  1.
         11    1    6    6    0    0  0.35014755230E+02 -0.48381560597E+02 -0.90697920890E+02  0.10859521787E+03  0.00000000000E+00 0. -1.
        -12    1    6    6    0    0  0.22417831005E+02  0.28248941872E+01 -0.19874641108E+03  0.20002668595E+03  0.00000000000E+00 0.  1.
</event>
<event>
12    1  0.8500177E-002  0.1783205E+03  0.7818608E-02  0.1169670E+00
         21   -1    0    0  501  502  0.00000000000E+00  0.00000000000E+00  0.19308681620E+03  0.19308681620E+03  0.00000000000E+00 0.  1.
         21   -1    0    0  502  503 -0.00000000000E+00 -0.00000000000E+00 -0.36520500337E+03  0.36520500337E+03  0.00000000000E+00 0.  1.
         -6    2    1    2    0  503  0.37989267177E+02 -0.23856001368E+02 -0.29324821435E+03  0.34272123883E+03  0.17161305051E+03 0.  0.
        -24    2    3    3    0    0  0.79275695093E+02  0.18085894202E+02 -0.15553176203E+03  0.19288264910E+03  0.80011573670E+02 0.  0.
          6    2    1    2  501    0 -0.37989267177E+02  0.23856001368E+02  0.12113002718E+03  0.21557058074E+03  0.17258591650E+03 0.  0.
         24    2    5    5    0    0 -0.22458992539E+02  0.63832714187E+02  0.13491076612E+03  0.17027901680E+03  0.78835315688E+02 0.  0.
          5    1    5    5  501    0 -0.15530274637E+02 -0.39976712819E+02 -0.13780738945E+02  0.45291563938E+02  0.47000000000E+01 0. -1.
        -11    1    6    6    0    0 -0.43759473073E+02  0.64666292709E+02  0.81963669600E+02  0.11320187291E+03  0.00000000000E+00 0.  1.
         12    1    6    6    0    0  0.21300480534E+02 -0.83357852189E+00  0.52947096523E+02  0.57077143887E+02  0.00000000000E+00 0. -1.
         -5    1    3    3    0  503 -0.41286427916E+02 -0.41941895570E+02 -0.13771645231E+03  0.14983858973E+03  0.47000000000E+01 0.  1.
         11    1    4    4    0    0  0.71829305041E+02 -0.84453059362E+01 -0.61630521292E+02  0.95021541819E+02  0.00000000000E+00 0. -1.
        -12    1    4    4    0    0  0.74463900521E+01  0.26531200138E+02 -0.93901240740E+02  0.97861107280E+02  0.00000000000E+00 0.  1.
</event>
<event>
12    1  0.8500177E-002  0.2074667E+03  0.7818608E-02  0.1143857E+00
         21   -1    0    0  501  502  0.00000000000E+00  0.00000000000E+00  0.62068762172E+02  0.62068762172E+02  0.00000000000E+00 0.  1.
         21   -1    0    0  502  503 -0.00000000000E+00 -0.00000000000E+00 -0.19231658197E+04  0.19231658197E+04  0.00000000000E+00 0.  1.
         -6    2    1    2    0  503  0.94785644241E+02 -0.66713885115E+02 -0.17246375669E+04  0.17369129495E+04  0.17046054181E+03 0.  0.
        -24    2    3    3    0    0  0.90710280892E+02 -0.43599248727E+02 -0.65925319986E+03  0.67125970645E+03  0.76456277829E+02 0.  0.
          6    2    1    2  501    0 -0.94785644241E+02  0.66713885115E+02 -0.13645949065E+03  0.24832163235E+03  0.17206795077E+03 0.  0.
         24    2    5    5    0    0 -0.49052990780E+02  0.10805589879E+03 -0.10793594782E+03  0.18023110303E+03  0.82163303846E+02 0.  0.
          5    1    5    5  501    0 -0.45732653462E+02 -0.41342013678E+02 -0.28523542832E+02  0.68090529321E+02  0.47000000000E+01 0. -1.
        -11    1    6    6    0    0 -0.30739646225E+02  0.73291514905E+02 -0.11551369025E+03  0.14021406721E+03  0.00000000000E+00 0.  1.
         12    1    6    6    0    0 -0.18313344554E+02  0.34764383887E+02  0.75777424289E+01  0.40017035824E+02  0.00000000000E+00 0. -1.
         -5    1    3    3    0  503  0.40753633497E+01 -0.23114636388E+02 -0.10653843670E+04  0.10656532431E+04  0.47000000000E+01 0.  1.
         13    1    4    4    0    0 -0.32298604552E+01  0.15056387881E+02 -0.95121674478E+02  0.96360052772E+02  0.00000000000E+00 0. -1.
        -14    1    4    4    0    0  0.93940141347E+02 -0.58655636608E+02 -0.56413152538E+03  0.57489965367E+03  0.00000000000E+00 0.  1.
</event>
<event>
12    1  0.8500177E-002  0.2222689E+03  0.7818608E-02  0.1132319E+00
         21   -1    0    0  503  502  0.00000000000E+00  0.00000000000E+00  0.34669102469E+02  0.34669102469E+02  0.00000000000E+00 0. -1.
         21   -1    0    0  501  503 -0.00000000000E+00 -0.00000000000E+00 -0.14221546682E+04  0.14221546682E+04  0.00000000000E+00 0.  1.
          6    2    1    2  501    0  0.93867800666E+02 -0.10390682668E+03 -0.71380956471E+03  0.74742768462E+03  0.17180295818E+03 0.  0.
         24    2    3    3    0    0  0.60700733309E+02 -0.11571610488E+03 -0.68486050482E+03  0.70160573053E+03  0.78370237293E+02 0.  0.
         -6    2    1    2    0  502 -0.93867800666E+02  0.10390682668E+03 -0.67367600100E+03  0.70939608602E+03  0.17261419382E+03 0.  0.
        -24    2    5    5    0    0  0.12066104909E+02  0.11724389412E+02 -0.26986774639E+03  0.28184165606E+03  0.79517710937E+02 0.  0.
          5    1    3    3  501    0  0.33167067357E+02  0.11809278199E+02 -0.28949059885E+02  0.45821954093E+02  0.47000000000E+01 0. -1.
        -13    1    4    4    0    0  0.77919402483E+02 -0.10862018367E+03 -0.59396820766E+03  0.60882510567E+03  0.00000000000E+00 0.  1.
         14    1    4    4    0    0 -0.17218669173E+02 -0.70959212169E+01 -0.90892297158E+02  0.92780624856E+02  0.00000000000E+00 0. -1.
         -5    1    5    5    0  502 -0.10593390558E+03  0.92182437272E+02 -0.40380825460E+03  0.42755442996E+03  0.47000000000E+01 0.  1.
         11    1    6    6    0    0  0.12656962636E+02  0.37558412484E+02 -0.23566604715E+03  0.23897556116E+03  0.00000000000E+00 0. -1.
        -12    1    6    6    0    0 -0.59085772701E+00 -0.25834023072E+02 -0.34201699237E+02  0.42866094896E+02  0.00000000000E+00 0.  1.
</event>
<event>
12    1  0.8500177E-002  0.1874957E+03  0.7818608E-02  0.1161037E+00
         21   -1    0    0  503  502  0.00000000000E+00  0.00000000000E+00  0.17790132159E+04  0.17790132159E+04  0.00000000000E+00 0.  1.
         21   -1    0    0  501  503 -0.00000000000E+00 -0.00000000000E+00 -0.62256452738E+02  0.62256452738E+02  0.00000000000E+00 0.  1.
          6    2    1    2  501    0  0.47490082981E+02  0.54686517113E+02  0.97479793474E+02  0.21132187035E+03  0.17294131842E+03 0.  0.
         24    2    3    3    0    0 -0.18376386050E+02 -0.66049140335E+01  0.13541855571E+02  0.88184959990E+02  0.84922840641E+02 0.  0.
         -6    2    1    2    0  502 -0.47490082981E+02 -0.54686517113E+02  0.16192769697E+04  0.16299477983E+04  0.17154007530E+03 0.  0.
        -24    2    5    5    0    0  0.39741161516E+02 -0.26147259051E+02  0.95500838720E+03  0.95935207883E+03  0.77796866655E+02 0.  0.
          5    1    3    3  501    0  0.65866469030E+02  0.61291431147E+02  0.83937937903E+02  0.12313691036E+03  0.47000000000E+01 0. -1.
        -13    1    4    4    0    0  0.46986208208E+01  0.22265941577E+02 -0.25667190284E+02  0.34302388386E+02  0.00000000000E+00 0.  1.
         14    1    4    4    0    0 -0.23075006870E+02 -0.28870855610E+02  0.39209045855E+02  0.53882571604E+02  0.00000000000E+00 0. -1.
         -5    1    5    5    0  502 -0.87231244497E+02 -0.28539258062E+02  0.66426858249E+03  0.67059571946E+03  0.47000000000E+01 0.  1.
         13    1    6    6    0    0  0.38415993266E+02 -0.41105530475E+02  0.37950797596E+03  0.38365577930E+03  0.00000000000E+00 0. -1.
        -14    1    6    6    0    0  0.13251682496E+01  0.14958271424E+02  0.57550041124E+03  0.57569629953E+03  0.00000000000E+00 0.  1.
</event>
<event>
12    1  0.8500177E-002  0.2142795E+03  0.7818608E-02  0.1139117E+00
         21   -1    0    0  503  502  0.00000000000E+00  0.00000000000E+00  0.32251591532E+03  0.32251591532E+03  0.00000000000E+00 0. -1.
         21   -1    0    0  501  503 -0.00000000000E+00 -0.00000000000E+00 -0.14365621251E+03  0.14365621251E+03  0.00000000000E+00 0.  1.
          6    2    1    2  501    0 -0.58047372325E+01  0.12770502988E+03  0.12892898364E+03  0.24615216777E+03  0.16621052085E+03 0.  0.
         24    2    3    3    0    0  0.56005993102E+02  0.10173172026E+03  0.75465626103E+02  0.16027085550E+03  0.80657747479E+02 0.  0.
         -6    2    1    2    0  502  0.58047372325E+01 -0.12770502988E+03  0.49930719157E+02  0.22001996006E+03  0.17196928935E+03 0.  0.
        -24    2    5    5    0    0 -0.34496733119E+02 -0.13597352813E+02  0.11328934199E+02  0.92909935751E+02  0.84433398675E+02 0.  0.
          5    1    3    3  501    0 -0.61810730334E+02  0.25973309622E+02  0.53463357541E+02  0.85881312267E+02  0.47000000000E+01 0. -1.
        -11    1    4    4    0    0  0.24318945574E+02  0.54385343748E+02 -0.70581687394E+01  0.59991620035E+02  0.00000000000E+00 0.  1.
         12    1    4    4    0    0  0.31687047528E+02  0.47346376514E+02  0.82523794843E+02  0.10027923546E+03  0.00000000000E+00 0. -1.
         -5    1    5    5    0  502  0.40301470351E+02 -0.11410767707E+03  0.38601784958E+02  0.12711002431E+03  0.47000000000E+01 0.  1.
         11    1    6    6    0    0  0.46395977283E+01  0.28315280989E+02  0.19914889956E+02  0.34926835621E+02  0.00000000000E+00 0. -1.
        -12    1    6    6    0    0 -0.39136330847E+02 -0.41912633802E+02 -0.85859557566E+01  0.57983100130E+02  0.00000000000E+00 0.  1.
</event>
<event>
12    1  0.8500177E-002  0.1880860E+03  0.7818608E-02  0.1160508E+00
         21   -1    0    0  501  502  0.00000000000E+00  0.00000000000E+00  0.16613382259E+03  0.16613382259E+03  0.00000000000E+00 0.  1.
         21   -1    0    0  502  503 -0.00000000000E+00 -0.00000000000E+00 -0.21167387247E+03  0.21167387247E+03  0.00000000000E+00 0.  1.
         -6    2    1    2    0  503 -0.83215199781E+01 -0.72007698276E+02 -0.29248052261E+02  0.18901737318E+03  0.17209811881E+03 0.  0.
        -24    2    3    3    0    0 -0.63243226879E+01 -0.20678649729E+02 -0.81186848669E+02  0.11581635820E+03  0.79715248340E+02 0.  0.
          6    2    1    2  501    0  0.83215199781E+01  0.72007698276E+02 -0.16291997622E+02  0.18879032189E+03  0.17355690751E+03 0.  0.
         24    2    5    5    0    0 -0.58593012347E+02  0.64815943285E+02  0.36206063332E+00  0.11930130382E+03  0.81230674036E+02 0.  0.
          5    1    5    5  501    0  0.66914532325E+02  0.71917549908E+01 -0.16654058256E+02  0.69489018071E+02  0.47000000000E+01 0. -1.
        -11    1    6    6    0    0 -0.33715039009E+02  0.78443622998E+02 -0.15535898140E+02  0.86784042170E+02  0.00000000000E+00 0.  1.
         12    1    6    6    0    0 -0.24877973338E+02 -0.13627679713E+02  0.15897958773E+02  0.32517261645E+02  0.00000000000E+00 0. -1.
         -5    1    3    3    0  503 -0.19971972902E+01 -0.51329048546E+02  0.51938796408E+02  0.73201014979E+02  0.47000000000E+01 0.  1.
         13    1    4    4    0    0 -0.30563161772E+02 -0.18790012878E+02 -0.54697553227E+01  0.36291729977E+02  0.00000000000E+00 0. -1.
        -14    1    4    4    0    0  0.24238839084E+02 -0.18886368515E+01 -0.75717093346E+02  0.79524628224E+02  0.00000000000E+00 0.  1.
</event>
<event>
12    1  0.8500177E-002  0.2148133E+03  0.7818608E-02  0.1137811E+00
         21   -1    0    0  501  502  0.00000000000E+00  0.00000000000E+00  0.49794508832E+02  0.49794508832E+02  0.00000000000E+00 0.  1.
         21   -1    0    0  502  503 -0.00000000000E+00 -0.00000000000E+00 -0.12574905907E+04  0.12574905907E+04  0.00000000000E+00 0.  1.
         -6    2    1    2    0  503  0.80791954856E+02  0.10147888836E+03 -0.93910267253E+03  0.96335798347E+03  0.17122929078E+03 0.  0.
        -24    2    3    3    0    0  0.72792813202E+02  0.92711963931E+02 -0.40577349865E+03  0.42987607849E+03  0.79038020883E+02 0.  0.
          6    2    1    2  501    0 -0.80791954856E+02 -0.10147888836E+03 -0.26859340934E+03  0.34392711606E+03  0.17122539785E+03 0.  0.
         24    2    5    5    0    0 -0.11035141194E+03 -0.10763889178E+03 -0.18028244477E+03  0.25047860827E+03  0.80462464337E+02 0.  0.
          5    1    5    5  501    0  0.29559457082E+02  0.61600034227E+01 -0.88310964573E+02  0.93448507794E+02  0.47000000000E+01 0. -1.
        -11    1    6    6    0    0 -0.62056991139E+02 -0.10174136732E+03 -0.15538926491E+03  0.19582696348E+03  0.00000000000E+00 0.  1.
         12    1    6    6    0    0 -0.48294420799E+02 -0.58975244557E+01 -0.24893179857E+02  0.54651644791E+02  0.00000000000E+00 0. -1.
         -5    1    3    3    0  503  0.79991416544E+01  0.87669244261E+01 -0.53332917388E+03  0.53348190498E+03  0.47000000000E+01 0.  1.
         13    1    4    4    0    0  0.59418730901E+02  0.22804432743E+02 -0.12562030690E+03  0.14082290027E+03  0.00000000000E+00 0. -1.
        -14    1    4    4    0    0  0.13374082300E+02  0.69907531188E+02 -0.28015319175E+03  0.28905317822E+03  0.00000000000E+00 0.  1.
</event>
<event>
12    1  0.8500177E-002  0.1854310E+03  0.7818608E-02  0.1164263E+00
         21   -1    0    0  503  502  0.00000000000E+00  0.00000000000E+00  0.65656852751E+03  0.65656852751E+03  0.00000000000E+00 0. -1.
         21   -1    0    0  501  503 -0.00000000000E+00 -0.00000000000E+00 -0.68031872768E+02  0.68031872768E+02  0.00000000000E+00 0. -1.
          6    2    1    2  501    0  0.26289558474E+02  0.41215892374E+02  0.10612171385E+03  0.20777465955E+03  0.17180977950E+03 0.  0.
         24    2    3    3    0    0  0.33662701111E+02 -0.14204289133E+02  0.11902078291E+03  0.15020526027E+03  0.84028174878E+02 0.  0.
         -6    2    1    2    0  502 -0.26289558474E+02 -0.41215892374E+02  0.48241494089E+03  0.51682574072E+03  0.17887084841E+03 0.  0.
        -24    2    5    5    0    0 -0.52024072210E+02 -0.77345202692E+02  0.43138287609E+03  0.44904702800E+03  0.82844813335E+02 0.  0.
          5    1    3    3  501    0 -0.73731426366E+01  0.55420181507E+02 -0.12899069062E+02  0.57569399279E+02  0.47000000000E+01 0. -1.
        -13    1    4    4    0    0  0.54259908441E+02 -0.17928939851E+02  0.43445763876E+02  0.71785227916E+02  0.00000000000E+00 0.  1.
         14    1    4    4    0    0 -0.20597207330E+02  0.37246507187E+01  0.75575019036E+02  0.78420032358E+02  0.00000000000E+00 0. -1.
         -5    1    5    5    0  502  0.25734513736E+02  0.36129310318E+02  0.51032064794E+02  0.67778712723E+02  0.47000000000E+01 0.  1.
         11    1    6    6    0    0 -0.37066277523E+01 -0.59738689767E+02  0.32981935495E+03  0.33520629028E+03  0.00000000000E+00 0. -1.
        -12    1    6    6    0    0 -0.48317444458E+02 -0.17606512926E+02  0.10156352114E+03  0.11384073771E+03  0.00000000000E+00 0.  1.
</event>
<event>
12    1  0.8500177E-002  0.3109246E+03  0.7818608E-02  0.1080323E+00
         21   -1    0    0  501  502  0.00000000000E+00  0.00000000000E+00  0.95555292963E+03  0.95555292963E+03  0.00000000000E+00 0. -1.
         21   -1    0    0  502  503 -0.00000000000E+00 -0.00000000000E+00 -0.61355895103E+03  0.61355895103E+03  0.00000000000E+00 0.  1.
         -6    2    1    2    0  503  0.25741515224E+03 -0.20560229973E+02 -0.54691110040E+03  0.62739731175E+03  0.16682431294E+03 0.  0.
        -24    2    3    3    0    0  0.20837044353E+03 -0.67819453033E+02 -0.47026635686E+03  0.52475558374E+03  0.78741706371E+02 0.  0.
          6    2    1    2  501    0 -0.25741515224E+03  0.20560229973E+02  0.88890507901E+03  0.94171456891E+03  0.17317276390E+03 0.  0.
         24    2    5    5    0    0 -0.79277597278E+02 -0.38239572206E+02  0.41909912918E+03  0.43581919859E+03  0.80914099295E+02 0.  0.
          5    1    5    5  501    0 -0.17813755496E+03  0.58799802179E+02  0.46980594982E+03  0.50589537032E+03  0.47000000000E+01 0. -1.
        -11    1    6    6    0    0 -0.59358571003E+02 -0.13001869030E+02  0.38167012501E+03  0.38647713111E+03  0.00000000000E+00 0.  1.
         12    1    6    6    0    0 -0.19919026275E+02 -0.25237703176E+02  0.37429004175E+02  0.49342067477E+02  0.00000000000E+00 0. -1.
         -5    1    3    3    0  503  0.49044708705E+02  0.47259223060E+02 -0.76644743538E+02  0.10264172801E+03  0.47000000000E+01 0.  1.
         11    1    4    4    0    0  0.13080618869E+01 -0.34396792506E-01  0.32585262385E+01  0.35114387773E+01  0.00000000000E+00 0. -1.
        -12    1    4    4    0    0  0.20706238164E+03 -0.67785056241E+02 -0.47352488310E+03  0.52124414496E+03  0.00000000000E+00 0.  1.
</event>
<event>
12    1  0.8500177E-002  0.2747476E+03  0.7818608E-02  0.1098600E+00
         21   -1    0    0  501  502  0.00000000000E+00  0.00000000000E+00  0.59908857322E+02  0.59908857322E+02  0.00000000000E+00 0.  1.
         21   -1    0    0  502  503 -0.00000000000E+00 -0.00000000000E+00 -0.13823433820E+04  0.13823433820E+04  0.00000000000E+00 0. -1.
         -6    2    1    2    0  503  0.18094195829E+03  0.11370898306E+03 -0.87587500993E+03  0.91794161853E+03  0.17259796324E+03 0.  0.
        -24    2    3    3    0    0  0.13778055783E+03  0.18122137948E+02 -0.63864335168E+03  0.65851783179E+03  0.80427048621E+02 0.  0.
          6    2    1    2  501    0 -0.18094195829E+03 -0.11370898306E+03 -0.44655951476E+03  0.52431062080E+03  0.17267455448E+03 0.  0.
         24    2    5    5    0    0 -0.11965622768E+03 -0.23120080877E+01 -0.27003296048E+03  0.30671250230E+03  0.82654710207E+02 0.  0.
          5    1    5    5  501    0 -0.61285730611E+02 -0.11139697497E+03 -0.17652655428E+03  0.21759811850E+03  0.47000000000E+01 0. -1.
        -11    1    6    6    0    0 -0.11675612212E+03 -0.16266853351E+02 -0.17744324799E+03  0.21303217792E+03  0.00000000000E+00 0.  1.
         12    1    6    6    0    0 -0.29001055605E+01  0.13954845263E+02 -0.92589712483E+02  0.93680324381E+02  0.00000000000E+00 0. -1.
         -5    1    3    3    0  503  0.43161400462E+02  0.95586845110E+02 -0.23723165825E+03  0.25942378673E+03  0.47000000000E+01 0.  1.
         13    1    4    4    0    0  0.75388918065E+02  0.28210268342E+02 -0.49614720839E+03  0.50263442043E+03  0.00000000000E+00 0. -1.
        -14    1    4    4    0    0  0.62391639761E+02 -0.10088130394E+02 -0.14249614329E+03  0.15588341137E+03  0.00000000000E+00 0.  1.
</event>
<event>
12    1  0.8500177E-002  0.2000217E+03  0.7818608E-02  0.1149775E+00
         21   -1    0    0  501  502  0.00000000000E+00  0.00000000000E+00  0.79838454446E+03  0.79838454446E+03  0.00000000000E+00 0.  1.
         21   -1    0    0  502  503 -0.00000000000E+00 -0.00000000000E+00 -0.64776574362E+02  0.64776574362E+02  0.00000000000E+00 0.  1.
         -6    2    1    2    0  503 -0.30363803718E+02  0.95378905660E+02  0.16081983847E+03  0.25645283315E+03  0.17287550134E+03 0.  0.
        -24    2    3    3    0    0 -0.99370873007E+01 -0.11418572824E+02  0.33725564089E+02  0.89126813850E+02  0.81098987445E+02 0.  0.
          6    2    1    2  501    0  0.30363803718E+02 -0.95378905660E+02  0.57278813163E+03  0.60670828567E+03  0.17317506734E+03 0.  0.
         24    2    5    5    0    0 -0.26451970138E+02 -0.11788807377E+03  0.41781850799E+03  0.44005784595E+03  0.66942494010E+02 0.  0.
          5    1    5    5  501    0  0.56815773856E+02  0.22509168114E+02  0.15496962364E+03  0.16665043972E+03  0.47000000000E+01 0. -1.
        -11    1    6    6    0    0  0.59397337547E+01 -0.49155844023E+01  0.20210710906E+01  0.79704539046E+01  0.00000000000E+00 0.  1.
         12    1    6    6    0    0 -0.32391703893E+02 -0.11297248937E+03  0.41579743690E+03  0.43208739205E+03  0.00000000000E+00 0. -1.
         -5    1    3    3    0  503 -0.20426716418E+02  0.10679747848E+03  0.12709427438E+03  0.16732601930E+03  0.47000000000E+01 0.  1.
         11    1    4    4    0    0  0.78963977669E+01 -0.18177850796E+02 -0.22364915642E+02  0.29882717563E+02  0.00000000000E+00 0. -1.
        -12    1    4    4    0    0 -0.17833485068E+02  0.67592779728E+01  0.56090479731E+02  0.59244096287E+02  0.00000000000E+00 0.  1.
</event>
<event>
12    1  0.8500177E-002  0.1726040E+03  0.7818608E-02  0.1175760E+00
         21   -1    0    0  503  502  0.00000000000E+00  0.00000000000E+00  0.18622351400E+03  0.18622351400E+03  0.00000000000E+00 0.  1.
         21   -1    0    0  501  503 -0.00000000000E+00 -0.00000000000E+00 -0.18246763547E+03  0.18246763547E+03  0.00000000000E+00 0.  1.
          6    2    1    2  501    0  0.50570297362E+01 -0.10366153728E+02  0.69635933479E+02  0.18612171152E+03  0.17221816854E+03 0.  0.
         24    2    3    3    0    0  0.52780205126E+02 -0.48383097002E+02  0.55243577558E+02  0.12325662300E+03  0.83747645482E+02 0.  0.
         -6    2    1    2    0  502 -0.50570297362E+01  0.10366153728E+02 -0.65880054949E+02  0.18256943796E+03  0.16987756575E+03 0.  0.
        -24    2    5    5    0    0 -0.17461890710E+02  0.71605712791E+02 -0.54412210394E+02  0.11886884433E+03  0.75741783587E+02 0.  0.
          5    1    3    3  501    0 -0.47723175390E+02  0.38016943274E+02  0.14392355921E+02  0.62865088516E+02  0.47000000000E+01 0. -1.
        -11    1    4    4    0    0 -0.33323443345E+01 -0.34221565358E+02  0.55612734693E+02  0.65383455969E+02  0.00000000000E+00 0.  1.
         12    1    4    4    0    0  0.56112549461E+02 -0.14161531644E+02 -0.36915713494E+00  0.57873167033E+02  0.00000000000E+00 0. -1.
         -5    1    5    5    0  502  0.12404860974E+02 -0.61239559063E+02 -0.11467844555E+02  0.63700593630E+02  0.47000000000E+01 0.  1.
         11    1    6    6    0    0 -0.22920905068E+01  0.40805539605E+02  0.13275202174E+02  0.42971813251E+02  0.00000000000E+00 0. -1.
        -12    1    6    6    0    0 -0.15169800203E+02  0.30800173186E+02 -0.67687412568E+02  0.75897031079E+02  0.00000000000E+00 0.  1.
</event>
<event>
12    1  0.8500177E-002  0.1851646E+03  0.7818608E-02  0.1163513E+00
         21   -1    0    0  501  502  0.00000000000E+00  0.00000000000E+00  0.92560108215E+02  0.92560108215E+02  0.00000000000E+00 0. -1.
         21   -1    0    0  502  503 -0.00000000000E+00 -0.00000000000E+00 -0.36538358482E+03  0.36538358482E+03  0.00000000000E+00 0. -1.
         -6    2    1    2    0  503  0.61898016972E+02  0.17248712677E+02 -0.13208572186E+03  0.22744792750E+03  0.17365782220E+03 0.  0.
        -24    2    3    3    0    0  0.83151184019E+02 -0.32400570889E+02 -0.39577411724E+02  0.12022560747E+03  0.70170569159E+02 0.  0.
          6    2    1    2  501    0 -0.61898016972E+02 -0.17248712677E+02 -0.14073775475E+03  0.23049576553E+03  0.17085754219E+03 0.  0.
         24    2    5    5    0    0  0.20960700983E+02  0.27664952800E+02 -0.74275014763E+02  0.11507397256E+03  0.80749865281E+02 0.  0.
          5    1    5    5  501    0 -0.82858717955E+02 -0.44913665476E+02 -0.66462739982E+02  0.11542179298E+03  0.47000000000E+01 0. -1.
        -13    1    6    6    0    0 -0.10006264056E+01  0.48444593765E+02 -0.18953713993E+02  0.52030022029E+02  0.00000000000E+00 0.  1.
         14    1    6    6    0    0  0.21961327388E+02 -0.20779640965E+02 -0.55321300770E+02  0.63043950528E+02  0.00000000000E+00 0. -1.
         -5    1    3    3    0  503 -0.21253167046E+02  0.49649283565E+02 -0.92508310133E+02  0.10722232003E+03  0.47000000000E+01 0.  1.
         11    1    4    4    0    0  0.49080999163E+02  0.10082034813E+02  0.43021630933E+01  0.50290163174E+02  0.00000000000E+00 0. -1.
        -12    1    4    4    0    0  0.34070184856E+02 -0.42482605701E+02 -0.43879574817E+02  0.69935444300E+02  0.00000000000E+00 0.  1.
</event>
<event>
12    1  0.8500177E-002  0.2067549E+03  0.7818608E-02  0.1144742E+00
         21   -1    0    0  501  502  0.00000000000E+00  0.00000000000E+00  0.50782318453E+03  0.50782318453E+03  0.00000000000E+00 0.  1.
         21   -1    0    0  502  503 -0.00000000000E+00 -0.00000000000E+00 -0.11897665783E+03  0.11897665783E+03  0.00000000000E+00 0.  1.
         -6    2    1    2    0  503 -0.10959308971E+03 -0.33093886679E+02  0.21195974138E+02  0.20500069861E+03  0.16873104771E+03 0.  0.
        -24    2    3    3    0    0 -0.44374747221E+02 -0.12040572859E+02  0.74724475824E+02  0.11791416284E+03  0.78777591510E+02 0.  0.
          6    2    1    2  501    0  0.10959308971E+03  0.33093886679E+02  0.36765055256E+03  0.42179914375E+03  0.17216776188E+03 0.  0.
         24    2    5    5    0    0  0.75030884971E+02  0.66587998957E+02  0.34600853649E+03  0.36881925688E+03  0.79007225091E+02 0.  0.
          5    1    5    5  501    0  0.34562204740E+02 -0.33494112278E+02  0.21642016065E+02  0.52979886874E+02  0.47000000000E+01 0. -1.
        -11    1    6    6    0    0  0.30368887198E+02  0.67794532272E+02  0.27556289714E+03  0.28540020707E+03  0.00000000000E+00 0.  1.
         12    1    6    6    0    0  0.44661997773E+02 -0.12065333144E+01  0.70445639354E+02  0.83419049813E+02  0.00000000000E+00 0. -1.
         -5    1    3    3    0  503 -0.65218342491E+02 -0.21053313821E+02 -0.53528501686E+02  0.87086535772E+02  0.47000000000E+01 0.  1.
         13    1    4    4    0    0 -0.51410226351E+01 -0.37227596722E+02  0.11388385371E+02  0.39268554758E+02  0.00000000000E+00 0. -1.
        -14    1    4    4    0    0 -0.39233724586E+02  0.25187023863E+02  0.63336090453E+02  0.78645608077E+02  0.00000000000E+00 0.  1.
</event>
<event>
12    1  0.8500177E-002  0.2198485E+03  0.7818608E-02  0.1134048E+00
         21   -1    0    0  501  502  0.00000000000E+00  0.00000000000E+00  0.22880492728E+03  0.22880492728E+03  0.00000000000E+00 0.  1.
         21   -1    0    0  502  503 -0.00000000000E+00 -0.00000000000E+00 -0.31962222285E+03  0.31962222285E+03  0.00000000000E+00 0. -1.
         -6    2    1    2    0  503  0.37580116604E+02  0.13224126749E+03 -0.20530129115E+03  0.30080224915E+03  0.17156151945E+03 0.  0.
        -24    2    3    3    0    0 -0.17042101335E+02  0.38342631157E+02 -0.15840058093E+03  0.18238642582E+03  0.80084166361E+02 0.  0.
          6    2    1    2  501    0 -0.37580116604E+02 -0.13224126749E+03  0.11448399558E+03  0.24762490098E+03  0.17120598224E+03 0.  0.
         24    2    5    5    0    0 -0.29500720533E+02 -0.13244511112E+03  0.26886632768E+02  0.15953003073E+03  0.79466594947E+02 0.  0.
          5    1    5    5  501    0 -0.80793960710E+01  0.20384363413E+00  0.87597362810E+02  0.88094870250E+02  0.47000000000E+01 0. -1.
        -13    1    6    6    0    0 -0.42272270784E+02 -0.44670988280E+02  0.34479378122E+02  0.70507230742E+02  0.00000000000E+00 0.  1.
         14    1    6    6    0    0  0.12771550251E+02 -0.87774122841E+02 -0.75927453544E+01  0.89022799992E+02  0.00000000000E+00 0. -1.
         -5    1    3    3    0  503  0.54622217939E+02  0.93898636329E+02 -0.46900710219E+02  0.11841582334E+03  0.47000000000E+01 0.  1.
         11    1    4    4    0    0 -0.29496626991E+02  0.41161767672E+02 -0.43439484854E+02  0.66718295587E+02  0.00000000000E+00 0. -1.
        -12    1    4    4    0    0  0.12454525656E+02 -0.28191365143E+01 -0.11496109608E+03  0.11566813023E+03  0.00000000000E+00 0.  1.
</event>
<event>
12    1  0.8500177E-002  0.2954372E+03  0.7818608E-02  0.1087853E+00
         21   -1    0    0  501  502  0.00000000000E+00  0.00000000000E+00  0.15805417587E+03  0.15805417587E+03  0.00000000000E+00 0.  1.
         21   -1    0    0  502  503 -0.00000000000E+00 -0.00000000000E+00 -0.69033067764E+03  0.69033067764E+03  0.00000000000E+00 0. -1.
         -6    2    1    2    0  503 -0.20274722466E+03 -0.12724252491E+03 -0.45806363832E+03  0.54376916769E+03  0.16901335370E+03 0.  0.
        -24    2    3    3    0    0 -0.15303376758E+03 -0.12603538299E+03 -0.44289811532E+03  0.49156794075E+03  0.78587836417E+02 0.  0.
          6    2    1    2  501    0  0.20274722466E+03  0.12724252491E+03 -0.74212863454E+02  0.30461568581E+03  0.17316486274E+03 0.  0.
         24    2    5    5    0    0  0.16204907111E+03  0.79262063386E+02 -0.11507388592E+03  0.22944802291E+03  0.82837309558E+02 0.  0.
          5    1    5    5  501    0  0.40698153551E+02  0.47980461521E+02  0.40861022462E+02  0.75167662906E+02  0.47000000000E+01 0. -1.
        -11    1    6    6    0    0  0.49355281706E+02 -0.45758330939E+01 -0.28261056107E+01  0.49647446598E+02  0.00000000000E+00 0.  1.
         12    1    6    6    0    0  0.11269378941E+03  0.83837896480E+02 -0.11224778031E+03  0.17980057631E+03  0.00000000000E+00 0. -1.
         -5    1    3    3    0  503 -0.49713457078E+02 -0.12071419180E+01 -0.15165522997E+02  0.52201226940E+02  0.47000000000E+01 0.  1.
         11    1    4    4    0    0 -0.86247221014E+02 -0.11281825937E+03 -0.33667788189E+03  0.36540188688E+03  0.00000000000E+00 0. -1.
        -12    1    4    4    0    0 -0.66786546570E+02 -0.13217123618E+02 -0.10622023343E+03  0.12616605387E+03  0.00000000000E+00 0.  1.
</event>
<event>
12    1  0.8500177E-002  0.2066581E+03  0.7818608E-02  0.1144666E+00
         21   -1    0    0  503  502  0.00000000000E+00  0.00000000000E+00  0.12777027218E+03  0.12777027218E+03  0.00000000000E+00 0. -1.
         21   -1    0    0  501  503 -0.00000000000E+00 -0.00000000000E+00 -0.51814969058E+03  0.51814969058E+03  0.00000000000E+00 0. -1.
          6    2    1    2  501    0 -0.72365039231E+02  0.85809971767E+02 -0.38871453238E+03  0.43925519086E+03  0.17101486736E+03 0.  0.
         24    2    3    3    0    0 -0.20397784920E+02  0.98178129293E+02 -0.16343496817E+03  0.20768114462E+03  0.79783797281E+02 0.  0.
         -6    2    1    2    0  502  0.72365039231E+02 -0.85809971767E+02 -0.16648860107E+01  0.20666477189E+03  0.17351514614E+03 0.  0.
        -24    2    5    5    0    0  0.55187912116E+02  0.12493322489E+02 -0.30514557410E+02  0.10267926859E+03  0.80063132800E+02 0.  0.
          5    1    3    3  501    0 -0.51967254311E+02 -0.12368157526E+02 -0.22527956422E+03  0.23157404625E+03  0.47000000000E+01 0. -1.
        -13    1    4    4    0    0 -0.40718506909E+02  0.86709002104E+02 -0.93119954207E+02  0.13359556026E+03  0.00000000000E+00 0.  1.
         14    1    4    4    0    0  0.20320721990E+02  0.11469127188E+02 -0.70315013960E+02  0.74085584352E+02  0.00000000000E+00 0. -1.
         -5    1    5    5    0  502  0.17177127115E+02 -0.98303294256E+02  0.28849671400E+02  0.10398550330E+03  0.47000000000E+01 0.  1.
         13    1    6    6    0    0  0.70075258234E+01 -0.17921016996E+02  0.19111553022E+02  0.27120466944E+02  0.00000000000E+00 0. -1.
        -14    1    6    6    0    0  0.48180386292E+02  0.30414339485E+02 -0.49626110432E+02  0.75558801646E+02  0.00000000000E+00 0.  1.
</event>
<event>
12    1  0.8500177E-002  0.2277640E+03  0.7818608E-02  0.1130155E+00
         21   -1    0    0  501  502  0.00000000000E+00  0.00000000000E+00  0.50548084150E+03  0.50548084150E+03  0.00000000000E+00 0.  1.
         21   -1    0    0  502  503 -0.00000000000E+00 -0.00000000000E+00 -0.18107541820E+03  0.18107541820E+03  0.00000000000E+00 0.  1.
         -6    2    1    2    0  503 -0.13090016363E+03 -0.36673679113E+01 -0.68304442082E+02  0.23778549522E+03  0.18635488323E+03 0.  0.
        -24    2    3    3    0    0 -0.57727205753E+02  0.67767139628E+02 -0.65697374383E+02  0.13538404292E+03  0.78024858719E+02 0.  0.
          6    2    1    2  501    0  0.13090016363E+03  0.36673679113E+01  0.39270986539E+03  0.44877076448E+03  0.17327971102E+03 0.  0.
         24    2    5    5    0    0  0.16268035687E+03  0.13861246306E+02  0.34752533896E+03  0.39240031773E+03  0.80914247646E+02 0.  0.
          5    1    5    5  501    0 -0.31780193234E+02 -0.10193878394E+02  0.45184526422E+02  0.56370446749E+02  0.47000000000E+01 0. -1.
        -13    1    6    6    0    0  0.10789951187E+03 -0.68630979266E+01  0.29326134654E+03  0.31255659352E+03  0.00000000000E+00 0.  1.
         14    1    6    6    0    0  0.54780844999E+02  0.20724344232E+02  0.54263992423E+02  0.79843724214E+02  0.00000000000E+00 0. -1.
         -5    1    3    3    0  503 -0.73172957881E+02 -0.71434507540E+02 -0.26070676993E+01  0.10240145231E+03  0.47000000000E+01 0.  1.
         11    1    4    4    0    0 -0.66179985866E+02  0.66240418943E+02 -0.76970969069E+02  0.12121102966E+03  0.00000000000E+00 0. -1.
        -12    1    4    4    0    0  0.84527801139E+01  0.15267206851E+01  0.11273594686E+02  0.14173013259E+02  0.00000000000E+00 0.  1.
</event>
<event>
12    1  0.8500177E-002  0.1803099E+03  0.7818608E-02  0.1167670E+00
         21   -1    0    0  501  502  0.00000000000E+00  0.00000000000E+00  0.44978574524E+03  0.44978574524E+03  0.00000000000E+00 0.  1.
         21   -1    0    0  502  503 -0.00000000000E+00 -0.00000000000E+00 -0.96530689392E+02  0.96530689392E+02  0.00000000000E+00 0.  1.
         -6    2    1    2    0  503 -0.45385944062E+01  0.50294535120E+02  0.39199458836E+02  0.18452169209E+03  0.17309395766E+03 0.  0.
        -24    2    3    3    0    0  0.13749606944E+02 -0.35329214106E+02  0.97232770078E+00  0.88869779958E+02  0.80372179939E+02 0.  0.
          6    2    1    2  501    0  0.45385944062E+01 -0.50294535120E+02  0.31405559701E+03  0.36179474254E+03  0.17237859094E+03 0.  0.
         24    2    5    5    0    0 -0.42834560366E+02  0.19536965517E+02  0.19078865568E+03  0.21233744730E+03  0.80438720822E+02 0.  0.
          5    1    5    5  501    0  0.47373154772E+02 -0.69831500637E+02  0.12326694133E+03  0.14945729524E+03  0.47000000000E+01 0. -1.
        -13    1    6    6    0    0 -0.50827818417E+02 -0.14155130711E+02  0.76591991664E+02  0.93006279560E+02  0.00000000000E+00 0.  1.
         14    1    6    6    0    0  0.79932580514E+01  0.33692096229E+02  0.11419666401E+03  0.11933116774E+03  0.00000000000E+00 0. -1.
         -5    1    3    3    0  503 -0.18288201351E+02  0.85623749226E+02  0.38227131135E+02  0.95651912134E+02  0.47000000000E+01 0.  1.
         13    1    4    4    0    0 -0.33748268656E+02 -0.13034784815E+02 -0.26501722657E+01  0.36274986774E+02  0.00000000000E+00 0. -1.
        -14    1    4    4    0    0  0.47497875600E+02 -0.22294429291E+02  0.36224999664E+01  0.52594793183E+02  0.00000000000E+00 0.  1.
</event>
<event>
12    1  0.8500177E-002  0.3598140E+03  0.7818608E-02  0.1058663E+00
         21   -1    0    0  503  502  0.00000000000E+00  0.00000000000E+00  0.44313395788E+03  0.44313395788E+03  0.00000000000E+00 0.  1.
         21   -1    0    0  501  503 -0.00000000000E+00 -0.00000000000E+00 -0.37581659429E+03  0.37581659429E+03  0.00000000000E+00 0. -1.
          6    2    1    2  501    0 -0.39526070561E+02  0.31440515812E+03 -0.15958460017E+03  0.39356768457E+03  0.17033896801E+03 0.  0.
         24    2    3    3    0    0  0.31328958916E+02  0.22640099452E+03 -0.13534755360E+03  0.27791867922E+03  0.81736882783E+02 0.  0.
         -6    2    1    2    0  502  0.39526070561E+02 -0.31440515812E+03  0.22690196376E+03  0.42538286759E+03  0.17044990225E+03 0.  0.
        -24    2    5    5    0    0 -0.28644210923E+02 -0.21046520257E+03  0.10029683200E+03  0.24789582293E+03  0.79226209064E+02 0.  0.
          5    1    3    3  501    0 -0.70855029477E+02  0.88004163606E+02 -0.24237046570E+02  0.11564900536E+03  0.47000000000E+01 0. -1.
        -13    1    4    4    0    0 -0.16407572183E+02  0.15251851874E+03 -0.71600985458E+02  0.16928617221E+03  0.00000000000E+00 0.  1.
         14    1    4    4    0    0  0.47736531099E+02  0.73882475776E+02 -0.63746568138E+02  0.10863250700E+03  0.00000000000E+00 0. -1.
         -5    1    5    5    0  502  0.68170281484E+02 -0.10393995556E+03  0.12660513175E+03  0.17748704467E+03  0.47000000000E+01 0.  1.
         13    1    6    6    0    0 -0.11768278450E+02 -0.15602428507E+03  0.10836816941E+03  0.19033058096E+03  0.00000000000E+00 0. -1.
        -14    1    6    6    0    0 -0.16875932474E+02 -0.54440917500E+02 -0.80713374006E+01  0.57565241966E+02  0.00000000000E+00 0.  1.
</event>
<event>
12    1  0.8500177E-002  0.1847168E+03  0.7818608E-02  0.1165489E+00
         21   -1    0    0  503  502  0.00000000000E+00  0.00000000000E+00  0.17696384549E+03  0.17696384549E+03  0.00000000000E+00 0. -1.
         21   -1    0    0  501  503 -0.00000000000E+00 -0.00000000000E+00 -0.25257810104E+03  0.25257810104E+03  0.00000000000E+00 0. -1.
          6    2    1    2  501    0  0.29535484065E+02 -0.43380235227E+01 -0.14942468263E+03  0.23062416253E+03  0.17311442834E+03 0.  0.
         24    2    3    3    0    0  0.79784289153E+02 -0.24256265352E+02 -0.70854687615E+02  0.13514111228E+03  0.79302170623E+02 0.  0.
         -6    2    1    2    0  502 -0.29535484065E+02  0.43380235227E+01  0.73810427069E+02  0.19891778400E+03  0.18228862384E+03 0.  0.
        -24    2    5    5    0    0  0.37108665409E+02 -0.42375648825E+02  0.23788392064E+02  0.10327310914E+03  0.83226791434E+02 0.  0.
          5    1    3    3  501    0 -0.50248805089E+02  0.19918241829E+02 -0.78569995011E+02  0.95483050257E+02  0.47000000000E+01 0. -1.
        -13    1    4    4    0    0 -0.14813709939E+02  0.13729818791E+01 -0.12470583763E+01  0.14929374936E+02  0.00000000000E+00 0.  1.
         14    1    4    4    0    0  0.94597999092E+02 -0.25629247231E+02 -0.69607629239E+02  0.12021173734E+03  0.00000000000E+00 0. -1.
         -5    1    5    5    0  502 -0.66644149473E+02  0.46713672348E+02  0.50022035004E+02  0.95644674861E+02  0.47000000000E+01 0.  1.
         11    1    6    6    0    0  0.19561025838E+02  0.23015428241E+02 -0.32285899256E+01  0.30377087778E+02  0.00000000000E+00 0. -1.
        -12    1    6    6    0    0  0.17547639571E+02 -0.65391077066E+02  0.27016981990E+02  0.72896021361E+02  0.00000000000E+00 0.  1.
</event>
<event>
12    1  0.8500177E-002  0.1860238E+03  0.7818608E-02  0.1162646E+00
         21   -1    0    0  501  502  0.00000000000E+00  0.00000000000E+00  0.36243377970E+03  0.36243377970E+03  0.00000000000E+00 0.  1.
         21   -1    0    0  502  503 -0.00000000000E+00 -0.00000000000E+00 -0.23455831469E+03  0.23455831469E+03  0.00000000000E+00 0.  1.
         -6    2    1    2    0  503 -0.64322360041E+02  0.13474028721E+02 -0.16706548875E+03  0.24828733239E+03  0.17151328357E+03 0.  0.
        -24    2    3    3    0    0 -0.10862177529E+02  0.44598337339E+02 -0.19616149607E+02  0.88318237515E+02  0.72858212703E+02 0.  0.
          6    2    1    2  501    0  0.64322360041E+02 -0.13474028721E+02  0.29494095376E+03  0.34870476200E+03  0.17402853037E+03 0.  0.
         24    2    5    5    0    0 -0.31966837526E+02 -0.95985991478E+01  0.16090748503E+03  0.18355728468E+03  0.81780475753E+02 0.  0.
          5    1    5    5  501    0  0.96289197567E+02 -0.38754295735E+01  0.13403346874E+03  0.16514747732E+03  0.47000000000E+01 0. -1.
        -13    1    6    6    0    0  0.21307886760E+02 -0.23037759020E+02  0.40741393303E+02  0.51425922520E+02  0.00000000000E+00 0.  1.
         14    1    6    6    0    0 -0.53274724287E+02  0.13439159872E+02  0.12016609172E+03  0.13213136216E+03  0.00000000000E+00 0. -1.
         -5    1    3    3    0  503 -0.53460182512E+02 -0.31124308618E+02 -0.14744933914E+03  0.15996909487E+03  0.47000000000E+01 0.  1.
         11    1    4    4    0    0 -0.10128587604E+02 -0.18861542399E+02 -0.11600566193E+02  0.24349932331E+02  0.00000000000E+00 0. -1.
        -12    1    4    4    0    0 -0.73358992405E+00  0.63459879738E+02 -0.80155834143E+01  0.63968305184E+02  0.00000000000E+00 0.  1.
</event>
<event>
12    1  0.8500177E-002  0.1999413E+03  0.7818608E-02  0.1149822E+00
         21   -1    0    0  501  502  0.00000000000E+00  0.00000000000E+00  0.12186478034E+03  0.12186478034E+03  0.00000000000E+00 0.  1.
         21   -1    0    0  502  503 -0.00000000000E+00 -0.00000000000E+00 -0.45668103752E+03  0.45668103752E+03  0.00000000000E+00 0.  1.
         -6    2    1    2    0  503 -0.93620319503E+02  0.36387294205E+02 -0.32114148094E+03  0.37829668461E+03  0.17288068545E+03 0.  0.
        -24    2    3    3    0    0 -0.14021580584E+02 -0.21827068024E+02 -0.23151441139E+03  0.24495512019E+03  0.75703781958E+02 0.  0.
          6    2    1    2  501    0  0.93620319503E+02 -0.36387294205E+02 -0.13674776246E+02  0.20024913325E+03  0.17269602329E+03 0.  0.
         24    2    5    5    0    0  0.97024230924E+02 -0.48278948602E+02  0.44430767686E+02  0.14065599361E+03  0.77881044906E+02 0.  0.
          5    1    5    5  501    0 -0.34039114211E+01  0.11891654398E+02 -0.58105543932E+02  0.59593139647E+02  0.47000000000E+01 0. -1.
        -13    1    6    6    0    0  0.58249135211E+02 -0.67831642880E+02  0.23485694949E+02  0.92442800671E+02  0.00000000000E+00 0.  1.
         14    1    6    6    0    0  0.38775095713E+02  0.19552694278E+02  0.20945072737E+02  0.48213192935E+02  0.00000000000E+00 0. -1.
         -5    1    3    3    0  503 -0.79598738919E+02  0.58214362228E+02 -0.89627069546E+02  0.13334156442E+03  0.47000000000E+01 0.  1.
         11    1    4    4    0    0 -0.12219243434E+02  0.13191808999E+02 -0.18896549046E+03  0.18981909894E+03  0.00000000000E+00 0. -1.
        -12    1    4    4    0    0 -0.18023371498E+01 -0.35018877023E+02 -0.42548920929E+02  0.55136021251E+02  0.00000000000E+00 0.  1.
</event>
<event>
12    1  0.8500177E-002  0.1967863E+03  0.7818608E-02  0.1154264E+00
         21   -1    0    0  501  502  0.00000000000E+00  0.00000000000E+00  0.52931105779E+03  0.52931105779E+03  0.00000000000E+00 0.  1.
         21   -1    0    0  502  503 -0.00000000000E+00 -0.00000000000E+00 -0.71232231102E+02  0.71232231102E+02  0.00000000000E+00 0. -1.
         -6    2    1    2    0  503 -0.60805240467E+02 -0.47577041630E+02  0.19729914877E+03  0.27866073892E+03  0.18100829029E+03 0.  0.
        -24    2    3    3    0    0 -0.67862496810E+02 -0.17801687445E+02  0.33862245098E+02  0.11231745512E+03  0.80909458857E+02 0.  0.
          6    2    1    2  501    0  0.60805240467E+02  0.47577041630E+02  0.26077967792E+03  0.32188254997E+03  0.17216702182E+03 0.  0.
         24    2    5    5    0    0  0.25875664550E+02  0.90946584090E+02  0.21972172806E+03  0.25253676615E+03  0.80971286904E+02 0.  0.
          5    1    5    5  501    0  0.34929575916E+02 -0.43369542460E+02  0.41057949860E+02  0.69345783820E+02  0.47000000000E+01 0. -1.
        -13    1    6    6    0    0  0.32317116559E+02  0.96814592950E+01  0.11488086164E+03  0.11973194664E+03  0.00000000000E+00 0.  1.
         14    1    6    6    0    0 -0.64414520085E+01  0.81265124795E+02  0.10484086642E+03  0.13280481950E+03  0.00000000000E+00 0. -1.
         -5    1    3    3    0  503  0.70572563438E+01 -0.29775354185E+02  0.16343690367E+03  0.16634328380E+03  0.47000000000E+01 0.  1.
         11    1    4    4    0    0 -0.42344265357E+02 -0.11097152108E+02 -0.23133504259E+02  0.49511035263E+02  0.00000000000E+00 0. -1.
        -12    1    4    4    0    0 -0.25518231454E+02 -0.67045353369E+01  0.56995749357E+02  0.62806419858E+02  0.00000000000E+00 0.  1.
</event>
<event>
12    1  0.8500177E-002  0.1956288E+03  0.7818608E-02  0.1153805E+00
         21   -1    0    0  501  502  0.00000000000E+00  0.00000000000E+00  0.19788549622E+03  0.19788549622E+03  0.00000000000E+00 0.  1.
         21   -1    0    0  502  503 -0.00000000000E+00 -0.00000000000E+00 -0.53337964387E+03  0.53337964387E+03  0.00000000000E+00 0.  1.
         -6    2    1    2    0  503  0.84783444015E+02 -0.35547277637E+02 -0.46006005341E+03  0.49934429378E+03  0.17099014494E+03 0.  0.
        -24    2    3    3    0    0  0.20085487691E+02 -0.74583362644E+02 -0.33783702490E+03  0.35557294691E+03  0.79574872782E+02 0.  0.
          6    2    1    2  501    0 -0.84783444015E+02  0.35547277637E+02  0.12456590576E+03  0.23192084630E+03  0.17268113025E+03 0.  0.
         24    2    5    5    0    0 -0.30857167597E+02  0.35232736643E+02 -0.39602324862E+01  0.92460456096E+02  0.79622496674E+02 0.  0.
          5    1    5    5  501    0 -0.53926276419E+02  0.31454099403E+00  0.12852613825E+03  0.13946039021E+03  0.47000000000E+01 0. -1.
        -11    1    6    6    0    0 -0.52247717537E+01  0.44745104272E-02  0.34168276306E+02  0.34565435997E+02  0.00000000000E+00 0.  1.
         12    1    6    6    0    0 -0.25632395843E+02  0.35228262133E+02 -0.38128508792E+02  0.57895020099E+02  0.00000000000E+00 0. -1.
         -5    1    3    3    0  503  0.64697956324E+02  0.39036085007E+02 -0.12222302850E+03  0.14377134687E+03  0.47000000000E+01 0.  1.
         11    1    4    4    0    0  0.38012795901E+02 -0.46579129361E+02 -0.11031761377E+03  0.12563663420E+03  0.00000000000E+00 0. -1.
        -12    1    4    4    0    0 -0.17927308210E+02 -0.28004233284E+02 -0.22751941113E+03  0.22993631271E+03  0.00000000000E+00 0.  1.
</event>
<event>
12    1  0.8500177E-002  0.2196522E+03  0.7818608E-02  0.1134257E+00
         21   -1    0    0  503  502  0.00000000000E+00  0.00000000000E+00  0.13393282186E+04  0.13393282186E+04  0.00000000000E+00 0. -1.
         21   -1    0    0  501  503 -0.00000000000E+00 -0.00000000000E+00 -0.44431740143E+02  0.44431740143E+02  0.00000000000E+00 0.  1.
          6    2    1    2  501    0 -0.69341851105E+02 -0.11826416814E+03  0.34395508366E+03  0.40778012539E+03  0.17083566755E+03 0.  0.
         24    2    3    3    0    0  0.26630373425E+02 -0.26336969696E+02  0.12372631725E+03  0.15051746341E+03  0.77100534689E+02 0.  0.
         -6    2    1    2    0  502  0.69341851105E+02  0.11826416814E+03  0.95094139476E+03  0.97597983332E+03  0.17161699505E+03 0.  0.
        -24    2    5    5    0    0  0.76399596255E+02  0.10210730336E+03  0.94478492552E+03  0.95672241502E+03  0.80227328194E+02 0.  0.
          5    1    3    3  501    0 -0.95972224531E+02 -0.91927198444E+02  0.22022876641E+03  0.25726266198E+03  0.47000000000E+01 0. -1.
        -13    1    4    4    0    0 -0.13012004802E+02 -0.40775434234E+02  0.72069779630E+02  0.83821246959E+02  0.00000000000E+00 0.  1.
         14    1    4    4    0    0  0.39642378227E+02  0.14438464538E+02  0.51656537616E+02  0.66696216446E+02  0.00000000000E+00 0. -1.
         -5    1    5    5    0  502 -0.70577451498E+01  0.16156864780E+02  0.61564692362E+01  0.19257418300E+02  0.47000000000E+01 0.  1.
         13    1    6    6    0    0  0.30679662030E+01  0.63445109068E+02  0.52514313692E+03  0.52897070669E+03  0.00000000000E+00 0. -1.
        -14    1    6    6    0    0  0.73331630052E+02  0.38662194293E+02  0.41964178861E+03  0.42775170833E+03  0.00000000000E+00 0.  1.
</event>
<event>
12    1  0.8500177E-002  0.1856277E+03  0.7818608E-02  0.1162624E+00
         21   -1    0    0  501  502  0.00000000000E+00  0.00000000000E+00  0.87662599879E+03  0.87662599879E+03  0.00000000000E+00 0. -1.
         21   -1    0    0  502  503 -0.00000000000E+00 -0.00000000000E+00 -0.44329782489E+02  0.44329782489E+02  0.00000000000E+00 0.  1.
         -6    2    1    2    0  503  0.26071633089E+02 -0.65083063469E+02  0.57268326277E+03  0.60180609978E+03  0.17114008027E+03 0.  0.
        -24    2    3    3    0    0  0.62929448274E+02 -0.23570708667E+02  0.49849554972E+03  0.50902851138E+03  0.78080205833E+02 0.  0.
          6    2    1    2  501    0 -0.26071633089E+02  0.65083063469E+02  0.25961295353E+03  0.31914968149E+03  0.17187814973E+03 0.  0.
         24    2    5    5    0    0  0.27053766516E+02  0.90115818718E+02  0.14979398355E+03  0.19452527343E+03  0.80926370416E+02 0.  0.
          5    1    5    5  501    0 -0.53125399605E+02 -0.25032755250E+02  0.10981896998E+03  0.12462440807E+03  0.47000000000E+01 0. -1.
        -11    1    6    6    0    0  0.23907419147E+02  0.34598172731E+02  0.12811707032E+03  0.13484280460E+03  0.00000000000E+00 0.  1.
         12    1    6    6    0    0  0.31463473689E+01  0.55517645987E+02  0.21676913231E+02  0.59682468825E+02  0.00000000000E+00 0. -1.
         -5    1    3    3    0  503 -0.36857815185E+02 -0.41512354801E+02  0.74187713052E+02  0.92777588400E+02  0.47000000000E+01 0.  1.
         13    1    4    4    0    0  0.29116955067E+02 -0.12443925736E+02  0.43567259088E+03  0.43682176549E+03  0.00000000000E+00 0. -1.
        -14    1    4    4    0    0  0.33812493207E+02 -0.11126782932E+02  0.62822958838E+02  0.72206745893E+02  0.00000000000E+00 0.  1.
</event>
<event>
12    1  0.8500177E-002  0.1791641E+03  0.7818608E-02  0.1169241E+00
         21   -1    0    0  501  502  0.00000000000E+00  0.00000000000E+00  0.16121939795E+03  0.16121939795E+03  0.00000000000E+00 0. -1.
         21   -1    0    0  502  503 -0.00000000000E+00 -0.00000000000E+00 -0.36034589755E+03  0.36034589755E+03  0.00000000000E+00 0.  1.
         -6    2    1    2    0  503  0.22967652025E+02  0.41473063601E+02 -0.27513855850E+03  0.32694355085E+03  0.17012739645E+03 0.  0.
        -24    2    3    3    0    0  0.51999947408E+02  0.78370453141E+02 -0.15616354535E+03  0.19895356967E+03  0.79684048151E+02 0.  0.
          6    2    1    2  501    0 -0.22967652025E+02 -0.41473063601E+02  0.76012058898E+02  0.19462174466E+03  0.17277807254E+03 0.  0.
         24    2    5    5    0    0  0.12749737861E+02 -0.82741544590E+02  0.22397338916E+02  0.11797027590E+03  0.80041402966E+02 0.  0.
          5    1    5    5  501    0 -0.35717389886E+02  0.41268480989E+02  0.53614719982E+02  0.76651468754E+02  0.47000000000E+01 0. -1.
        -11    1    6    6    0    0 -0.38858493527E+00 -0.94119225805E+02  0.63815292731E+01  0.94336120231E+02  0.00000000000E+00 0.  1.
         12    1    6    6    0    0  0.13138322797E+02  0.11377681214E+02  0.16015809643E+02  0.23634155670E+02  0.00000000000E+00 0. -1.
         -5    1    3    3    0  503 -0.29032295382E+02 -0.36897389540E+02 -0.11897501314E+03  0.12798998118E+03  0.47000000000E+01 0.  1.
         13    1    4    4    0    0  0.31039501281E+02 -0.96437035407E+01 -0.35416646148E+02  0.48070682148E+02  0.00000000000E+00 0. -1.
        -14    1    4    4    0    0  0.20960446126E+02  0.88014156682E+02 -0.12074689921E+03  0.15088288752E+03  0.00000000000E+00 0.  1.
</event>
<event>
12    1  0.8500177E-002  0.1854536E+03  0.7818608E-02  0.1162647E+00
         21   -1    0    0  501  502  0.00000000000E+00  0.00000000000E+00  0.36143221868E+03  0.36143221868E+03  0.00000000000E+00 0. -1.
         21   -1    0    0  502  503 -0.00000000000E+00 -0.00000000000E+00 -0.15708076739E+03  0.15708076739E+03  0.00000000000E+00 0. -1.
         -6    2    1    2    0  503  0.12828769455E+02  0.68676514385E+02 -0.60646008698E+02  0.19511788619E+03  0.17179059982E+03 0.  0.
        -24    2    3    3    0    0  0.44036159566E+02 -0.11595446062E+02 -0.55632922700E+02  0.10871933376E+03  0.81555096261E+02 0.  0.
          6    2    1    2  501    0 -0.12828769455E+02 -0.68676514385E+02  0.26499745998E+03  0.32339509988E+03  0.17169652261E+03 0.  0.
         24    2    5    5    0    0  0.43504000467E+02 -0.13020775314E+01  0.98544871726E+02  0.13513663434E+03  0.81587528065E+02 0.  0.
          5    1    5    5  501    0 -0.56332769922E+02 -0.67374436853E+02  0.16645258826E+03  0.18825846554E+03  0.47000000000E+01 0. -1.
        -11    1    6    6    0    0  0.63871256623E+02 -0.17678767065E+02  0.68394639685E+02  0.95236038164E+02  0.00000000000E+00 0.  1.
         12    1    6    6    0    0 -0.20367256156E+02  0.16376689534E+02  0.30150232041E+02  0.39900596180E+02  0.00000000000E+00 0. -1.
         -5    1    3    3    0  503 -0.31207390111E+02  0.80271960447E+02 -0.50130859977E+01  0.86398552434E+02  0.47000000000E+01 0.  1.
         11    1    4    4    0    0 -0.12124081052E+02  0.58214702754E+00 -0.49455088027E+02  0.50922862924E+02  0.00000000000E+00 0. -1.
        -12    1    4    4    0    0  0.56160240619E+02 -0.12177593090E+02 -0.61778346724E+01  0.57796470836E+02  0.00000000000E+00 0.  1.
</event>
<event>
12    1  0.8500177E-002  0.2124236E+03  0.7818608E-02  0.1139923E+00
         21   -1    0    0  501  502  0.00000000000E+00  0.00000000000E+00  0.10997283498E+04  0.10997283498E+04  0.00000000000E+00 0.  1.
         21   -1    0    0  502  503 -0.00000000000E+00 -0.00000000000E+00 -0.42559757846E+02  0.42559757846E+02  0.00000000000E+00 0. -1.
         -6    2    1    2    0  503  0.98403827259E+02  0.75446024142E+02  0.64399353393E+03  0.67770503691E+03  0.17082455777E+03 0.  0.
        -24    2    3    3    0    0  0.80314936391E+02  0.11331633583E+03  0.38410613832E+03  0.41440878385E+03  0.70043084346E+02 0.  0.
          6    2    1    2  501    0 -0.98403827259E+02 -0.75446024142E+02  0.41317505803E+03  0.46458307074E+03  0.17247720215E+03 0.  0.
         24    2    5    5    0    0 -0.11415790972E+03 -0.44026415221E+02  0.40096341255E+03  0.42707844137E+03  0.81571951628E+02 0.  0.
          5    1    5    5  501    0  0.15754082458E+02 -0.31419608921E+02  0.12211645485E+02  0.37504629371E+02  0.47000000000E+01 0. -1.
        -11    1    6    6    0    0  0.78765929827E+01  0.90077350197E+01  0.57705253193E+02  0.58932811347E+02  0.00000000000E+00 0.  1.
         12    1    6    6    0    0 -0.12203450270E+03 -0.53034150241E+02  0.34325815935E+03  0.36814563002E+03  0.00000000000E+00 0. -1.
         -5    1    3    3    0  503  0.18088890868E+02 -0.37870311685E+02  0.25988739561E+03  0.26329625307E+03  0.47000000000E+01 0.  1.
         13    1    4    4    0    0  0.36259589261E+02  0.10805664593E+02  0.53842937461E+02  0.65807158541E+02  0.00000000000E+00 0. -1.
        -14    1    4    4    0    0  0.44055347130E+02  0.10251067123E+03  0.33026320085E+03  0.34860162531E+03  0.00000000000E+00 0.  1.
</event>
<event>
12    1  0.8500177E-002  0.2769458E+03  0.7818608E-02  0.1097500E+00
         21   -1    0    0  503  502  0.00000000000E+00  0.00000000000E+00  0.48901990063E+03  0.48901990063E+03  0.00000000000E+00 0.  1.
         21   -1    0    0  501  503 -0.00000000000E+00 -0.00000000000E+00 -0.19439024716E+03  0.19439024716E+03  0.00000000000E+00 0. -1.
          6    2    1    2  501    0  0.19061909608E+03 -0.10149038977E+03 -0.37242515182E+01  0.27697080507E+03  0.17338690207E+03 0.  0.
         24    2    3    3    0    0  0.20428575668E+02 -0.94954277399E+01  0.25835315621E+02  0.81206292750E+02  0.73617311803E+02 0.  0.
         -6    2    1    2    0  502 -0.19061909608E+03  0.10149038977E+03  0.29835390499E+03  0.40643934272E+03  0.17187771142E+03 0.  0.
        -24    2    5    5    0    0 -0.18937192836E+03  0.34373269014E+02  0.23962230192E+03  0.31712106617E+03  0.78126014628E+02 0.  0.
          5    1    3    3  501    0  0.17019052041E+03 -0.91994962026E+02 -0.29559567140E+02  0.19576451232E+03  0.47000000000E+01 0. -1.
        -13    1    4    4    0    0 -0.12034071625E+02 -0.16436432789E+02  0.40175521671E+02  0.45044952483E+02  0.00000000000E+00 0.  1.
         14    1    4    4    0    0  0.32462647293E+02  0.69410050489E+01 -0.14340206050E+02  0.36161340267E+02  0.00000000000E+00 0. -1.
         -5    1    5    5    0  502 -0.12471677192E+01  0.67117120752E+02  0.58731603068E+02  0.89318276541E+02  0.47000000000E+01 0.  1.
         11    1    6    6    0    0 -0.91010320533E+02  0.49201247254E+01  0.56666476350E+02  0.10732276372E+03  0.00000000000E+00 0. -1.
        -12    1    6    6    0    0 -0.98361607825E+02  0.29453144289E+02  0.18295582557E+03  0.20979830245E+03  0.00000000000E+00 0.  1.
</event>
<event>
12    1  0.8500177E-002  0.2381190E+03  0.7818608E-02  0.1121154E+00
         21   -1    0    0  501  502  0.00000000000E+00  0.00000000000E+00  0.50717847843E+02  0.50717847843E+02  0.00000000000E+00 0. -1.
         21   -1    0    0  502  503 -0.00000000000E+00 -0.00000000000E+00 -0.13759987731E+04  0.13759987731E+04  0.00000000000E+00 0.  1.
         -6    2    1    2    0  503 -0.11434624391E+03 -0.11565989911E+03 -0.97393547633E+03  0.10026220452E+04  0.17392060736E+03 0.  0.
        -24    2    3    3    0    0 -0.12725859458E+03 -0.65068050822E+02 -0.87945797383E+03  0.89457412807E+03  0.79924600378E+02 0.  0.
          6    2    1    2  501    0  0.11434624391E+03  0.11565989911E+03 -0.35134544895E+03  0.42409457579E+03  0.17309046466E+03 0.  0.
         24    2    5    5    0    0  0.84150070109E+01  0.90357414488E+00 -0.10865237783E+03  0.13545560088E+03  0.80444091210E+02 0.  0.
          5    1    5    5  501    0  0.10593123690E+03  0.11475632496E+03 -0.24269307112E+03  0.28863897491E+03  0.47000000000E+01 0. -1.
        -13    1    6    6    0    0  0.28004524976E+02  0.26504200812E+02 -0.90705536037E+02  0.98560744455E+02  0.00000000000E+00 0.  1.
         14    1    6    6    0    0 -0.19589517965E+02 -0.25600626667E+02 -0.17946841796E+02  0.36894856420E+02  0.00000000000E+00 0. -1.
         -5    1    3    3    0  503  0.12912350671E+02 -0.50591848284E+02 -0.94477502498E+02  0.10804791711E+03  0.47000000000E+01 0.  1.
         13    1    4    4    0    0 -0.19243462871E+02 -0.43006068450E+02 -0.16260240620E+03  0.16929080096E+03  0.00000000000E+00 0. -1.
        -14    1    4    4    0    0 -0.10801513171E+03 -0.22061982372E+02 -0.71685556763E+03  0.72528332711E+03  0.00000000000E+00 0.  1.
</event>
<event>
12    1  0.8500177E-002  0.1994776E+03  0.7818608E-02  0.1150473E+00
         21   -1    0    0  503  502  0.00000000000E+00  0.00000000000E+00  0.30287890405E+03  0.30287890405E+03  0.00000000000E+00 0. -1.
         21   -1    0    0  501  503 -0.00000000000E+00 -0.00000000000E+00 -0.24671867858E+03  0.24671867858E+03  0.00000000000E+00 0. -1.
          6    2    1    2  501    0  0.70258260096E+02 -0.68709590224E+02 -0.16059811346E+03  0.25502081403E+03  0.17200764704E+03 0.  0.
         24    2    3    3    0    0  0.79534972162E+02 -0.73068864858E+01 -0.38975619187E+02  0.11838088383E+03  0.78203148131E+02 0.  0.
         -6    2    1    2    0  502 -0.70258260096E+02  0.68709590224E+02  0.21675833893E+03  0.29457676861E+03  0.17359165938E+03 0.  0.
        -24    2    5    5    0    0 -0.28479919611E+02 -0.11241535064E+02  0.17623499604E+03  0.19557250866E+03  0.79071830535E+02 0.  0.
          5    1    3    3  501    0 -0.92767120657E+01 -0.61402703738E+02 -0.12162249427E+03  0.13663993020E+03  0.47000000000E+01 0. -1.
        -11    1    4    4    0    0 -0.41428831046E+01 -0.23897881325E+02  0.77643685926E+00  0.24266748163E+02  0.00000000000E+00 0.  1.
         12    1    4    4    0    0  0.83677855266E+02  0.16590994839E+02 -0.39752056046E+02  0.94114135663E+02  0.00000000000E+00 0. -1.
         -5    1    5    5    0  502 -0.41778340485E+02  0.79951125287E+02  0.40523342891E+02  0.99004259946E+02  0.47000000000E+01 0.  1.
         11    1    6    6    0    0 -0.42573408231E+02  0.22445536337E+02  0.94431276890E+02  0.10598850525E+03  0.00000000000E+00 0. -1.
        -12    1    6    6    0    0  0.14093488620E+02 -0.33687071400E+02  0.81803719147E+02  0.89584003412E+02  0.00000000000E+00 0.  1.
</event>
<event>
12    1  0.8500177E-002  0.1726893E+03  0.7818608E-02  0.1175170E+00
         21   -1    0    0  503  502  0.00000000000E+00  0.00000000000E+00  0.54610976762E+03  0.54610976762E+03  0.00000000000E+00 0. -1.
         21   -1    0    0  501  503 -0.00000000000E+00 -0.00000000000E+00 -0.61566846025E+02  0.61566846025E+02  0.00000000000E+00 0. -1.
          6    2    1    2  501    0  0.11992496364E+02 -0.12301204588E+02  0.13899803072E+03  0.22138287706E+03  0.17144907730E+03 0.  0.
         24    2    3    3    0    0  0.70187195301E+02  0.13084592104E+02  0.96869339970E+02  0.14504168083E+03  0.80968952177E+02 0.  0.
         -6    2    1    2    0  502 -0.11992496364E+02  0.12301204588E+02  0.34554489087E+03  0.38629373658E+03  0.17183259211E+03 0.  0.
        -24    2    5    5    0    0 -0.20407595466E+02  0.35001583250E+02  0.78227774665E+02  0.11784140990E+03  0.78265141508E+02 0.  0.
          5    1    3    3  501    0 -0.58194698936E+02 -0.25385796692E+02  0.42128690751E+02  0.76341196233E+02  0.47000000000E+01 0. -1.
        -13    1    4    4    0    0  0.49817059515E+02 -0.11121397886E+02  0.10097172361E+03  0.11314023988E+03  0.00000000000E+00 0.  1.
         14    1    4    4    0    0  0.20370135785E+02  0.24205989990E+02 -0.41023836435E+01  0.31901440952E+02  0.00000000000E+00 0. -1.
         -5    1    5    5    0  502  0.84150991012E+01 -0.22700378662E+02  0.26731711621E+03  0.26845232668E+03  0.47000000000E+01 0.  1.
         11    1    6    6    0    0 -0.47400834268E+02  0.24408574659E+02  0.69428870832E+02  0.87538481316E+02  0.00000000000E+00 0. -1.
        -12    1    6    6    0    0  0.26993238802E+02  0.10593008591E+02  0.87989038332E+01  0.30302928583E+02  0.00000000000E+00 0.  1.
</event>
<event>
12    1  0.8500177E-002  0.1956471E+03  0.7818608E-02  0.1154334E+00
         21   -1    0    0  501  502  0.00000000000E+00  0.00000000000E+00  0.86735050472E+02  0.86735050472E+02  0.00000000000E+00 0. -1.
         21   -1    0    0  502  503 -0.00000000000E+00 -0.00000000000E+00 -0.45437334527E+03  0.45437334527E+03  0.00000000000E+00 0. -1.
         -6    2    1    2    0  503 -0.36454375450E+01  0.79912742700E+02 -0.12256907303E+03  0.22752152741E+03  0.17419394970E+03 0.  0.
        -24    2    3    3    0    0  0.52119738720E+02  0.20757983483E+01 -0.53367194696E+02  0.10928729060E+03  0.79842835080E+02 0.  0.
          6    2    1    2  501    0  0.36454375450E+01 -0.79912742700E+02 -0.24506922178E+03  0.31358686834E+03  0.17854541403E+03 0.  0.
         24    2    5    5    0    0 -0.11681575082E+02  0.65696738553E+01 -0.38552771231E+02  0.89120256041E+02  0.79224264315E+02 0.  0.
          5    1    5    5  501    0  0.15327012627E+02 -0.86482416556E+02 -0.20651645055E+03  0.22446661230E+03  0.47000000000E+01 0. -1.
        -13    1    6    6    0    0 -0.27681647669E+02  0.29933293864E+02 -0.44321105212E+02  0.60221558153E+02  0.00000000000E+00 0.  1.
         14    1    6    6    0    0  0.16000072587E+02 -0.23363620008E+02  0.57683339814E+01  0.28898697888E+02  0.00000000000E+00 0. -1.
         -5    1    3    3    0  503 -0.55765176265E+02  0.77836944352E+02 -0.69201878330E+02  0.11823423681E+03  0.47000000000E+01 0.  1.
         13    1    4    4    0    0 -0.81468585401E+01  0.22841900689E+02 -0.35668375137E+02  0.43131852686E+02  0.00000000000E+00 0. -1.
        -14    1    4    4    0    0  0.60266597260E+02 -0.20766102341E+02 -0.17698819559E+02  0.66155437913E+02  0.00000000000E+00 0.  1.
</event>
<event>
12    1  0.8500177E-002  0.1828360E+03  0.7818608E-02  0.1165118E+00
         21   -1    0    0  503  502  0.00000000000E+00  0.00000000000E+00  0.15120781726E+03  0.15120781726E+03  0.00000000000E+00 0.  1.
         21   -1    0    0  501  503 -0.00000000000E+00 -0.00000000000E+00 -0.28952994017E+03  0.28952994017E+03  0.00000000000E+00 0.  1.
          6    2    1    2  501    0  0.61810628080E+02 -0.12887448665E+02 -0.17641884363E+03  0.25397487336E+03  0.17144383288E+03 0.  0.
         24    2    3    3    0    0  0.78629706596E+02 -0.19206072942E+02 -0.46437103265E+02  0.12267312454E+03  0.79629058307E+02 0.  0.
         -6    2    1    2    0  502 -0.61810628080E+02  0.12887448665E+02  0.38096720719E+02  0.18676288406E+03  0.17158780451E+03 0.  0.
        -24    2    5    5    0    0 -0.66359265253E+01 -0.25637732192E+02  0.71351745126E+02  0.11155368316E+03  0.81558714201E+02 0.  0.
          5    1    3    3  501    0 -0.16819078515E+02  0.63186242763E+01 -0.12998174036E+03  0.13130174882E+03  0.47000000000E+01 0. -1.
        -11    1    4    4    0    0  0.81202489695E+02  0.39382046379E+01 -0.54674006420E+02  0.97972449017E+02  0.00000000000E+00 0.  1.
         12    1    4    4    0    0 -0.25727830990E+01 -0.23144277579E+02  0.82369031550E+01  0.24700675520E+02  0.00000000000E+00 0. -1.
         -5    1    5    5    0  502 -0.55174701555E+02  0.38525180857E+02 -0.33255024407E+02  0.75209200901E+02  0.47000000000E+01 0.  1.
         13    1    6    6    0    0 -0.15863395049E+02 -0.35132990556E+02 -0.44036543122E+00  0.38550852774E+02  0.00000000000E+00 0. -1.
        -14    1    6    6    0    0  0.92274685233E+01  0.94952583638E+01  0.71792110557E+02  0.73002830390E+02  0.00000000000E+00 0.  1.
</event>
<event>
12    1  0.8500177E-002  0.3079639E+03  0.7818608E-02  0.1082391E+00
         21   -1    0    0  501  502  0.00000000000E+00  0.00000000000E+00  0.98967279223E+02  0.98967279223E+02  0.00000000000E+00 0.  1.
         21   -1    0    0  502  503 -0.00000000000E+00 -0.00000000000E+00 -0.11872278211E+04  0.11872278211E+04  0.00000000000E+00 0. -1.
         -6    2    1    2    0  503 -0.74895147810E+02  0.23260786575E+03 -0.84868315576E+03  0.90283159557E+03  0.18741955265E+03 0.  0.
        -24    2    3    3    0    0 -0.12477555440E+03  0.16810866031E+03 -0.56261646717E+03  0.60533463292E+03  0.77866989401E+02 0.  0.
          6    2    1    2  501    0  0.74895147810E+02 -0.23260786575E+03 -0.23957738614E+03  0.38336350477E+03  0.17278469397E+03 0.  0.
         24    2    5    5    0    0  0.83372647523E+02 -0.23302495447E+03 -0.25599295158E+03  0.36429513429E+03  0.76986530295E+02 0.  0.
          5    1    5    5  501    0 -0.84774997138E+01  0.41708872085E+00  0.16415565439E+02  0.19068370488E+02  0.47000000000E+01 0. -1.
        -11    1    6    6    0    0  0.24053658528E+01 -0.11006400634E+03 -0.13142529067E+03  0.17144234688E+03  0.00000000000E+00 0.  1.
         12    1    6    6    0    0  0.80967281671E+02 -0.12296094813E+03 -0.12456766091E+03  0.19285278740E+03  0.00000000000E+00 0. -1.
         -5    1    3    3    0  503  0.49880406587E+02  0.64499205436E+02 -0.28606668858E+03  0.29749696264E+03  0.47000000000E+01 0.  1.
         13    1    4    4    0    0 -0.30295614352E+02  0.10505778100E+03 -0.29498950905E+03  0.31460097274E+03  0.00000000000E+00 0. -1.
        -14    1    4    4    0    0 -0.94479940045E+02  0.63050879318E+02 -0.26762695812E+03  0.29073366019E+03  0.00000000000E+00 0.  1.
</event>
<event>
12    1  0.8500177E-002  0.2206895E+03  0.7818608E-02  0.1134446E+00
         21   -1    0    0  501  502  0.00000000000E+00  0.00000000000E+00  0.31911278751E+03  0.31911278751E+03  0.00000000000E+00 0. -1.
         21   -1    0    0  502  503 -0.00000000000E+00 -0.00000000000E+00 -0.14909884240E+03  0.14909884240E+03  0.00000000000E+00 0.  1.
         -6    2    1    2    0  503  0.11574742822E+03  0.58195611099E+02  0.98301015744E+02  0.24159256364E+03  0.17866079821E+03 0.  0.
        -24    2    3    3    0    0  0.36907037406E+02 -0.32933952135E+01 -0.14503808142E+02  0.90782340465E+02  0.81597163110E+02 0.  0.
          6    2    1    2  501    0 -0.11574742822E+03 -0.58195611099E+02  0.71712929360E+02  0.22661906627E+03  0.17154958662E+03 0.  0.
         24    2    5    5    0    0 -0.21852296120E+02 -0.14408436158E+02 -0.23190433836E+02  0.86040437498E+02  0.78613197271E+02 0.  0.
          5    1    5    5  501    0 -0.93895132102E+02 -0.43787174941E+02  0.94903363196E+02  0.14057862877E+03  0.47000000000E+01 0. -1.
        -11    1    6    6    0    0 -0.28374868058E+02  0.27402677816E+02 -0.42391191571E+01  0.39673795130E+02  0.00000000000E+00 0.  1.
         12    1    6    6    0    0  0.65225719381E+01 -0.41811113974E+02 -0.18951314679E+02  0.46366642368E+02  0.00000000000E+00 0. -1.
         -5    1    3    3    0  503  0.78840390816E+02  0.61489006312E+02  0.11280482389E+03  0.15081022317E+03  0.47000000000E+01 0.  1.
         11    1    4    4    0    0 -0.22158524717E+02  0.10339772282E+02 -0.17532526806E+02  0.30088213717E+02  0.00000000000E+00 0. -1.
        -12    1    4    4    0    0  0.59065562123E+02 -0.13633167495E+02  0.30287186642E+01  0.60694126748E+02  0.00000000000E+00 0.  1.
</event>
<event>
12    1  0.8500177E-002  0.2163161E+03  0.7818608E-02  0.1136754E+00
         21   -1    0    0  503  502  0.00000000000E+00  0.00000000000E+00  0.16886882125E+03  0.16886882125E+03  0.00000000000E+00 0.  1.
         21   -1    0    0  501  503 -0.00000000000E+00 -0.00000000000E+00 -0.41356595381E+03  0.41356595381E+03  0.00000000000E+00 0. -1.
          6    2    1    2  501    0  0.56990804225E-01 -0.12853688964E+03 -0.29012022948E+03  0.36188728719E+03  0.17398541844E+03 0.  0.
         24    2    3    3    0    0 -0.37880847024E+02 -0.85414055269E+02 -0.88979785749E+02  0.15265433929E+03  0.81580792001E+02 0.  0.
         -6    2    1    2    0  502 -0.56990804225E-01  0.12853688964E+03  0.45423096915E+02  0.22054748787E+03  0.17336724438E+03 0.  0.
        -24    2    5    5    0    0  0.42066929512E+02  0.71954618551E+02 -0.28391379155E+02  0.11833865781E+03  0.79062467907E+02 0.  0.
          5    1    3    3  501    0  0.37937837828E+02 -0.43122834374E+02 -0.20114044373E+03  0.20923294790E+03  0.47000000000E+01 0. -1.
        -11    1    4    4    0    0 -0.48703223808E+02 -0.51626267447E+02 -0.92956149371E+02  0.11695350019E+03  0.00000000000E+00 0.  1.
         12    1    4    4    0    0  0.10822376784E+02 -0.33787787821E+02  0.39763636217E+01  0.35700839105E+02  0.00000000000E+00 0. -1.
         -5    1    5    5    0  502 -0.42123920316E+02  0.56582271092E+02  0.73814476070E+02  0.10220883006E+03  0.47000000000E+01 0.  1.
         13    1    6    6    0    0 -0.12796775816E+02  0.25517268817E+02 -0.36128754488E+02  0.46045362199E+02  0.00000000000E+00 0. -1.
        -14    1    6    6    0    0  0.54863705328E+02  0.46437349734E+02  0.77373753336E+01  0.72293295607E+02  0.00000000000E+00 0.  1.
</event>
<event>
12    1  0.8500177E-002  0.1944774E+03  0.7818608E-02  0.1154550E+00
         21   -1    0    0  501  502  0.00000000000E+00  0.00000000000E+00  0.66062215414E+03  0.66062215414E+03  0.00000000000E+00 0. -1.
         21   -1    0    0  502  503 -0.00000000000E+00 -0.00000000000E+00 -0.58558001492E+02  0.58558001492E+02  0.00000000000E+00 0.  1.
         -6    2    1    2    0  503 -0.38912255434E+02 -0.82085698986E+02  0.24573930101E+03  0.31338357151E+03  0.17195706797E+03 0.  0.
        -24    2    3    3    0    0 -0.83358934134E+02 -0.56916158268E+02  0.10702551654E+03  0.16548963305E+03  0.75790477542E+02 0.  0.
          6    2    1    2  501    0  0.38912255434E+02  0.82085698986E+02  0.35632485164E+03  0.40579658413E+03  0.17161364222E+03 0.  0.
         24    2    5    5    0    0 -0.36183708244E+02  0.69698658221E+01  0.14664100001E+03  0.17069830726E+03  0.79224298331E+02 0.  0.
          5    1    5    5  501    0  0.75095963678E+02  0.75115833164E+02  0.20968385162E+03  0.23509827686E+03  0.47000000000E+01 0. -1.
        -13    1    6    6    0    0 -0.59700255347E+02  0.14517924637E+02  0.90735861473E+02  0.10958050548E+03  0.00000000000E+00 0.  1.
         14    1    6    6    0    0  0.23516547103E+02 -0.75480588151E+01  0.55905138541E+02  0.61117801784E+02  0.00000000000E+00 0. -1.
         -5    1    3    3    0  503  0.44446678700E+02 -0.25169540718E+02  0.13871378448E+03  0.14789393845E+03  0.47000000000E+01 0.  1.
         13    1    4    4    0    0  0.12436466836E+02 -0.20014977939E+02  0.20379232086E+02  0.31154103256E+02  0.00000000000E+00 0. -1.
        -14    1    4    4    0    0 -0.95795400971E+02 -0.36901180329E+02  0.86646284453E+02  0.13433552980E+03  0.00000000000E+00 0.  1.
</event>
<event>
12    1  0.8500177E-002  0.2156727E+03  0.7818608E-02  0.1137440E+00
         21   -1    0    0  501  502  0.00000000000E+00  0.00000000000E+00  0.24063280463E+03  0.24063280463E+03  0.00000000000E+00 0.  1.
         21   -1    0    0  502  503 -0.00000000000E+00 -0.00000000000E+00 -0.24631447808E+03  0.24631447808E+03  0.00000000000E+00 0. -1.
         -6    2    1    2    0  503  0.12643113832E+03  0.19244358424E+02 -0.11721274647E+03  0.24414308921E+03  0.17179011033E+03 0.  0.
        -24    2    3    3    0    0  0.72192922642E+02  0.35865245328E+02 -0.14236518469E+03  0.18191148093E+03  0.79534943125E+02 0.  0.
          6    2    1    2  501    0 -0.12643113832E+03 -0.19244358424E+02  0.11153107301E+03  0.24280419350E+03  0.17366495923E+03 0.  0.
         24    2    5    5    0    0 -0.14302613803E+03 -0.57952463875E+02  0.83787950548E+02  0.19215360330E+03  0.78023216911E+02 0.  0.
          5    1    5    5  501    0  0.16594999711E+02  0.38708105451E+02  0.27743122465E+02  0.50650590195E+02  0.47000000000E+01 0. -1.
        -11    1    6    6    0    0 -0.93630384448E+02 -0.75422930711E+02  0.63497676226E+02  0.13596772505E+03  0.00000000000E+00 0.  1.
         12    1    6    6    0    0 -0.49395753580E+02  0.17470466836E+02  0.20290274322E+02  0.56185878255E+02  0.00000000000E+00 0. -1.
         -5    1    3    3    0  503  0.54238215675E+02 -0.16620886904E+02  0.25152438226E+02  0.62231608285E+02  0.47000000000E+01 0.  1.
         11    1    4    4    0    0  0.25980104233E+02 -0.22005748582E+02 -0.21836066829E+02  0.40447899837E+02  0.00000000000E+00 0. -1.
        -12    1    4    4    0    0  0.46212818408E+02  0.57870993910E+02 -0.12052911787E+03  0.14146358109E+03  0.00000000000E+00 0.  1.
</event>
<event>
12    1  0.8500177E-002  0.1747870E+03  0.7818608E-02  0.1173662E+00
         21   -1    0    0  501  502  0.00000000000E+00  0.00000000000E+00  0.88991813350E+03  0.88991813350E+03  0.00000000000E+00 0.  1.
         21   -1    0    0  502  503 -0.00000000000E+00 -0.00000000000E+00 -0.10921728559E+03  0.10921728559E+03  0.00000000000E+00 0.  1.
         -6    2    1    2    0  503 -0.16647579270E+01  0.25549615139E+02 -0.23855124315E+02  0.17640736995E+03  0.17290152967E+03 0.  0.
        -24    2    3    3    0    0 -0.60366475053E+01 -0.47755478860E+02 -0.40238086847E+02  0.10102009194E+03  0.79176565141E+02 0.  0.
          6    2    1    2  501    0  0.16647579270E+01 -0.25549615139E+02  0.80455597223E+03  0.82272804914E+03  0.17004580600E+03 0.  0.
         24    2    5    5    0    0 -0.31289129880E+02  0.29974480361E+02  0.61068474779E+03  0.61833375967E+03  0.86736947385E+02 0.  0.
          5    1    5    5  501    0  0.32953887807E+02 -0.55524095500E+02  0.19387122445E+03  0.20439428948E+03  0.47000000000E+01 0. -1.
        -13    1    6    6    0    0 -0.33060711178E+02 -0.14981227866E+02  0.11454415833E+03  0.12015744680E+03  0.00000000000E+00 0.  1.
         14    1    6    6    0    0  0.17715812987E+01  0.44955708227E+02  0.49614058945E+03  0.49817631287E+03  0.00000000000E+00 0. -1.
         -5    1    3    3    0  503  0.43718895782E+01  0.73305093999E+02  0.16382962531E+02  0.75387278011E+02  0.47000000000E+01 0.  1.
         13    1    4    4    0    0 -0.38802509777E+02 -0.25001164726E+02 -0.26916571909E+01  0.46237841873E+02  0.00000000000E+00 0. -1.
        -14    1    4    4    0    0  0.32765862272E+02 -0.22754314133E+02 -0.37546429656E+02  0.54782250063E+02  0.00000000000E+00 0.  1.
</event>
<event>
12    1  0.8500177E-002  0.2384018E+03  0.7818608E-02  0.1120920E+00
         21   -1    0    0  503  502  0.00000000000E+00  0.00000000000E+00  0.35021140046E+03  0.35021140046E+03  0.00000000000E+00 0.  1.
         21   -1    0    0  501  503 -0.00000000000E+00 -0.00000000000E+00 -0.17036674681E+03  0.17036674681E+03  0.00000000000E+00 0.  1.
          6    2    1    2  501    0 -0.10581209961E+03 -0.12596916128E+03  0.14735962578E+03  0.27997324722E+03  0.17206315653E+03 0.  0.
         24    2    3    3    0    0 -0.50392103704E+02 -0.95482528254E+02  0.17474840471E+02  0.13542928092E+03  0.79871413936E+02 0.  0.
         -6    2    1    2    0  502  0.10581209961E+03  0.12596916128E+03  0.32485027869E+02  0.24060490005E+03  0.17254277985E+03 0.  0.
        -24    2    5    5    0    0  0.88147709148E+01  0.93003226430E+01 -0.11364937556E+02  0.82601706573E+02  0.80806459739E+02 0.  0.
          5    1    3    3  501    0 -0.55419995909E+02 -0.30486633023E+02  0.12988478531E+03  0.14454396630E+03  0.47000000000E+01 0. -1.
        -13    1    4    4    0    0 -0.16667104259E+02 -0.30167509453E+02 -0.31831729774E+02  0.46916202013E+02  0.00000000000E+00 0.  1.
         14    1    4    4    0    0 -0.33724999446E+02 -0.65315018801E+02  0.49306570245E+02  0.88513078909E+02  0.00000000000E+00 0. -1.
         -5    1    5    5    0  502  0.96997328698E+02  0.11666883863E+03  0.43849965425E+02  0.15800319348E+03  0.47000000000E+01 0.  1.
         13    1    6    6    0    0  0.43159669620E+02 -0.27413907938E+01 -0.15571737924E+02  0.45964674775E+02  0.00000000000E+00 0. -1.
        -14    1    6    6    0    0 -0.34344898706E+02  0.12041713437E+02  0.42068003676E+01  0.36637031797E+02  0.00000000000E+00 0.  1.
</event>
<event>
12    1  0.8500177E-002  0.3234630E+03  0.7818608E-02  0.1074193E+00
         21   -1    0    0  501  502  0.00000000000E+00  0.00000000000E+00  0.22801601719E+03  0.22801601719E+03  0.00000000000E+00 0. -1.
         21   -1    0    0  502  503 -0.00000000000E+00 -0.00000000000E+00 -0.70265271599E+03  0.70265271599E+03  0.00000000000E+00 0. -1.
         -6    2    1    2    0  503 -0.25916091244E+03  0.83350604379E+02 -0.51203455892E+03  0.60505102857E+03  0.17261418210E+03 0.  0.
        -24    2    3    3    0    0 -0.20302672432E+03  0.11731351796E+03 -0.45430546106E+03  0.51753379990E+03  0.80408145144E+02 0.  0.
          6    2    1    2  501    0  0.25916091244E+03 -0.83350604379E+02  0.37397860116E+02  0.32561770461E+03  0.17468997631E+03 0.  0.
         24    2    5    5    0    0  0.16610125714E+03 -0.95119928211E+02 -0.31210764437E+02  0.20930841954E+03  0.78730390002E+02 0.  0.
          5    1    5    5  501    0  0.93059655304E+02  0.11769323832E+02  0.68608624553E+02  0.11630928506E+03  0.47000000000E+01 0. -1.
        -11    1    6    6    0    0  0.82430225253E+02 -0.49518174224E+01 -0.24413821638E+02  0.86112120041E+02  0.00000000000E+00 0.  1.
         12    1    6    6    0    0  0.83671031884E+02 -0.90168110789E+02 -0.67969427996E+01  0.12319629950E+03  0.00000000000E+00 0. -1.
         -5    1    3    3    0  503 -0.56134188123E+02 -0.33962913577E+02 -0.57729097853E+02  0.87517228668E+02  0.47000000000E+01 0.  1.
         11    1    4    4    0    0 -0.12776490487E+03  0.49765457785E+02 -0.32956023866E+03  0.35694596595E+03  0.00000000000E+00 0. -1.
        -12    1    4    4    0    0 -0.75261819450E+02  0.67548060172E+02 -0.12474522241E+03  0.16058783395E+03  0.00000000000E+00 0.  1.
</event>
<event>
12    1  0.8500177E-002  0.2164149E+03  0.7818608E-02  0.1136876E+00
         21   -1    0    0  503  502  0.00000000000E+00  0.00000000000E+00  0.67784670709E+03  0.67784670709E+03  0.00000000000E+00 0. -1.
         21   -1    0    0  501  503 -0.00000000000E+00 -0.00000000000E+00 -0.73260815457E+02  0.73260815457E+02  0.00000000000E+00 0.  1.
          6    2    1    2  501    0  0.77968697020E+02  0.10456571294E+03  0.20864720664E+03  0.30061446357E+03  0.17269132240E+03 0.  0.
         24    2    3    3    0    0  0.12507425058E+02  0.12180120160E+03  0.12017633646E+03  0.18911816288E+03  0.79569839094E+02 0.  0.
         -6    2    1    2    0  502 -0.77968697020E+02 -0.10456571294E+03  0.39593868499E+03  0.45049305897E+03  0.17077308885E+03 0.  0.
        -24    2    5    5    0    0 -0.17260821326E+02 -0.82627775383E+01  0.26205201537E+03  0.27468796280E+03  0.80099991902E+02 0.  0.
          5    1    3    3  501    0  0.65461271962E+02 -0.17235488663E+02  0.88470870184E+02  0.11149630069E+03  0.47000000000E+01 0. -1.
        -13    1    4    4    0    0  0.33071779236E+02  0.67488657370E+02  0.28061272177E+02  0.80224039113E+02  0.00000000000E+00 0.  1.
         14    1    4    4    0    0 -0.20564354178E+02  0.54312544235E+02  0.92115064280E+02  0.10889412377E+03  0.00000000000E+00 0. -1.
         -5    1    5    5    0  502 -0.60707875694E+02 -0.96302935404E+02  0.13388666962E+03  0.17580509618E+03  0.47000000000E+01 0.  1.
         13    1    6    6    0    0 -0.16142979783E+02  0.35082251000E+02  0.13661591340E+03  0.14196924993E+03  0.00000000000E+00 0. -1.
        -14    1    6    6    0    0 -0.11178415425E+01 -0.43345028538E+02  0.12543610197E+03  0.13271871287E+03  0.00000000000E+00 0.  1.
</event>
<event>
12    1  0.8500177E-002  0.2545102E+03  0.7818608E-02  0.1110869E+00
         21   -1    0    0  501  502  0.00000000000E+00  0.00000000000E+00  0.35804257895E+03  0.35804257895E+03  0.00000000000E+00 0.  1.
         21   -1    0    0  502  503 -0.00000000000E+00 -0.00000000000E+00 -0.24634895793E+03  0.24634895793E+03  0.00000000000E+00 0. -1.
         -6    2    1    2    0  503  0.11396716874E+03 -0.14600441544E+03  0.21384944024E+03  0.33242599374E+03  0.17455558813E+03 0.  0.
        -24    2    3    3    0    0 -0.84363943233E+00 -0.48354085262E+02  0.80157978265E+02  0.13090029895E+03  0.91491843884E+02 0.  0.
          6    2    1    2  501    0 -0.11396716874E+03  0.14600441544E+03 -0.10215581922E+03  0.27196554314E+03  0.17094923334E+03 0.  0.
         24    2    5    5    0    0 -0.60746125719E+02  0.35677644586E+02  0.77540045152E+01  0.10732431155E+03  0.80594026770E+02 0.  0.
          5    1    5    5  501    0 -0.53221043017E+02  0.11032677085E+03 -0.10990982373E+03  0.16464123159E+03  0.47000000000E+01 0. -1.
        -11    1    6    6    0    0  0.16470322021E+02  0.20183673828E+01  0.15536679383E+02  0.22731777770E+02  0.00000000000E+00 0.  1.
         12    1    6    6    0    0 -0.77216447740E+02  0.33659277203E+02 -0.77826748673E+01  0.84592533781E+02  0.00000000000E+00 0. -1.
         -5    1    3    3    0  503  0.11481080817E+03 -0.97650330174E+02  0.13369146197E+03  0.20152569479E+03  0.47000000000E+01 0.  1.
         11    1    4    4    0    0 -0.25697981450E+02  0.17554956293E+02  0.13509839925E+02  0.33927548038E+02  0.00000000000E+00 0. -1.
        -12    1    4    4    0    0  0.24854342017E+02 -0.65909041555E+02  0.66648138340E+02  0.96972750915E+02  0.00000000000E+00 0.  1.
</event>
<event>
12    1  0.8500177E-002  0.2438796E+03  0.7818608E-02  0.1117379E+00
         21   -1    0    0  501  502  0.00000000000E+00  0.00000000000E+00  0.87788669103E+02  0.87788669103E+02  0.00000000000E+00 0. -1.
         21   -1    0    0  502  503 -0.00000000000E+00 -0.00000000000E+00 -0.76751389677E+03  0.76751389677E+03  0.00000000000E+00 0. -1.
         -6    2    1    2    0  503  0.13100240408E+03  0.11305742455E+03 -0.48882356618E+03  0.54628358647E+03  0.17185362048E+03 0.  0.
        -24    2    3    3    0    0  0.16088378145E+03  0.10455919413E+03 -0.45129801991E+03  0.49734103589E+03  0.82837111250E+02 0.  0.
          6    2    1    2  501    0 -0.13100240408E+03 -0.11305742455E+03 -0.19090166149E+03  0.30901897941E+03  0.17060385153E+03 0.  0.
         24    2    5    5    0    0 -0.64132331990E+02 -0.61983485001E+02 -0.18677765686E+03  0.22464332382E+03  0.87314497153E+02 0.  0.
          5    1    5    5  501    0 -0.66870072085E+02 -0.51073939549E+02 -0.41240046229E+01  0.84375655588E+02  0.47000000000E+01 0. -1.
        -13    1    6    6    0    0  0.16781905672E+02 -0.28853993233E+02 -0.28810925469E+02  0.44093703744E+02  0.00000000000E+00 0.  1.
         14    1    6    6    0    0 -0.80914237662E+02 -0.33129491767E+02 -0.15796673139E+03  0.18054962007E+03  0.00000000000E+00 0. -1.
         -5    1    3    3    0  503 -0.29881377370E+02  0.84982304196E+01 -0.37525546277E+02  0.48942550579E+02  0.47000000000E+01 0.  1.
         13    1    4    4    0    0  0.58341486118E+02  0.66450922915E+02 -0.12441403617E+03  0.15263782806E+03  0.00000000000E+00 0. -1.
        -14    1    4    4    0    0  0.10254229533E+03  0.38108271216E+02 -0.32688398373E+03  0.34470320783E+03  0.00000000000E+00 0.  1.
</event>
<event>
12    1  0.8500177E-002  0.2526579E+03  0.7818608E-02  0.1111657E+00
         21   -1    0    0  501  502  0.00000000000E+00  0.00000000000E+00  0.33370004983E+03  0.33370004983E+03  0.00000000000E+00 0.  1.
         21   -1    0    0  502  503 -0.00000000000E+00 -0.00000000000E+00 -0.25428221147E+03  0.25428221147E+03  0.00000000000E+00 0.  1.
         -6    2    1    2    0  503  0.18220419577E+03  0.25401829717E+02  0.18613060759E+03  0.31371302655E+03  0.17299606365E+03 0.  0.
        -24    2    3    3    0    0  0.12284090422E+03 -0.49043010595E+02  0.12747351295E+03  0.20178099635E+03  0.83492331070E+02 0.  0.
          6    2    1    2  501    0 -0.18220419577E+03 -0.25401829717E+02 -0.10671276923E+03  0.27426923475E+03  0.17318307108E+03 0.  0.
         24    2    5    5    0    0 -0.19892980654E+03  0.37829343558E+01 -0.10837675610E+03  0.24026400924E+03  0.79961830600E+02 0.  0.
          5    1    5    5  501    0  0.16725610772E+02 -0.29184764073E+02  0.16639868694E+01  0.34005225510E+02  0.47000000000E+01 0. -1.
        -13    1    6    6    0    0 -0.19820900789E+03  0.82199364113E+01 -0.83923237842E+02  0.21540076140E+03  0.00000000000E+00 0.  1.
         14    1    6    6    0    0 -0.72079864771E+00 -0.44370020555E+01 -0.24453518257E+02  0.24863247838E+02  0.00000000000E+00 0. -1.
         -5    1    3    3    0  503  0.59363291551E+02  0.74444840312E+02  0.58657094638E+02  0.11193203020E+03  0.47000000000E+01 0.  1.
         11    1    4    4    0    0  0.12470881871E+03 -0.60762704666E+02  0.97546778779E+02  0.16958705667E+03  0.00000000000E+00 0. -1.
        -12    1    4    4    0    0 -0.18679144906E+01  0.11719694072E+02  0.29926734171E+02  0.32193939675E+02  0.00000000000E+00 0.  1.
</event>
<event>
12    1  0.8500177E-002  0.2563263E+03  0.7818608E-02  0.1110986E+00
         21   -1    0    0  503  502  0.00000000000E+00  0.00000000000E+00  0.18283879366E+03  0.18283879366E+03  0.00000000000E+00 0. -1.
         21   -1    0    0  501  503 -0.00000000000E+00 -0.00000000000E+00 -0.63382876329E+03  0.63382876329E+03  0.00000000000E+00 0. -1.
          6    2    1    2  501    0 -0.18967496700E+03 -0.13733448598E+02 -0.49857520002E+03  0.55596170064E+03  0.15604801117E+03 0.  0.
         24    2    3    3    0    0 -0.65357964589E+02 -0.33208104250E+02 -0.31766541540E+03  0.33554296398E+03  0.79393468319E+02 0.  0.
         -6    2    1    2    0  502  0.18967496700E+03  0.13733448598E+02  0.47585230383E+02  0.26070585632E+03  0.17186619402E+03 0.  0.
        -24    2    5    5    0    0  0.31817859382E+02 -0.84972115854E+01  0.51486554180E+02  0.10117410710E+03  0.80627265281E+02 0.  0.
          5    1    3    3  501    0 -0.12431700242E+03  0.19474655652E+02 -0.18090978462E+03  0.22041873666E+03  0.47000000000E+01 0. -1.
        -13    1    4    4    0    0 -0.15904897146E+02  0.24513028078E+02 -0.12627501950E+03  0.12961186230E+03  0.00000000000E+00 0.  1.
         14    1    4    4    0    0 -0.49453067443E+02 -0.57721132328E+02 -0.19139039590E+03  0.20593110168E+03  0.00000000000E+00 0. -1.
         -5    1    5    5    0  502  0.15785710762E+03  0.22230660183E+02 -0.39013237967E+01  0.15953174921E+03  0.47000000000E+01 0.  1.
         11    1    6    6    0    0  0.39710491027E+02 -0.28135365619E+02  0.60944609784E+02  0.77992098047E+02  0.00000000000E+00 0. -1.
        -12    1    6    6    0    0 -0.78926316446E+01  0.19638154034E+02 -0.94580556040E+01  0.23182009057E+02  0.00000000000E+00 0.  1.
</event>
<event>
12    1  0.8500177E-002  0.2062787E+03  0.7818608E-02  0.1144678E+00
         21   -1    0    0  503  502  0.00000000000E+00  0.00000000000E+00  0.46034858970E+02  0.46034858970E+02  0.00000000000E+00 0. -1.
         21   -1    0    0  501  503 -0.00000000000E+00 -0.00000000000E+00 -0.99316766779E+03  0.99316766779E+03  0.00000000000E+00 0. -1.
          6    2    1    2  501    0 -0.19892269787E+01  0.11275655722E+03 -0.61252833024E+03  0.64612358883E+03  0.17194981383E+03 0.  0.
         24    2    3    3    0    0  0.75476305036E+00  0.12942979678E+03 -0.34089391678E+03  0.37392353194E+03  0.82810043316E+02 0.  0.
         -6    2    1    2    0  502  0.19892269787E+01 -0.11275655722E+03 -0.33460447858E+03  0.39307893793E+03  0.17272201984E+03 0.  0.
        -24    2    5    5    0    0  0.27399042617E+02  0.11659720713E+02 -0.10180984222E+03  0.12786109980E+03  0.71390197125E+02 0.  0.
          5    1    3    3  501    0 -0.27439900290E+01 -0.16673239560E+02 -0.27163441346E+03  0.27220005690E+03  0.47000000000E+01 0. -1.
        -11    1    4    4    0    0 -0.38935762125E+02  0.82706674562E+02 -0.18342522930E+03  0.20494194869E+03  0.00000000000E+00 0.  1.
         12    1    4    4    0    0  0.39690525175E+02  0.46723122219E+02 -0.15746868749E+03  0.16898158325E+03  0.00000000000E+00 0. -1.
         -5    1    5    5    0  502 -0.25409815639E+02 -0.12441627793E+03 -0.23279463636E+03  0.26521783813E+03  0.47000000000E+01 0.  1.
         11    1    6    6    0    0 -0.16122450109E+02  0.88525777079E+01 -0.14680952263E+01  0.18451472386E+02  0.00000000000E+00 0. -1.
        -12    1    6    6    0    0  0.43521492727E+02  0.28071430047E+01 -0.10034174699E+03  0.10940962741E+03  0.00000000000E+00 0.  1.
</event>
<event>
12    1  0.8500177E-002  0.1903027E+03  0.7818608E-02  0.1158195E+00
         21   -1    0    0  503  502  0.00000000000E+00  0.00000000000E+00  0.23969311524E+03  0.23969311524E+03  0.00000000000E+00 0.  1.
         21   -1    0    0  501  503 -0.00000000000E+00 -0.00000000000E+00 -0.19034025878E+03  0.19034025878E+03  0.00000000000E+00 0.  1.
          6    2    1    2  501    0 -0.49667591540E+02 -0.61052073942E+02 -0.72990813732E+02  0.20382046235E+03  0.17326539355E+03 0.  0.
         24    2    3    3    0    0 -0.15944188702E+02 -0.35119983457E+02 -0.11349984402E+03  0.14488988667E+03  0.81383255489E+02 0.  0.
         -6    2    1    2    0  502  0.49667591540E+02  0.61052073942E+02  0.12234367019E+03  0.22621291167E+03  0.17323418366E+03 0.  0.
        -24    2    5    5    0    0  0.35786220804E+02  0.16752049881E+02  0.14508282440E+03  0.17430584356E+03  0.88160174621E+02 0.  0.
          5    1    3    3  501    0 -0.33723402838E+02 -0.25932090486E+02  0.40509030289E+02  0.58930575688E+02  0.47000000000E+01 0. -1.
        -11    1    4    4    0    0 -0.14221060091E+02 -0.15993469903E+02  0.72700171615E+01  0.22602716191E+02  0.00000000000E+00 0.  1.
         12    1    4    4    0    0 -0.17231286111E+01 -0.19126513554E+02 -0.12076986118E+03  0.12228717048E+03  0.00000000000E+00 0. -1.
         -5    1    5    5    0  502  0.13881370736E+02  0.44300024061E+02 -0.22739154209E+02  0.51907068107E+02  0.47000000000E+01 0.  1.
         13    1    6    6    0    0 -0.28168286501E+02 -0.54049703457E+01  0.48993264542E+02  0.56771524899E+02  0.00000000000E+00 0. -1.
        -14    1    6    6    0    0  0.63954507305E+02  0.22157020227E+02  0.96089559854E+02  0.11753431866E+03  0.00000000000E+00 0.  1.
</event>
<event>
12    1  0.8500177E-002  0.2153139E+03  0.7818608E-02  0.1137496E+00
         21   -1    0    0  503  502  0.00000000000E+00  0.00000000000E+00  0.53081866213E+02  0.53081866213E+02  0.00000000000E+00 0.  1.
         21   -1    0    0  501  503 -0.00000000000E+00 -0.00000000000E+00 -0.98090122988E+03  0.98090122988E+03  0.00000000000E+00 0. -1.
          6    2    1    2  501    0 -0.95783065698E+02  0.85639115238E+02 -0.29191233769E+03  0.36272978185E+03  0.17277623682E+03 0.  0.
         24    2    3    3    0    0 -0.38588742331E+01  0.92881315053E+02 -0.15936232877E+03  0.20119309468E+03  0.80252600717E+02 0.  0.
         -6    2    1    2    0  502  0.95783065698E+02 -0.85639115238E+02 -0.63590702598E+03  0.67125331424E+03  0.17232182817E+03 0.  0.
        -24    2    5    5    0    0  0.94013097573E+02 -0.12487516149E+03 -0.51268454465E+03  0.54183743416E+03  0.79436101784E+02 0.  0.
          5    1    3    3  501    0 -0.91924191465E+02 -0.72421998153E+01 -0.13255000892E+03  0.16153668716E+03  0.47000000000E+01 0. -1.
        -11    1    4    4    0    0 -0.38540273527E+02  0.71076606226E+02 -0.93292337579E+02  0.12345321740E+03  0.00000000000E+00 0.  1.
         12    1    4    4    0    0  0.34681399294E+02  0.21804708828E+02 -0.66069991188E+02  0.77739877280E+02  0.00000000000E+00 0. -1.
         -5    1    5    5    0  502  0.17699681254E+01  0.39236046251E+02 -0.12322248132E+03  0.12941588008E+03  0.47000000000E+01 0.  1.
         11    1    6    6    0    0  0.31762710093E+02 -0.19812987638E+02 -0.24203032937E+03  0.24490835953E+03  0.00000000000E+00 0. -1.
        -12    1    6    6    0    0  0.62250387480E+02 -0.10506217385E+03 -0.27065421528E+03  0.29692907464E+03  0.00000000000E+00 0.  1.
</event>
<event>
12    1  0.8500177E-002  0.2168123E+03  0.7818608E-02  0.1136445E+00
         21   -1    0    0  501  502  0.00000000000E+00  0.00000000000E+00  0.60603493048E+03  0.60603493048E+03  0.00000000000E+00 0.  1.
         21   -1    0    0  502  503 -0.00000000000E+00 -0.00000000000E+00 -0.78386451102E+02  0.78386451102E+02  0.00000000000E+00 0.  1.
         -6    2    1    2    0  503 -0.11644785535E+03 -0.64495447342E+02  0.30535502436E+03  0.37449867632E+03  0.17113679299E+03 0.  0.
        -24    2    3    3    0    0 -0.14919049278E+02 -0.63359524703E+02  0.21480566523E+03  0.23837129031E+03  0.80264505380E+02 0.  0.
          6    2    1    2  501    0  0.11644785535E+03  0.64495447342E+02  0.22229345502E+03  0.30992270527E+03  0.17005274874E+03 0.  0.
         24    2    5    5    0    0  0.99226327035E+02  0.59324107346E+02  0.24532277205E+03  0.28032940809E+03  0.70965490657E+02 0.  0.
          5    1    5    5  501    0  0.17221528317E+02  0.51713399965E+01 -0.23029317033E+02  0.29593297179E+02  0.47000000000E+01 0. -1.
        -11    1    6    6    0    0  0.86600296625E+02  0.12994018263E+02  0.15435445339E+03  0.17746479417E+03  0.00000000000E+00 0.  1.
         12    1    6    6    0    0  0.12626030410E+02  0.46330089083E+02  0.90968318659E+02  0.10286461393E+03  0.00000000000E+00 0. -1.
         -5    1    3    3    0  503 -0.10152880607E+03 -0.11359226398E+01  0.90549359128E+02  0.13612738601E+03  0.47000000000E+01 0.  1.
         13    1    4    4    0    0  0.66548293660E+01 -0.23905047127E+02  0.70376677491E+01  0.25792766416E+02  0.00000000000E+00 0. -1.
        -14    1    4    4    0    0 -0.21573878644E+02 -0.39454477575E+02  0.20776799749E+03  0.21257852389E+03  0.00000000000E+00 0.  1.
</event>
<event>
12    1  0.8500177E-002  0.1769989E+03  0.7818608E-02  0.1170999E+00
         21   -1    0    0  503  502  0.00000000000E+00  0.00000000000E+00  0.67864516420E+03  0.67864516420E+03  0.00000000000E+00 0. -1.
         21   -1    0    0  501  503 -0.00000000000E+00 -0.00000000000E+00 -0.84204640224E+02  0.84204640224E+02  0.00000000000E+00 0. -1.
          6    2    1    2  501    0 -0.13147648706E+02 -0.40577969834E+02  0.39454652524E+02  0.18032262829E+03  0.17070485747E+03 0.  0.
         24    2    3    3    0    0  0.54237145114E+02 -0.36843349531E+02  0.42966453335E+02  0.11257987537E+03  0.80802301406E+02 0.  0.
         -6    2    1    2    0  502  0.13147648706E+02  0.40577969834E+02  0.55498587145E+03  0.58252717614E+03  0.17178230737E+03 0.  0.
        -24    2    5    5    0    0  0.20607423478E+02  0.51501232979E+02  0.55929473233E+03  0.56784309634E+03  0.80982353311E+02 0.  0.
          5    1    3    3  501    0 -0.67384793820E+02 -0.37346203031E+01 -0.35118008108E+01  0.67742752910E+02  0.47000000000E+01 0. -1.
        -11    1    4    4    0    0  0.10956487793E+02 -0.54375064412E+02  0.33912929221E+02  0.65013683351E+02  0.00000000000E+00 0.  1.
         12    1    4    4    0    0  0.43280657321E+02  0.17531714881E+02  0.90535241145E+01  0.47566192024E+02  0.00000000000E+00 0. -1.
         -5    1    5    5    0  502 -0.74597747712E+01 -0.10923263145E+02 -0.43088608811E+01  0.14684079797E+02  0.47000000000E+01 0.  1.
         13    1    6    6    0    0 -0.16621726956E+02 -0.51409946747E+01  0.27617950632E+03  0.27672699786E+03  0.00000000000E+00 0. -1.
        -14    1    6    6    0    0  0.37229150433E+02  0.56642227654E+02  0.28311522601E+03  0.29111609848E+03  0.00000000000E+00 0.  1.
</event>
<event>
12    1  0.8500177E-002  0.2266671E+03  0.7818608E-02  0.1129167E+00
         21   -1    0    0  501  502  0.00000000000E+00  0.00000000000E+00  0.29589979795E+03  0.29589979795E+03  0.00000000000E+00 0. -1.
         21   -1    0    0  502  503 -0.00000000000E+00 -0.00000000000E+00 -0.17449764028E+03  0.17449764028E+03  0.00000000000E+00 0.  1.
         -6    2    1    2    0  503 -0.80243833595E+02  0.12397729929E+03  0.38695268646E+02  0.22994625493E+03  0.17195497309E+03 0.  0.
        -24    2    3    3    0    0 -0.41525906056E+01  0.10322669912E+03 -0.20053158331E+02  0.13148848561E+03  0.78829545666E+02 0.  0.
          6    2    1    2  501    0  0.80243833595E+02 -0.12397729929E+03  0.82706889028E+02  0.24045118330E+03  0.17078319146E+03 0.  0.
         24    2    5    5    0    0  0.50466863346E+02  0.70199511417E+01 -0.30336894424E+01  0.81013156546E+02  0.62910605241E+02 0.  0.
          5    1    5    5  501    0  0.29776970250E+02 -0.13099725043E+03  0.85740578471E+02  0.15943802675E+03  0.47000000000E+01 0. -1.
        -11    1    6    6    0    0  0.16000226666E+02 -0.22654114888E+02 -0.18080812822E+02  0.33107883759E+02  0.00000000000E+00 0.  1.
         12    1    6    6    0    0  0.34466636680E+02  0.29674066030E+02  0.15047123379E+02  0.47905272787E+02  0.00000000000E+00 0. -1.
         -5    1    3    3    0  503 -0.76091242990E+02  0.20750600173E+02  0.58748426977E+02  0.98457769320E+02  0.47000000000E+01 0.  1.
         11    1    4    4    0    0 -0.80857465939E+01 -0.10915210033E+02 -0.99393991480E+01  0.16831897204E+02  0.00000000000E+00 0. -1.
        -12    1    4    4    0    0  0.39331559883E+01  0.11414190915E+03 -0.10113759183E+02  0.11465658841E+03  0.00000000000E+00 0.  1.
</event>
<event>
12    1  0.8500177E-002  0.1901482E+03  0.7818608E-02  0.1158369E+00
         21   -1    0    0  503  502  0.00000000000E+00  0.00000000000E+00  0.76757280873E+03  0.76757280873E+03  0.00000000000E+00 0. -1.
         21   -1    0    0  501  503 -0.00000000000E+00 -0.00000000000E+00 -0.47241800312E+02  0.47241800312E+02  0.00000000000E+00 0. -1.
          6    2    1    2  501    0  0.60537235394E+02 -0.54019468787E+02  0.33467942744E+03  0.38483383891E+03  0.17176700656E+03 0.  0.
         24    2    3    3    0    0  0.16990932882E+02 -0.74407618436E+02  0.10982118390E+03  0.15484410698E+03  0.78043702819E+02 0.  0.
         -6    2    1    2    0  502 -0.60537235394E+02  0.54019468787E+02  0.38565158098E+03  0.42998077013E+03  0.17196936034E+03 0.  0.
        -24    2    5    5    0    0 -0.23365290508E+02 -0.33896291713E+02  0.14799856025E+03  0.17383240943E+03  0.81358695534E+02 0.  0.
          5    1    3    3  501    0  0.43546302512E+02  0.20388149649E+02  0.22485824354E+03  0.22998973194E+03  0.47000000000E+01 0. -1.
        -13    1    4    4    0    0 -0.30466731595E+02 -0.37351026029E+02  0.39916385269E+02  0.62583054356E+02  0.00000000000E+00 0.  1.
         14    1    4    4    0    0  0.47457664477E+02 -0.37056592407E+02  0.69904798635E+02  0.92261052621E+02  0.00000000000E+00 0. -1.
         -5    1    5    5    0  502 -0.37171944886E+02  0.87915760500E+02  0.23765302073E+03  0.25614836071E+03  0.47000000000E+01 0.  1.
         11    1    6    6    0    0 -0.16320649217E+02 -0.44345626484E+02  0.15310780216E+03  0.16023388300E+03  0.00000000000E+00 0. -1.
        -12    1    6    6    0    0 -0.70446412912E+01  0.10449334772E+02 -0.51092419106E+01  0.13598526427E+02  0.00000000000E+00 0.  1.
</event>
<event>
12    1  0.8500177E-002  0.1880190E+03  0.7818608E-02  0.1160361E+00
         21   -1    0    0  501  502  0.00000000000E+00  0.00000000000E+00  0.14077559679E+04  0.14077559679E+04  0.00000000000E+00 0. -1.
         21   -1    0    0  502  503 -0.00000000000E+00 -0.00000000000E+00 -0.38792831381E+02  0.38792831381E+02  0.00000000000E+00 0.  1.
         -6    2    1    2    0  503 -0.37005603230E+02 -0.66136138863E+02  0.25352312926E+03  0.31537350406E+03  0.17158982038E+03 0.  0.
        -24    2    3    3    0    0 -0.64727987291E+02 -0.83222651530E+02  0.24923200194E+03  0.28219243616E+03  0.80001613542E+02 0.  0.
          6    2    1    2  501    0  0.37005603230E+02  0.66136138863E+02  0.11154400073E+04  0.11311752953E+04  0.17206898384E+03 0.  0.
         24    2    5    5    0    0  0.10903589199E+02  0.70952351062E+02  0.10861908664E+04  0.10913995077E+04  0.78671231548E+02 0.  0.
          5    1    5    5  501    0  0.26102014032E+02 -0.48162121988E+01  0.29249140877E+02  0.39775787591E+02  0.47000000000E+01 0. -1.
        -11    1    6    6    0    0  0.39781718544E+01 -0.17308457741E+02  0.15740548752E+03  0.15840421732E+03  0.00000000000E+00 0.  1.
         12    1    6    6    0    0  0.69254173443E+01  0.88260808803E+02  0.92878537889E+03  0.93299529035E+03  0.00000000000E+00 0. -1.
         -5    1    3    3    0  503  0.27722384061E+02  0.17086512667E+02  0.42911273222E+01  0.33181067897E+02  0.47000000000E+01 0.  1.
         11    1    4    4    0    0 -0.12671635005E+02 -0.14294385644E+02  0.14752237195E+03  0.14875399161E+03  0.00000000000E+00 0. -1.
        -12    1    4    4    0    0 -0.52056352286E+02 -0.68928265886E+02  0.10170962999E+03  0.13343844455E+03  0.00000000000E+00 0.  1.
</event>
<event>
12    1  0.8500177E-002  0.2197181E+03  0.7818608E-02  0.1134742E+00
         21   -1    0    0  503  502  0.00000000000E+00  0.00000000000E+00  0.23677414798E+03  0.23677414798E+03  0.00000000000E+00 0.  1.
         21   -1    0    0  501  503 -0.00000000000E+00 -0.00000000000E+00 -0.40820398550E+03  0.40820398550E+03  0.00000000000E+00 0.  1.
          6    2    1    2  501    0 -0.13136402014E+03  0.28255824594E+01 -0.31530136965E+03  0.38234707235E+03  0.17178428430E+03 0.  0.
         24    2    3    3    0    0 -0.99692492230E+02  0.65013081379E+02 -0.23581581803E+03  0.27646783162E+03  0.81609240473E+02 0.  0.
         -6    2    1    2    0  502  0.13136402014E+03 -0.28255824594E+01  0.14387153213E+03  0.26263106113E+03  0.17610101309E+03 0.  0.
        -24    2    5    5    0    0  0.13236001072E+03  0.34449334487E+02  0.15798220598E+03  0.22248616672E+03  0.76392328731E+02 0.  0.
          5    1    3    3  501    0 -0.31671527909E+02 -0.62187498919E+02 -0.79485551617E+02  0.10587924073E+03  0.47000000000E+01 0. -1.
        -11    1    4    4    0    0 -0.10434832055E+03  0.30188335368E+02 -0.16736940745E+03  0.19953051432E+03  0.00000000000E+00 0.  1.
         12    1    4    4    0    0  0.46558283248E+01  0.34824746010E+02 -0.68446410581E+02  0.76937317301E+02  0.00000000000E+00 0. -1.
         -5    1    5    5    0  502 -0.99599058168E+00 -0.37274916946E+02 -0.14110673857E+02  0.40144894411E+02  0.47000000000E+01 0.  1.
         11    1    6    6    0    0  0.27983304737E+02  0.15049798325E+02 -0.44523441712E+00  0.31776721154E+02  0.00000000000E+00 0. -1.
        -12    1    6    6    0    0  0.10437670598E+03  0.19399536161E+02  0.15842744040E+03  0.19070944556E+03  0.00000000000E+00 0.  1.
</event>
<event>
12    1  0.8500177E-002  0.2431825E+03  0.7818608E-02  0.1117963E+00
         21   -1    0    0  503  502  0.00000000000E+00  0.00000000000E+00  0.26563945152E+04  0.26563945152E+04  0.00000000000E+00 0.  1.
         21   -1    0    0  501  503 -0.00000000000E+00 -0.00000000000E+00 -0.23627772727E+02  0.23627772727E+02  0.00000000000E+00 0. -1.
          6    2    1    2  501    0 -0.45519843831E+02 -0.16371596344E+03  0.16517014799E+04  0.16692667371E+04  0.17163533359E+03 0.  0.
         24    2    3    3    0    0  0.34366017097E+02 -0.55391382036E+02  0.59673875361E+03  0.60574221470E+03  0.81100322259E+02 0.  0.
         -6    2    1    2    0  502  0.45519843831E+02  0.16371596344E+03  0.98106526256E+03  0.10107555509E+04  0.17396195389E+03 0.  0.
        -24    2    5    5    0    0  0.28541916780E+01  0.83523790504E+01  0.26672747509E+03  0.27845863991E+03  0.79484335121E+02 0.  0.
          5    1    3    3  501    0 -0.79885860928E+02 -0.10832458141E+03  0.10549627263E+04  0.10635245224E+04  0.47000000000E+01 0. -1.
        -11    1    4    4    0    0 -0.44059269745E+01 -0.63948209209E+02  0.38837797525E+03  0.39363210910E+03  0.00000000000E+00 0.  1.
         12    1    4    4    0    0  0.38771944071E+02  0.85568271729E+01  0.20836077836E+03  0.21211010560E+03  0.00000000000E+00 0. -1.
         -5    1    5    5    0  502  0.42665652153E+02  0.15536358439E+03  0.71433778748E+03  0.73229691099E+03  0.47000000000E+01 0.  1.
         13    1    6    6    0    0  0.32922677946E+02 -0.18897058882E+02  0.10284628092E+03  0.10962827672E+03  0.00000000000E+00 0. -1.
        -14    1    6    6    0    0 -0.30068486268E+02  0.27249437933E+02  0.16388119416E+03  0.16883036319E+03  0.00000000000E+00 0.  1.
</event>
<event>
12    1  0.8500177E-002  0.1934737E+03  0.7818608E-02  0.1155601E+00
         21   -1    0    0  503  502  0.00000000000E+00  0.00000000000E+00  0.34397237219E+03  0.34397237219E+03  0.00000000000E+00 0.  1.
         21   -1    0    0  501  503 -0.00000000000E+00 -0.00000000000E+00 -0.13479178381E+03  0.13479178381E+03  0.00000000000E+00 0.  1.
          6    2    1    2  501    0 -0.72403435708E+02 -0.43663253631E+02 -0.14570399724E+01  0.19347914553E+03  0.17402103198E+03 0.  0.
         24    2    3    3    0    0 -0.11266187313E+03 -0.35263031071E+02 -0.26094999420E+02  0.14530836011E+03  0.80606398669E+02 0.  0.
         -6    2    1    2    0  502  0.72403435708E+02  0.43663253631E+02  0.21063762836E+03  0.28528501047E+03  0.17283110107E+03 0.  0.
        -24    2    5    5    0    0 -0.82010093801E+01  0.61775585168E+02  0.15522420087E+03  0.18569650176E+03  0.80654564347E+02 0.  0.
          5    1    3    3  501    0  0.40258437419E+02 -0.84002225602E+01  0.24637959448E+02  0.48170785423E+02  0.47000000000E+01 0. -1.
        -11    1    4    4    0    0 -0.46313320950E+02  0.25211361867E+02 -0.41644192859E+01  0.52894979465E+02  0.00000000000E+00 0.  1.
         12    1    4    4    0    0 -0.66348552178E+02 -0.60474392938E+02 -0.21930580135E+02  0.92413380646E+02  0.00000000000E+00 0. -1.
         -5    1    5    5    0  502  0.80604445088E+02 -0.18112331537E+02  0.55413427484E+02  0.99588508711E+02  0.47000000000E+01 0.  1.
         11    1    6    6    0    0  0.15786287377E+02  0.41717015199E+02  0.14663593132E+03  0.15326973798E+03  0.00000000000E+00 0. -1.
        -12    1    6    6    0    0 -0.23987296757E+02  0.20058569969E+02  0.85882695493E+01  0.32426763772E+02  0.00000000000E+00 0.  1.
</event>
<event>
12    1  0.8500177E-002  0.2999535E+03  0.7818608E-02  0.1085285E+00
         21   -1    0    0  503  502  0.00000000000E+00  0.00000000000E+00  0.41904876527E+03  0.41904876527E+03  0.00000000000E+00 0. -1.
         21   -1    0    0  501  503 -0.00000000000E+00 -0.00000000000E+00 -0.21478967923E+03  0.21478967923E+03  0.00000000000E+00 0. -1.
          6    2    1    2  501    0  0.95606753531E+02  0.22567979173E+03  0.11186021381E+03  0.31997600918E+03  0.17262653129E+03 0.  0.
         24    2    3    3    0    0  0.29909710852E+02  0.29669371192E+02  0.13263079931E+02  0.90891589842E+02  0.79438714897E+02 0.  0.
         -6    2    1    2    0  502 -0.95606753531E+02 -0.22567979173E+03  0.92398872230E+02  0.31386243532E+03  0.17291632948E+03 0.  0.
        -24    2    5    5    0    0 -0.63772617070E+02 -0.11901744231E+03 -0.14843541882E+02  0.15922319576E+03  0.83063813237E+02 0.  0.
          5    1    3    3  501    0  0.65697042679E+02  0.19601042054E+03  0.98597133881E+02  0.22908441934E+03  0.47000000000E+01 0. -1.
        -11    1    4    4    0    0  0.38969794232E+02 -0.68869884159E+01  0.30018007980E+02  0.49670476895E+02  0.00000000000E+00 0.  1.
         12    1    4    4    0    0 -0.90600833795E+01  0.36556359608E+02 -0.16754928049E+02  0.41221112947E+02  0.00000000000E+00 0. -1.
         -5    1    5    5    0  502 -0.31834136461E+02 -0.10666234942E+03  0.10724241411E+03  0.15463923956E+03  0.47000000000E+01 0.  1.
         13    1    6    6    0    0 -0.35639415942E+02 -0.39773648316E+02  0.32702665201E+02  0.62622483025E+02  0.00000000000E+00 0. -1.
        -14    1    6    6    0    0 -0.28133201128E+02 -0.79243793994E+02 -0.47546207082E+02  0.96600712731E+02  0.00000000000E+00 0.  1.
</event>
<event>
12    1  0.8500177E-002  0.1842493E+03  0.7818608E-02  0.1164184E+00
         21   -1    0    0  503  502  0.00000000000E+00  0.00000000000E+00  0.24935723896E+02  0.24935723896E+02  0.00000000000E+00 0.  1.
         21   -1    0    0  501  503 -0.00000000000E+00 -0.00000000000E+00 -0.17715843956E+04  0.17715843956E+04  0.00000000000E+00 0.  1.
          6    2    1    2  501    0  0.53994970497E+02  0.29863872269E+02 -0.13092664562E+04  0.13219139665E+04  0.17166995568E+03 0.  0.
         24    2    3    3    0    0  0.98473875485E+02  0.45208098984E+02 -0.10078302684E+04  0.10167915589E+04  0.80014673465E+02 0.  0.
         -6    2    1    2    0  502 -0.53994970497E+02 -0.29863872269E+02 -0.43738221551E+03  0.47460615305E+03  0.17361016778E+03 0.  0.
        -24    2    5    5    0    0 -0.25308150262E+02  0.19300187145E+02 -0.10424922242E+03  0.13661248524E+03  0.82353330554E+02 0.  0.
          5    1    3    3  501    0 -0.44478904988E+02 -0.15344226715E+02 -0.30143618775E+03  0.30512240752E+03  0.47000000000E+01 0. -1.
        -13    1    4    4    0    0  0.48906742463E+02  0.64880105456E+02 -0.58725943887E+03  0.59285322474E+03  0.00000000000E+00 0.  1.
         14    1    4    4    0    0  0.49567133023E+02 -0.19672006472E+02 -0.42057082958E+03  0.42393833420E+03  0.00000000000E+00 0. -1.
         -5    1    5    5    0  502 -0.28686820235E+02 -0.49164059414E+02 -0.33313299309E+03  0.33799366781E+03  0.47000000000E+01 0.  1.
         11    1    6    6    0    0  0.27073238660E+01  0.23955495438E+02 -0.10546651089E+03  0.10818678424E+03  0.00000000000E+00 0. -1.
        -12    1    6    6    0    0 -0.28015474128E+02 -0.46553082934E+01  0.12172884713E+01  0.28425700996E+02  0.00000000000E+00 0.  1.
</event>
<event>
12    1  0.8500177E-002  0.1805049E+03  0.7818608E-02  0.1167396E+00
         21   -1    0    0  501  502  0.00000000000E+00  0.00000000000E+00  0.53167253396E+03  0.53167253396E+03  0.00000000000E+00 0. -1.
         21   -1    0    0  502  503 -0.00000000000E+00 -0.00000000000E+00 -0.16175847902E+03  0.16175847902E+03  0.00000000000E+00 0. -1.
         -6    2    1    2    0  503  0.52131368209E+02 -0.19492105684E+02 -0.88520196677E+02  0.20074046081E+03  0.17135718733E+03 0.  0.
        -24    2    3    3    0    0  0.47442463607E+02 -0.56801917906E+02 -0.11187476348E+03  0.15622603949E+03  0.80083503171E+02 0.  0.
          6    2    1    2  501    0 -0.52131368209E+02  0.19492105684E+02  0.45843425162E+03  0.49269055218E+03  0.17171020766E+03 0.  0.
         24    2    5    5    0    0  0.13136801549E+02 -0.28473450887E+02  0.32786167458E+03  0.33896379304E+03  0.80124043675E+02 0.  0.
          5    1    5    5  501    0 -0.65268169758E+02  0.47965556571E+02  0.13057257704E+03  0.15372675914E+03  0.47000000000E+01 0. -1.
        -13    1    6    6    0    0 -0.91632028037E+01  0.11940716044E+02  0.10715275631E+02  0.18475987581E+02  0.00000000000E+00 0.  1.
         14    1    6    6    0    0  0.22300004352E+02 -0.40414166931E+02  0.31714639895E+03  0.32048780546E+03  0.00000000000E+00 0. -1.
         -5    1    3    3    0  503  0.46889046015E+01  0.37309812222E+02  0.23354566807E+02  0.44514421317E+02  0.47000000000E+01 0.  1.
         13    1    4    4    0    0  0.22663575221E+02 -0.73973383855E+02 -0.68068744348E+02  0.10304878999E+03  0.00000000000E+00 0. -1.
        -14    1    4    4    0    0  0.24778888386E+02  0.17171465948E+02 -0.43806019136E+02  0.53177249506E+02  0.00000000000E+00 0.  1.
</event>
<event>
12    1  0.8500177E-002  0.2123884E+03  0.7818608E-02  0.1140179E+00
         21   -1    0    0  503  502  0.00000000000E+00  0.00000000000E+00  0.15910839839E+03  0.15910839839E+03  0.00000000000E+00 0. -1.
         21   -1    0    0  501  503 -0.00000000000E+00 -0.00000000000E+00 -0.47421417405E+03  0.47421417405E+03  0.00000000000E+00 0. -1.
          6    2    1    2  501    0 -0.10462415075E+03 -0.67237756652E+02 -0.36065598239E+03  0.41854695909E+03  0.17216762322E+03 0.  0.
         24    2    3    3    0    0 -0.87699874168E+01 -0.87302505091E+02 -0.21561168529E+03  0.24347396608E+03  0.71361987431E+02 0.  0.
         -6    2    1    2    0  502  0.10462415075E+03  0.67237756652E+02  0.45550206732E+02  0.21477561335E+03  0.16907576383E+03 0.  0.
        -24    2    5    5    0    0  0.12526870250E+03  0.69643101520E+02  0.73154635793E+02  0.17990330765E+03  0.80443706714E+02 0.  0.
          5    1    3    3  501    0 -0.95854163334E+02  0.20064748439E+02 -0.14504429711E+03  0.17507299301E+03  0.47000000000E+01 0. -1.
        -11    1    4    4    0    0  0.15347419601E+02 -0.42114416226E+02 -0.38447900512E+02  0.59054283471E+02  0.00000000000E+00 0.  1.
         12    1    4    4    0    0 -0.24117407018E+02 -0.45188088865E+02 -0.17716378477E+03  0.18441968260E+03  0.00000000000E+00 0. -1.
         -5    1    5    5    0  502 -0.20644551750E+02 -0.24053448676E+01 -0.27604429060E+02  0.34872305697E+02  0.47000000000E+01 0.  1.
         11    1    6    6    0    0  0.55446125126E+02  0.76127022449E+02  0.39593470589E+02  0.10216280758E+03  0.00000000000E+00 0. -1.
        -12    1    6    6    0    0  0.69822577376E+02 -0.64839209296E+01  0.33561165204E+02  0.77740500075E+02  0.00000000000E+00 0.  1.
</event>
<event>
12    1  0.8500177E-002  0.2050774E+03  0.7818608E-02  0.1145634E+00
         21   -1    0    0  503  502  0.00000000000E+00  0.00000000000E+00  0.51061909022E+03  0.51061909022E+03  0.00000000000E+00 0. -1.
         21   -1    0    0  501  503 -0.00000000000E+00 -0.00000000000E+00 -0.92596549483E+02  0.92596549483E+02  0.00000000000E+00 0. -1.
          6    2    1    2  501    0  0.84038262347E+02 -0.69469247260E+02  0.10794708603E+03  0.23175265769E+03  0.17369028502E+03 0.  0.
         24    2    3    3    0    0 -0.11042367718E+01 -0.50781383003E+02 -0.63126047171E+00  0.92433496209E+02  0.77224248349E+02 0.  0.
         -6    2    1    2    0  502 -0.84038262347E+02  0.69469247260E+02  0.31007545471E+03  0.37146298201E+03  0.17305939311E+03 0.  0.
        -24    2    5    5    0    0 -0.10636428758E+03  0.27441952310E+02  0.14490951913E+03  0.19951350920E+03  0.82100238747E+02 0.  0.
          5    1    3    3  501    0  0.85142499119E+02 -0.18687864257E+02  0.10857834651E+03  0.13931916148E+03  0.47000000000E+01 0. -1.
        -13    1    4    4    0    0  0.14202131305E+02  0.12972950520E+02  0.15740035667E+02  0.24854510689E+02  0.00000000000E+00 0.  1.
         14    1    4    4    0    0 -0.15306368077E+02 -0.63754333523E+02 -0.16371296139E+02  0.67578985520E+02  0.00000000000E+00 0. -1.
         -5    1    5    5    0  502  0.22326025234E+02  0.42027294950E+02  0.16516593558E+03  0.17194947281E+03  0.47000000000E+01 0.  1.
         11    1    6    6    0    0 -0.10586373259E+03  0.34731513698E+02  0.15257423633E+03  0.18892407341E+03  0.00000000000E+00 0. -1.
        -12    1    6    6    0    0 -0.50055499531E+00 -0.72895613880E+01 -0.76647172091E+01  0.10589435794E+02  0.00000000000E+00 0.  1.
</event>
<event>
12    1  0.8500177E-002  0.1843059E+03  0.7818608E-02  0.1163890E+00
         21   -1    0    0  503  502  0.00000000000E+00  0.00000000000E+00  0.67564215317E+03  0.67564215317E+03  0.00000000000E+00 0.  1.
         21   -1    0    0  501  503 -0.00000000000E+00 -0.00000000000E+00 -0.76163509807E+02  0.76163509807E+02  0.00000000000E+00 0.  1.
          6    2    1    2  501    0  0.61583359303E+02  0.23370022682E+02  0.80090372149E+02  0.20095557461E+03  0.17213368976E+03 0.  0.
         24    2    3    3    0    0  0.28301074921E+02  0.23005006942E+02  0.12060503083E+03  0.14831175960E+03  0.78234413067E+02 0.  0.
         -6    2    1    2    0  502 -0.61583359303E+02 -0.23370022682E+02  0.51938827121E+03  0.55085008837E+03  0.17126872301E+03 0.  0.
        -24    2    5    5    0    0 -0.67758380203E+02  0.84478940317E+01  0.16875495988E+03  0.19869057945E+03  0.79606186169E+02 0.  0.
          5    1    3    3  501    0  0.33282284382E+02  0.36501573931E+00 -0.40514658683E+02  0.52643815006E+02  0.47000000000E+01 0. -1.
        -13    1    4    4    0    0  0.10109669044E+02 -0.27576667827E+02  0.24729500847E+02  0.38395653774E+02  0.00000000000E+00 0.  1.
         14    1    4    4    0    0  0.18191405877E+02  0.50581674769E+02  0.95875529985E+02  0.10991610583E+03  0.00000000000E+00 0. -1.
         -5    1    5    5    0  502  0.61750208998E+01 -0.31817916714E+02  0.35063331133E+03  0.35215950892E+03  0.47000000000E+01 0.  1.
         11    1    6    6    0    0 -0.25396104833E+01  0.23734544566E+02  0.90885906190E+01  0.25541744393E+02  0.00000000000E+00 0. -1.
        -12    1    6    6    0    0 -0.65218769720E+02 -0.15286650535E+02  0.15966636926E+03  0.17314883506E+03  0.00000000000E+00 0.  1.
</event>
<event>
12    1  0.8500177E-002  0.1947195E+03  0.7818608E-02  0.1154441E+00
         21   -1    0    0  503  502  0.00000000000E+00  0.00000000000E+00  0.19167319559E+03  0.19167319559E+03  0.00000000000E+00 0.  1.
         21   -1    0    0  501  503 -0.00000000000E+00 -0.00000000000E+00 -0.24596375380E+03  0.24596375380E+03  0.00000000000E+00 0. -1.
          6    2    1    2  501    0 -0.81594978330E+01  0.89196461306E+02  0.70409643057E+02  0.20705848643E+03  0.17289624882E+03 0.  0.
         24    2    3    3    0    0  0.37383435130E+01  0.72169178869E+01  0.92639571740E+02  0.12116050103E+03  0.77664133555E+02 0.  0.
         -6    2    1    2    0  502  0.81594978330E+01 -0.89196461306E+02 -0.12470020126E+03  0.23057846296E+03  0.17202819905E+03 0.  0.
        -24    2    5    5    0    0  0.30650378343E+01  0.20079449874E+02 -0.52316454382E+02  0.99320415205E+02  0.81944827251E+02 0.  0.
          5    1    3    3  501    0 -0.11897841346E+02  0.81979543419E+02 -0.22229928683E+02  0.85897985408E+02  0.47000000000E+01 0. -1.
        -11    1    4    4    0    0  0.24239817760E+02  0.35375673466E+02  0.56957659334E+02  0.71296437464E+02  0.00000000000E+00 0.  1.
         12    1    4    4    0    0 -0.20501474247E+02 -0.28158755579E+02  0.35681912406E+02  0.49864063563E+02  0.00000000000E+00 0. -1.
         -5    1    5    5    0  502  0.50944599987E+01 -0.10927591118E+03 -0.72383746879E+02  0.13125804775E+03  0.47000000000E+01 0.  1.
         13    1    6    6    0    0  0.16249969442E+02 -0.76891698932E+01  0.16215488082E+02  0.24210057709E+02  0.00000000000E+00 0. -1.
        -14    1    6    6    0    0 -0.13184931608E+02  0.27768619768E+02 -0.68531942464E+02  0.75110357496E+02  0.00000000000E+00 0.  1.
</event>
<event>
12    1  0.8500177E-002  0.1861799E+03  0.7818608E-02  0.1162143E+00
         21   -1    0    0  503  502  0.00000000000E+00  0.00000000000E+00  0.20333553790E+03  0.20333553790E+03  0.00000000000E+00 0.  1.
         21   -1    0    0  501  503 -0.00000000000E+00 -0.00000000000E+00 -0.17107465695E+03  0.17107465695E+03  0.00000000000E+00 0.  1.
          6    2    1    2  501    0  0.68574496790E+02 -0.96487226440E+00 -0.49093503050E+00  0.18618055875E+03  0.17308832095E+03 0.  0.
         24    2    3    3    0    0  0.88536631264E+02  0.32911689946E+02 -0.33169713543E+02  0.13483758605E+03  0.90327350817E+02 0.  0.
         -6    2    1    2    0  502 -0.68574496790E+02  0.96487226440E+00  0.32751815986E+02  0.18822963611E+03  0.17220430270E+03 0.  0.
        -24    2    5    5    0    0 -0.16993927657E+02  0.33240309257E+02  0.78778046711E+02  0.11179166871E+03  0.69983460991E+02 0.  0.
          5    1    3    3  501    0 -0.19962134474E+02 -0.33876562210E+02  0.32678778513E+02  0.51342972694E+02  0.47000000000E+01 0. -1.
        -13    1    4    4    0    0  0.68694380003E+02 -0.15644032961E+02  0.39729211987E+01  0.70565131008E+02  0.00000000000E+00 0.  1.
         14    1    4    4    0    0  0.19842251261E+02  0.48555722907E+02 -0.37142634742E+02  0.64272455046E+02  0.00000000000E+00 0. -1.
         -5    1    5    5    0  502 -0.51580569133E+02 -0.32275436992E+02 -0.46026230725E+02  0.76437967398E+02  0.47000000000E+01 0.  1.
         13    1    6    6    0    0  0.22593889770E+02  0.19368852928E+02  0.10309103442E+02  0.31494665142E+02  0.00000000000E+00 0. -1.
        -14    1    6    6    0    0 -0.39587817427E+02  0.13871456329E+02  0.68468943269E+02  0.80297003566E+02  0.00000000000E+00 0.  1.
</event>
<event>
12    1  0.8500177E-002  0.2035011E+03  0.7818608E-02  0.1147159E+00
         21   -1    0    0  501  502  0.00000000000E+00  0.00000000000E+00  0.18149895116E+04  0.18149895116E+04  0.00000000000E+00 0. -1.
         21   -1    0    0  502  503 -0.00000000000E+00 -0.00000000000E+00 -0.68862058068E+02  0.68862058068E+02  0.00000000000E+00 0. -1.
         -6    2    1    2    0  503 -0.10834227383E+03  0.59358150386E+01  0.10246690512E+03  0.22784238898E+03  0.17216098678E+03 0.  0.
        -24    2    3    3    0    0 -0.24750228674E+02 -0.36214466972E+02  0.64829729412E+01  0.93680987954E+02  0.82522949102E+02 0.  0.
          6    2    1    2  501    0  0.10834227383E+03 -0.59358150386E+01  0.16436605484E+04  0.16560091807E+04  0.17021494042E+03 0.  0.
         24    2    5    5    0    0  0.98630863869E+02 -0.51250472042E+02  0.84271130168E+03  0.85370654736E+03  0.79359138268E+02 0.  0.
          5    1    5    5  501    0  0.97114099633E+01  0.45314657003E+02  0.80094924674E+03  0.80230263335E+03  0.47000000000E+01 0. -1.
        -13    1    6    6    0    0  0.51996154451E+01 -0.14464400175E+02  0.21782474658E+02  0.26659540046E+02  0.00000000000E+00 0.  1.
         14    1    6    6    0    0  0.93431248423E+02 -0.36786071867E+02  0.82092882702E+03  0.82704700731E+03  0.00000000000E+00 0. -1.
         -5    1    3    3    0  503 -0.83592045158E+02  0.42150282011E+02  0.95983932182E+02  0.13416140102E+03  0.47000000000E+01 0.  1.
         13    1    4    4    0    0 -0.27195374546E+02 -0.50217408492E+02  0.31268667448E+02  0.65108417861E+02  0.00000000000E+00 0. -1.
        -14    1    4    4    0    0  0.24451458719E+01  0.14002941520E+02 -0.24785694507E+02  0.28572570094E+02  0.00000000000E+00 0.  1.
</event>
<event>
12    1  0.8500177E-002  0.1900715E+03  0.7818608E-02  0.1161169E+00
         21   -1    0    0  501  502  0.00000000000E+00  0.00000000000E+00  0.19933567957E+03  0.19933567957E+03  0.00000000000E+00 0.  1.
         21   -1    0    0  502  503 -0.00000000000E+00 -0.00000000000E+00 -0.20393484812E+03  0.20393484812E+03  0.00000000000E+00 0.  1.
         -6    2    1    2    0  503 -0.36967780893E+02  0.42071751369E+02 -0.84476184842E+02  0.20799855736E+03  0.18163294021E+03 0.  0.
        -24    2    3    3    0    0 -0.64098351580E+02  0.31278478639E+01  0.73178757456E+01  0.10455323341E+03  0.82215845216E+02 0.  0.
          6    2    1    2  501    0  0.36967780893E+02 -0.42071751369E+02  0.79877016288E+02  0.19527197033E+03  0.16915719192E+03 0.  0.
         24    2    5    5    0    0  0.82493303894E+01 -0.71411486472E+02  0.97725362883E+02  0.15025838426E+03  0.88654856816E+02 0.  0.
          5    1    5    5  501    0  0.28718450503E+02  0.29339735103E+02 -0.17848346595E+02  0.45013586075E+02  0.47000000000E+01 0. -1.
        -11    1    6    6    0    0  0.23956368825E+02 -0.74281548147E+02  0.35008563402E+02  0.85540958107E+02  0.00000000000E+00 0.  1.
         12    1    6    6    0    0 -0.15707038435E+02  0.28700616752E+01  0.62716799480E+02  0.64717426150E+02  0.00000000000E+00 0. -1.
         -5    1    3    3    0  503  0.27130570687E+02  0.38943903505E+02 -0.91794060588E+02  0.10344532394E+03  0.47000000000E+01 0.  1.
         13    1    4    4    0    0 -0.48708875714E+02 -0.26795699187E+02 -0.22132536140E+02  0.59836554247E+02  0.00000000000E+00 0. -1.
        -14    1    4    4    0    0 -0.15389475866E+02  0.29923547050E+02  0.29450411886E+02  0.44716679167E+02  0.00000000000E+00 0.  1.
</event>
<event>
12    1  0.8500177E-002  0.3043650E+03  0.7818608E-02  0.1083235E+00
         21   -1    0    0  501  502  0.00000000000E+00  0.00000000000E+00  0.34838368075E+03  0.34838368075E+03  0.00000000000E+00 0. -1.
         21   -1    0    0  502  503 -0.00000000000E+00 -0.00000000000E+00 -0.45482713087E+03  0.45482713087E+03  0.00000000000E+00 0.  1.
         -6    2    1    2    0  503  0.12478985187E+03  0.21830809412E+03 -0.31287350720E+03  0.43649499286E+03  0.17148503199E+03 0.  0.
        -24    2    3    3    0    0  0.14485114050E+02  0.13907135604E+03 -0.12576598416E+03  0.20524423930E+03  0.82203737091E+02 0.  0.
          6    2    1    2  501    0 -0.12478985187E+03 -0.21830809412E+03  0.20643005708E+03  0.36671581876E+03  0.16922231582E+03 0.  0.
         24    2    5    5    0    0 -0.51014327170E+02 -0.50673538426E+02  0.28058845363E+02  0.11101569854E+03  0.79792966147E+02 0.  0.
          5    1    5    5  501    0 -0.73775524703E+02 -0.16763455569E+03  0.17837121172E+03  0.25570012021E+03  0.47000000000E+01 0. -1.
        -13    1    6    6    0    0 -0.70694225076E+01 -0.44332590205E+02 -0.16768018479E+02  0.47922038068E+02  0.00000000000E+00 0.  1.
         14    1    6    6    0    0 -0.43944904662E+02 -0.63409482212E+01  0.44826863842E+02  0.63093660474E+02  0.00000000000E+00 0. -1.
         -5    1    3    3    0  503  0.11030473782E+03  0.79236738078E+02 -0.18710752303E+03  0.23125075356E+03  0.47000000000E+01 0.  1.
         11    1    4    4    0    0  0.44294789080E+01 -0.41873556378E+01 -0.34616289495E+02  0.35148851034E+02  0.00000000000E+00 0. -1.
        -12    1    4    4    0    0  0.10055635142E+02  0.14325871168E+03 -0.91149694670E+02  0.17009538826E+03  0.00000000000E+00 0.  1.
</event>
<event>
12    1  0.8500177E-002  0.1984013E+03  0.7818608E-02  0.1153510E+00
         21   -1    0    0  501  502  0.00000000000E+00  0.00000000000E+00  0.36401561951E+03  0.36401561951E+03  0.00000000000E+00 0.  1.
         21   -1    0    0  502  503 -0.00000000000E+00 -0.00000000000E+00 -0.25498634778E+03  0.25498634778E+03  0.00000000000E+00 0. -1.
         -6    2    1    2    0  503 -0.72233973489E+02 -0.97560658003E+01 -0.18437918876E+03  0.27084818916E+03  0.18452676927E+03 0.  0.
        -24    2    3    3    0    0 -0.73807529699E+02  0.53965646170E+02 -0.16250757044E+03  0.20329531843E+03  0.80996503863E+02 0.  0.
          6    2    1    2  501    0  0.72233973489E+02  0.97560658003E+01  0.29340846049E+03  0.34815377813E+03  0.17265457073E+03 0.  0.
         24    2    5    5    0    0  0.75451381333E+02 -0.51850253847E+02  0.13724494417E+03  0.18018108939E+03  0.72440944942E+02 0.  0.
          5    1    5    5  501    0 -0.32174078438E+01  0.61606319647E+02  0.15616351632E+03  0.16797268874E+03  0.47000000000E+01 0. -1.
        -11    1    6    6    0    0  0.28712676708E+02 -0.18843071876E+02  0.11288342987E+03  0.11799215186E+03  0.00000000000E+00 0.  1.
         12    1    6    6    0    0  0.46738704625E+02 -0.33007181971E+02  0.24361514296E+02  0.62188937525E+02  0.00000000000E+00 0. -1.
         -5    1    3    3    0  503  0.15735562103E+01 -0.63721711971E+02 -0.21871618319E+02  0.67552870727E+02  0.47000000000E+01 0.  1.
         11    1    4    4    0    0 -0.52948505478E+02 -0.23369456565E+00 -0.12050073178E+03  0.13162076282E+03  0.00000000000E+00 0. -1.
        -12    1    4    4    0    0 -0.20859024222E+02  0.54199340736E+02 -0.42006838659E+02  0.71674555609E+02  0.00000000000E+00 0.  1.
</event>
<event>
12    1  0.8500177E-002  0.1917636E+03  0.7818608E-02  0.1157049E+00
         21   -1    0    0  501  502  0.00000000000E+00  0.00000000000E+00  0.22581078635E+03  0.22581078635E+03  0.00000000000E+00 0.  1.
         21   -1    0    0  502  503 -0.00000000000E+00 -0.00000000000E+00 -0.37782924967E+03  0.37782924967E+03  0.00000000000E+00 0.  1.
         -6    2    1    2    0  503 -0.80067567029E+02  0.21752446474E+02 -0.30394960152E+03  0.35898447215E+03  0.17204797809E+03 0.  0.
        -24    2    3    3    0    0 -0.37167816077E+02 -0.48619740461E+02 -0.21379727136E+03  0.23674631952E+03  0.81204808048E+02 0.  0.
          6    2    1    2  501    0  0.80067567029E+02 -0.21752446474E+02  0.15193113820E+03  0.24465556387E+03  0.17288519300E+03 0.  0.
         24    2    5    5    0    0  0.25317149149E+02 -0.20478120238E+02  0.16649512541E+03  0.18779229023E+03  0.80529535184E+02 0.  0.
          5    1    5    5  501    0  0.54750417880E+02 -0.12743262359E+01 -0.14563987205E+02  0.56863273637E+02  0.47000000000E+01 0. -1.
        -11    1    6    6    0    0  0.19375595223E+02  0.54901881775E+01  0.15878871426E+03  0.16006064986E+03  0.00000000000E+00 0.  1.
         12    1    6    6    0    0  0.59415539259E+01 -0.25968308415E+02  0.77064111444E+01  0.27731640372E+02  0.00000000000E+00 0. -1.
         -5    1    3    3    0  503 -0.42899750952E+02  0.70372186935E+02 -0.90152330168E+02  0.12223815264E+03  0.47000000000E+01 0.  1.
         13    1    4    4    0    0 -0.35791647250E+02 -0.36672510060E+02 -0.47054452494E+02  0.69570370895E+02  0.00000000000E+00 0. -1.
        -14    1    4    4    0    0 -0.13761688274E+01 -0.11947230401E+02 -0.16674281886E+03  0.16717594862E+03  0.00000000000E+00 0.  1.
</event>
<event>
12    1  0.8500177E-002  0.1773801E+03  0.7818608E-02  0.1170456E+00
         21   -1    0    0  501  502  0.00000000000E+00  0.00000000000E+00  0.71830218489E+02  0.71830218489E+02  0.00000000000E+00 0.  1.
         21   -1    0    0  502  503 -0.00000000000E+00 -0.00000000000E+00 -0.44638580409E+03  0.44638580409E+03  0.00000000000E+00 0.  1.
         -6    2    1    2    0  503  0.20647074009E+02 -0.34289259421E+02 -0.22484979805E+03  0.28639333748E+03  0.17280525771E+03 0.  0.
        -24    2    3    3    0    0 -0.28892015384E+02 -0.24611844513E+02 -0.49160929888E+02  0.10353699460E+03  0.82840936616E+02 0.  0.
          6    2    1    2  501    0 -0.20647074009E+02  0.34289259421E+02 -0.14970578756E+03  0.23182268510E+03  0.17241774712E+03 0.  0.
         24    2    5    5    0    0 -0.76421126189E+02  0.85838024985E+00 -0.10644637095E+03  0.15358052445E+03  0.80095082600E+02 0.  0.
          5    1    5    5  501    0  0.55774052180E+02  0.33430879171E+02 -0.43259416607E+02  0.78242160655E+02  0.47000000000E+01 0. -1.
        -11    1    6    6    0    0 -0.24056165765E+02 -0.34588974823E+02 -0.20435724568E+02  0.46826436223E+02  0.00000000000E+00 0.  1.
         12    1    6    6    0    0 -0.52364960423E+02  0.35447355073E+02 -0.86010646383E+02  0.10675408823E+03  0.00000000000E+00 0. -1.
         -5    1    3    3    0  503  0.49539089392E+02 -0.96774149077E+01 -0.17568886816E+03  0.18285634288E+03  0.47000000000E+01 0.  1.
         11    1    4    4    0    0 -0.48595649576E+02 -0.41390132505E+02 -0.42904275584E+02  0.76912008749E+02  0.00000000000E+00 0. -1.
        -12    1    4    4    0    0  0.19703634192E+02  0.16778287992E+02 -0.62566543038E+01  0.26624985848E+02  0.00000000000E+00 0.  1.
</event>
<event>
12    1  0.8500177E-002  0.1945949E+03  0.7818608E-02  0.1154938E+00
         21   -1    0    0  503  502  0.00000000000E+00  0.00000000000E+00  0.46096118261E+03  0.46096118261E+03  0.00000000000E+00 0.  1.
         21   -1    0    0  501  503 -0.00000000000E+00 -0.00000000000E+00 -0.87946487953E+02  0.87946487953E+02  0.00000000000E+00 0.  1.
          6    2    1    2  501    0 -0.21029011511E+02  0.90162952227E+02  0.11096851815E+03  0.22401155815E+03  0.17115954220E+03 0.  0.
         24    2    3    3    0    0  0.34082609504E+02  0.89819657414E+02  0.11346714158E+03  0.16864241746E+03  0.79600738800E+02 0.  0.
         -6    2    1    2    0  502  0.21029011511E+02 -0.90162952227E+02  0.26204617651E+03  0.32489611241E+03  0.16827866163E+03 0.  0.
        -24    2    5    5    0    0 -0.68427317754E+01 -0.65356437489E+02  0.26747352761E+03  0.28689948904E+03  0.80317756091E+02 0.  0.
          5    1    3    3  501    0 -0.55111621015E+02  0.34329481284E+00 -0.24986234336E+01  0.55369140695E+02  0.47000000000E+01 0. -1.
        -11    1    4    4    0    0 -0.23209261619E+02  0.37736559105E+02  0.59848977244E+02  0.74462190373E+02  0.00000000000E+00 0.  1.
         12    1    4    4    0    0  0.57291871123E+02  0.52083098309E+02  0.53618164341E+02  0.94180227083E+02  0.00000000000E+00 0. -1.
         -5    1    5    5    0  502  0.27871743287E+02 -0.24806514738E+02 -0.54273511015E+01  0.37996623367E+02  0.47000000000E+01 0.  1.
         11    1    6    6    0    0 -0.26246729332E+02 -0.60611760073E+01  0.25789060896E+02  0.37292148197E+02  0.00000000000E+00 0. -1.
        -12    1    6    6    0    0  0.19403997556E+02 -0.59295261481E+02  0.24168446671E+03  0.24960734085E+03  0.00000000000E+00 0.  1.
</event>
<event>
12    1  0.8500177E-002  0.3658682E+03  0.7818608E-02  0.1056344E+00
         21   -1    0    0  501  502  0.00000000000E+00  0.00000000000E+00  0.31373581179E+03  0.31373581179E+03  0.00000000000E+00 0. -1.
         21   -1    0    0  502  503 -0.00000000000E+00 -0.00000000000E+00 -0.46242696370E+03  0.46242696370E+03  0.00000000000E+00 0.  1.
         -6    2    1    2    0  503 -0.32129705381E+03 -0.29749265435E+02  0.34601419409E+02  0.36750078111E+03  0.17246086602E+03 0.  0.
        -24    2    3    3    0    0 -0.17292624943E+03 -0.83802373707E+02  0.22986863839E+02  0.20909427238E+03  0.79156132124E+02 0.  0.
          6    2    1    2  501    0  0.32129705381E+03  0.29749265435E+02 -0.18329257132E+03  0.40866199438E+03  0.17114801598E+03 0.  0.
         24    2    5    5    0    0  0.14239691478E+03 -0.38061751511E+02 -0.12581548507E+03  0.20883882454E+03  0.77836624313E+02 0.  0.
          5    1    5    5  501    0  0.17890013903E+03  0.67811016947E+02 -0.57477086254E+02  0.19982316985E+03  0.47000000000E+01 0. -1.
        -11    1    6    6    0    0 -0.60790557124E+01 -0.15314903138E+02 -0.12504167318E+02  0.20684665257E+02  0.00000000000E+00 0.  1.
         12    1    6    6    0    0  0.14847597049E+03 -0.22746848374E+02 -0.11331131775E+03  0.18815415928E+03  0.00000000000E+00 0. -1.
         -5    1    3    3    0  503 -0.14837080438E+03  0.54053108272E+02  0.11614555570E+02  0.15840650872E+03  0.47000000000E+01 0.  1.
         13    1    4    4    0    0 -0.17535537324E+02  0.15505836332E+02  0.30673235111E+01  0.23607933055E+02  0.00000000000E+00 0. -1.
        -14    1    4    4    0    0 -0.15539071211E+03 -0.99308210039E+02  0.19919540328E+02  0.18548633933E+03  0.00000000000E+00 0.  1.
</event>
<event>
12    1  0.8500177E-002  0.2154704E+03  0.7818608E-02  0.1137428E+00
         21   -1    0    0  501  502  0.00000000000E+00  0.00000000000E+00  0.23730418303E+03  0.23730418303E+03  0.00000000000E+00 0.  1.
         21   -1    0    0  502  503 -0.00000000000E+00 -0.00000000000E+00 -0.20314451351E+03  0.20314451351E+03  0.00000000000E+00 0. -1.
         -6    2    1    2    0  503  0.21865627168E+02 -0.12722664828E+03  0.60974434247E+02  0.22331620642E+03  0.17171930799E+03 0.  0.
        -24    2    3    3    0    0 -0.39580810792E+02 -0.42614442142E+02  0.67631007419E+02  0.11842917132E+03  0.77903043545E+02 0.  0.
          6    2    1    2  501    0 -0.21865627168E+02  0.12722664828E+03 -0.26814764724E+02  0.21713249012E+03  0.17251887136E+03 0.  0.
         24    2    5    5    0    0  0.37410100171E+02  0.40298378561E+02 -0.39082751705E+02  0.11110075226E+03  0.88274802540E+02 0.  0.
          5    1    5    5  501    0 -0.59275727339E+02  0.86928269720E+02  0.12267986981E+02  0.10603173786E+03  0.47000000000E+01 0. -1.
        -11    1    6    6    0    0  0.23276476799E+02 -0.53438841216E+01  0.22732860886E+02  0.32971721729E+02  0.00000000000E+00 0.  1.
         12    1    6    6    0    0  0.14133623373E+02  0.45642262683E+02 -0.61815612591E+02  0.78129030536E+02  0.00000000000E+00 0. -1.
         -5    1    3    3    0  503  0.61446437960E+02 -0.84612206139E+02 -0.66565731725E+01  0.10488703510E+03  0.47000000000E+01 0.  1.
         13    1    4    4    0    0 -0.41264881475E+01  0.10189850947E+02 -0.12158383029E+02  0.16391682178E+02  0.00000000000E+00 0. -1.
        -14    1    4    4    0    0 -0.35454322645E+02 -0.52804293089E+02  0.79789390448E+02  0.10203748914E+03  0.00000000000E+00 0.  1.
</event>
<event>
12    1  0.8500177E-002  0.1936721E+03  0.7818608E-02  0.1155418E+00
         21   -1    0    0  501  502  0.00000000000E+00  0.00000000000E+00  0.23234721967E+04  0.23234721967E+04  0.00000000000E+00 0. -1.
         21   -1    0    0  502  503 -0.00000000000E+00 -0.00000000000E+00 -0.73106978560E+02  0.73106978560E+02  0.00000000000E+00 0. -1.
         -6    2    1    2    0  503 -0.73645596880E+02  0.49325621871E+02  0.67302106767E+02  0.20503286033E+03  0.17219816877E+03 0.  0.
        -24    2    3    3    0    0 -0.43513188359E+02  0.56464541702E+02 -0.23121749701E+02  0.10933808493E+03  0.79615070667E+02 0.  0.
          6    2    1    2  501    0  0.73645596880E+02 -0.49325621871E+02  0.21830631113E+04  0.21915463149E+04  0.17103804059E+03 0.  0.
         24    2    5    5    0    0  0.11963660707E+02  0.31335800065E+02  0.12359268642E+04  0.12389708130E+04  0.80052483887E+02 0.  0.
          5    1    5    5  501    0  0.61681936173E+02 -0.80661421935E+02  0.94713624710E+03  0.95257550189E+03  0.47000000000E+01 0. -1.
        -11    1    6    6    0    0 -0.16505434643E+02  0.48790325109E+02  0.87001624889E+03  0.87153955649E+03  0.00000000000E+00 0.  1.
         12    1    6    6    0    0  0.28469095351E+02 -0.17454525045E+02  0.36591061534E+03  0.36743125650E+03  0.00000000000E+00 0. -1.
         -5    1    3    3    0  503 -0.30132408521E+02 -0.71389198312E+01  0.90423856468E+02  0.95694775396E+02  0.47000000000E+01 0.  1.
         13    1    4    4    0    0 -0.48638186354E+02  0.10292768714E+01  0.10140946505E+01  0.48659644169E+02  0.00000000000E+00 0. -1.
        -14    1    4    4    0    0  0.51249979948E+01  0.55435264830E+02 -0.24135844351E+02  0.60678440766E+02  0.00000000000E+00 0.  1.
</event>
<event>
12    1  0.8500177E-002  0.1721325E+03  0.7818608E-02  0.1175679E+00
         21   -1    0    0  503  502  0.00000000000E+00  0.00000000000E+00  0.30517796647E+03  0.30517796647E+03  0.00000000000E+00 0.  1.
         21   -1    0    0  501  503 -0.00000000000E+00 -0.00000000000E+00 -0.11505958333E+03  0.11505958333E+03  0.00000000000E+00 0.  1.
          6    2    1    2  501    0  0.19472031195E+01  0.42721247363E+01  0.11800652809E+02  0.17239321953E+03  0.17192476286E+03 0.  0.
         24    2    3    3    0    0 -0.36794748485E+02  0.17234420038E+02 -0.29391863442E+02  0.11418777899E+03  0.10258698009E+03 0.  0.
         -6    2    1    2    0  502 -0.19472031195E+01 -0.42721247363E+01  0.17831773033E+03  0.24784433026E+03  0.17206846440E+03 0.  0.
        -24    2    5    5    0    0  0.51628939902E+02 -0.19474881958E+02  0.55110425349E+02  0.11255332195E+03  0.81155855228E+02 0.  0.
          5    1    3    3  501    0  0.38741951605E+02 -0.12962295301E+02  0.41192516251E+02  0.58205440542E+02  0.47000000000E+01 0. -1.
        -11    1    4    4    0    0 -0.12578423723E+01  0.52799260187E+02  0.53363192234E+01  0.53083145598E+02  0.00000000000E+00 0.  1.
         12    1    4    4    0    0 -0.35536906113E+02 -0.35564840149E+02 -0.34728182666E+02  0.61104633394E+02  0.00000000000E+00 0. -1.
         -5    1    5    5    0  502 -0.53576143021E+02  0.15202757221E+02  0.12320730498E+03  0.13529100831E+03  0.47000000000E+01 0.  1.
         13    1    6    6    0    0  0.65722998124E+02  0.34524702337E+01  0.54795330891E+02  0.85638544596E+02  0.00000000000E+00 0. -1.
        -14    1    6    6    0    0 -0.14094058222E+02 -0.22927352191E+02  0.31509445868E+00  0.26914777357E+02  0.00000000000E+00 0.  1.
</event>
<event>
12    1  0.8500177E-002  0.1772623E+03  0.7818608E-02  0.1170837E+00
         21   -1    0    0  501  502  0.00000000000E+00  0.00000000000E+00  0.63770738154E+02  0.63770738154E+02  0.00000000000E+00 0.  1.
         21   -1    0    0  502  503 -0.00000000000E+00 -0.00000000000E+00 -0.50844808316E+03  0.50844808316E+03  0.00000000000E+00 0.  1.
         -6    2    1    2    0  503  0.18921814301E+02  0.32917939071E+02 -0.16686773822E+03  0.24344768285E+03  0.17314822106E+03 0.  0.
        -24    2    3    3    0    0 -0.14029993382E+02 -0.41934620342E+02 -0.11376010214E+03  0.14581962187E+03  0.79791278882E+02 0.  0.
          6    2    1    2  501    0 -0.18921814301E+02 -0.32917939071E+02 -0.27780960679E+03  0.32877113847E+03  0.17167020154E+03 0.  0.
         24    2    5    5    0    0 -0.27653079100E+02  0.28358155087E+02 -0.80481578011E+02  0.12191022954E+03  0.82558718043E+02 0.  0.
          5    1    5    5  501    0  0.87312647987E+01 -0.61276094158E+02 -0.19732802878E+03  0.20686090893E+03  0.47000000000E+01 0. -1.
        -11    1    6    6    0    0  0.17074992855E+02 -0.19410059875E+02 -0.27167698238E+02  0.37501861725E+02  0.00000000000E+00 0.  1.
         12    1    6    6    0    0 -0.44728071955E+02  0.47768214962E+02 -0.53313879773E+02  0.84408367820E+02  0.00000000000E+00 0. -1.
         -5    1    3    3    0  503  0.32951807683E+02  0.74852559413E+02 -0.53107636084E+02  0.97628060980E+02  0.47000000000E+01 0.  1.
         11    1    4    4    0    0  0.25388105956E+02 -0.30208588511E+01 -0.86195630510E+01  0.26981074467E+02  0.00000000000E+00 0. -1.
        -12    1    4    4    0    0 -0.39418099337E+02 -0.38913761491E+02 -0.10514053908E+03  0.11883854740E+03  0.00000000000E+00 0.  1.
</event>
<event>
12    1  0.8500177E-002  0.2239727E+03  0.7818608E-02  0.1130998E+00
         21   -1    0    0  503  502  0.00000000000E+00  0.00000000000E+00  0.19294126766E+02  0.19294126766E+02  0.00000000000E+00 0.  1.
         21   -1    0    0  501  503 -0.00000000000E+00 -0.00000000000E+00 -0.26409399600E+04  0.26409399600E+04  0.00000000000E+00 0.  1.
          6    2    1    2  501    0 -0.92537277083E+02 -0.10974676098E+03 -0.14812164430E+04  0.14980193976E+04  0.17161720584E+03 0.  0.
         24    2    3    3    0    0 -0.72627382353E+02 -0.10888462570E+03 -0.14618491283E+04  0.14698355358E+04  0.79265566440E+02 0.  0.
         -6    2    1    2    0  502  0.92537277083E+02  0.10974676098E+03 -0.11404293903E+04  0.11622146892E+04  0.17191943007E+03 0.  0.
        -24    2    5    5    0    0  0.96515857565E+02  0.16025546506E+02 -0.74866982502E+03  0.75935349462E+03  0.80864664666E+02 0.  0.
          5    1    3    3  501    0 -0.19909894730E+02 -0.86213528124E+00 -0.19367314646E+02  0.28183861729E+02  0.47000000000E+01 0. -1.
        -13    1    4    4    0    0 -0.99816947929E+01 -0.32362737677E+02 -0.13065362289E+03  0.13497166441E+03  0.00000000000E+00 0.  1.
         14    1    4    4    0    0 -0.62645687560E+02 -0.76521888021E+02 -0.13311955054E+04  0.13348638714E+04  0.00000000000E+00 0. -1.
         -5    1    5    5    0  502 -0.39785804828E+01  0.93721214473E+02 -0.39175956524E+03  0.40286119458E+03  0.47000000000E+01 0.  1.
         13    1    6    6    0    0  0.77471158687E+02 -0.25227441418E+02 -0.47448113484E+03  0.48142554102E+03  0.00000000000E+00 0. -1.
        -14    1    6    6    0    0  0.19044698878E+02  0.41252987924E+02 -0.27418869018E+03  0.27792795360E+03  0.00000000000E+00 0.  1.
</event>
<event>
12    1  0.8500177E-002  0.1816443E+03  0.7818608E-02  0.1166327E+00
         21   -1    0    0  501  502  0.00000000000E+00  0.00000000000E+00  0.85187105707E+03  0.85187105707E+03  0.00000000000E+00 0.  1.
         21   -1    0    0  502  503 -0.00000000000E+00 -0.00000000000E+00 -0.39360740190E+02  0.39360740190E+02  0.00000000000E+00 0.  1.
         -6    2    1    2    0  503 -0.24744010146E+02 -0.48224163689E+02  0.46616078974E+03  0.50014020701E+03  0.17290606920E+03 0.  0.
        -24    2    3    3    0    0 -0.22372150299E+02  0.28827807114E+02  0.34959285995E+03  0.36030886509E+03  0.79219662752E+02 0.  0.
          6    2    1    2  501    0  0.24744010146E+02  0.48224163689E+02  0.34634952713E+03  0.39109159025E+03  0.17336897363E+03 0.  0.
         24    2    5    5    0    0  0.82777830871E+02  0.41442166397E+02  0.25444138723E+03  0.28208188419E+03  0.79121093355E+02 0.  0.
          5    1    5    5  501    0 -0.58033820725E+02  0.67819972929E+01  0.91908139907E+02  0.10900970607E+03  0.47000000000E+01 0. -1.
        -11    1    6    6    0    0  0.34565307729E+02  0.84016862311E+01  0.19681287724E+03  0.20000164369E+03  0.00000000000E+00 0.  1.
         12    1    6    6    0    0  0.48212523142E+02  0.33040480165E+02  0.57628509984E+02  0.82080240499E+02  0.00000000000E+00 0. -1.
         -5    1    3    3    0  503 -0.23718598471E+01 -0.77051970803E+02  0.11656792980E+03  0.13983134191E+03  0.47000000000E+01 0.  1.
         13    1    4    4    0    0 -0.22064760908E+02  0.55373031687E+02  0.21426239725E+03  0.22239919331E+03  0.00000000000E+00 0. -1.
        -14    1    4    4    0    0 -0.30738939062E+00 -0.26545224573E+02  0.13533046270E+03  0.13790967178E+03  0.00000000000E+00 0.  1.
</event>
<event>
12    1  0.8500177E-002  0.1928807E+03  0.7818608E-02  0.1156056E+00
         21   -1    0    0  501  502  0.00000000000E+00  0.00000000000E+00  0.56890992355E+02  0.56890992355E+02  0.00000000000E+00 0. -1.
         21   -1    0    0  502  503 -0.00000000000E+00 -0.00000000000E+00 -0.68857890699E+03  0.68857890699E+03  0.00000000000E+00 0.  1.
         -6    2    1    2    0  503 -0.82037423270E+02 -0.21564026216E+02 -0.40189456355E+03  0.44545663666E+03  0.17238685821E+03 0.  0.
        -24    2    3    3    0    0 -0.97493630231E+02 -0.59165670742E+02 -0.23218366426E+03  0.27088098731E+03  0.80384518461E+02 0.  0.
          6    2    1    2  501    0  0.82037423270E+02  0.21564026216E+02 -0.22979335108E+03  0.30001326268E+03  0.17322767546E+03 0.  0.
         24    2    5    5    0    0  0.95715921855E+02  0.67423858323E+02 -0.19311545569E+03  0.23953530361E+03  0.79850285399E+02 0.  0.
          5    1    5    5  501    0 -0.13678498586E+02 -0.45859832107E+02 -0.36677895384E+02  0.60477959078E+02  0.47000000000E+01 0. -1.
        -13    1    6    6    0    0 -0.13591284457E+02  0.35607529183E+01 -0.29383579912E+02  0.32569874777E+02  0.00000000000E+00 0.  1.
         14    1    6    6    0    0  0.10930720631E+03  0.63863105404E+02 -0.16373187578E+03  0.20696542883E+03  0.00000000000E+00 0. -1.
         -5    1    3    3    0  503  0.15456206961E+02  0.37601644527E+02 -0.16971089930E+03  0.17457564935E+03  0.47000000000E+01 0.  1.
         13    1    4    4    0    0 -0.33638260638E+02 -0.56267747442E+02 -0.66889948155E+02  0.93658193156E+02  0.00000000000E+00 0. -1.
        -14    1    4    4    0    0 -0.63855369592E+02 -0.28979233007E+01 -0.16529371610E+03  0.17722279415E+03  0.00000000000E+00 0.  1.
</event>
<event>
12    1  0.8500177E-002  0.1811441E+03  0.7818608E-02  0.1167153E+00
         21   -1    0    0  501  502  0.00000000000E+00  0.00000000000E+00  0.40392307660E+02  0.40392307660E+02  0.00000000000E+00 0.  1.
         21   -1    0    0  502  503 -0.00000000000E+00 -0.00000000000E+00 -0.12991389084E+04  0.12991389084E+04  0.00000000000E+00 0.  1.
         -6    2    1    2    0  503 -0.23439682686E+01 -0.48779985504E+02 -0.10448976292E+04  0.10604830230E+04  0.17443682328E+03 0.  0.
        -24    2    3    3    0    0  0.27002585030E+02 -0.94715633552E+02 -0.72133638890E+03  0.73232868401E+03  0.79239665766E+02 0.  0.
          6    2    1    2  501    0  0.23439682686E+01  0.48779985504E+02 -0.21384897151E+03  0.27904819307E+03  0.17248631907E+03 0.  0.
         24    2    5    5    0    0 -0.45701328728E+01  0.91472152579E+02 -0.19772275695E+03  0.23265238809E+03  0.81515668755E+02 0.  0.
          5    1    5    5  501    0  0.69141011414E+01 -0.42692167075E+02 -0.16126214561E+02  0.46395804985E+02  0.47000000000E+01 0. -1.
        -13    1    6    6    0    0  0.23958392005E+02  0.34851649058E+02 -0.26111098805E+02  0.49703435196E+02  0.00000000000E+00 0.  1.
         14    1    6    6    0    0 -0.28528524878E+02  0.56620503521E+02 -0.17161165815E+03  0.18294895289E+03  0.00000000000E+00 0. -1.
         -5    1    3    3    0  503 -0.29346553298E+02  0.45935648048E+02 -0.32356124034E+03  0.32815433900E+03  0.47000000000E+01 0.  1.
         11    1    4    4    0    0  0.17999411734E+02 -0.17238577598E+02 -0.44425966409E+02  0.50939315580E+02  0.00000000000E+00 0. -1.
        -12    1    4    4    0    0  0.90031732961E+01 -0.77477055954E+02 -0.67691042249E+03  0.68138936843E+03  0.00000000000E+00 0.  1.
</event>
<event>
12    1  0.8500177E-002  0.4538279E+03  0.7818608E-02  0.1026684E+00
         21   -1    0    0  501  502  0.00000000000E+00  0.00000000000E+00  0.13194720957E+04  0.13194720957E+04  0.00000000000E+00 0. -1.
         21   -1    0    0  502  503 -0.00000000000E+00 -0.00000000000E+00 -0.39556755092E+03  0.39556755092E+03  0.00000000000E+00 0.  1.
         -6    2    1    2    0  503 -0.22741064626E+02  0.41937571077E+03 -0.20615645965E+03  0.49725573871E+03  0.16843289768E+03 0.  0.
        -24    2    3    3    0    0 -0.21728494552E+02  0.42999383897E+03 -0.18969927105E+03  0.47708895906E+03  0.79127949522E+02 0.  0.
          6    2    1    2  501    0  0.22741064626E+02 -0.41937571077E+03  0.11300610045E+04  0.12177839080E+04  0.17194949795E+03 0.  0.
         24    2    5    5    0    0 -0.26872400393E+02 -0.10370368852E+03  0.31118524050E+03  0.33875607657E+03  0.80267332014E+02 0.  0.
          5    1    5    5  501    0  0.49613465019E+02 -0.31567202224E+03  0.81887576397E+03  0.87902783138E+03  0.47000000000E+01 0. -1.
        -13    1    6    6    0    0  0.12409407527E+02 -0.30570557354E+02  0.18359880783E+03  0.18653974003E+03  0.00000000000E+00 0.  1.
         14    1    6    6    0    0 -0.39281807920E+02 -0.73133131171E+02  0.12758643267E+03  0.15221633654E+03  0.00000000000E+00 0. -1.
         -5    1    3    3    0  503 -0.10125700740E+01 -0.10618128200E+02 -0.16457188605E+02  0.20166779649E+02  0.47000000000E+01 0.  1.
         13    1    4    4    0    0  0.22296236994E+02  0.58032457686E+02 -0.38764984159E+02  0.73263990651E+02  0.00000000000E+00 0. -1.
        -14    1    4    4    0    0 -0.44024731546E+02  0.37196138128E+03 -0.15093428689E+03  0.40382496841E+03  0.00000000000E+00 0.  1.
</event>
<event>
12    1  0.8500177E-002  0.1930697E+03  0.7818608E-02  0.1155944E+00
         21   -1    0    0  503  502  0.00000000000E+00  0.00000000000E+00  0.19269572426E+03  0.19269572426E+03  0.00000000000E+00 0.  1.
         21   -1    0    0  501  503 -0.00000000000E+00 -0.00000000000E+00 -0.36782329557E+03  0.36782329557E+03  0.00000000000E+00 0. -1.
          6    2    1    2  501    0  0.76876801722E+02 -0.33042586585E+02 -0.28120761613E+03  0.34110646850E+03  0.17399438011E+03 0.  0.
         24    2    3    3    0    0 -0.90479927875E+01  0.29241590341E+02 -0.10823957525E+03  0.13812267069E+03  0.80156906933E+02 0.  0.
         -6    2    1    2    0  502 -0.76876801722E+02  0.33042586585E+02  0.10608004482E+03  0.21941255133E+03  0.17287867596E+03 0.  0.
        -24    2    5    5    0    0 -0.10531292788E+03  0.63716198360E+02  0.81889180920E+02  0.17086595901E+03  0.85666628757E+02 0.  0.
          5    1    3    3  501    0  0.85924794510E+02 -0.62284176926E+02 -0.17296804088E+03  0.20298379781E+03  0.47000000000E+01 0. -1.
        -13    1    4    4    0    0 -0.22273434476E+02 -0.17309465298E+02 -0.72993330741E+02  0.78254391601E+02  0.00000000000E+00 0.  1.
         14    1    4    4    0    0  0.13225441689E+02  0.46551055639E+02 -0.35246244505E+02  0.59868279085E+02  0.00000000000E+00 0. -1.
         -5    1    5    5    0  502  0.28436126160E+02 -0.30673611774E+02  0.24190863904E+02  0.48546592329E+02  0.47000000000E+01 0.  1.
         13    1    6    6    0    0 -0.73909217411E+00 -0.10716715522E+02 -0.86472709241E+01  0.13790197361E+02  0.00000000000E+00 0. -1.
        -14    1    6    6    0    0 -0.10457383571E+03  0.74432913882E+02  0.90536451844E+02  0.15707576164E+03  0.00000000000E+00 0.  1.
</event>
<event>
12    1  0.8500177E-002  0.1957167E+03  0.7818608E-02  0.1153423E+00
         21   -1    0    0  503  502  0.00000000000E+00  0.00000000000E+00  0.54112299637E+03  0.54112299637E+03  0.00000000000E+00 0. -1.
         21   -1    0    0  501  503 -0.00000000000E+00 -0.00000000000E+00 -0.97628601428E+02  0.97628601428E+02  0.00000000000E+00 0. -1.
          6    2    1    2  501    0 -0.91228206669E+02 -0.18676339283E+02  0.54151252278E+02  0.20298431430E+03  0.17204325732E+03 0.  0.
         24    2    3    3    0    0  0.45214714711E+01 -0.53647574750E+02  0.26724515347E+02  0.97318311857E+02  0.76538540104E+02 0.  0.
         -6    2    1    2    0  502  0.91228206669E+02  0.18676339283E+02  0.38934314267E+03  0.43576728350E+03  0.17214427462E+03 0.  0.
        -24    2    5    5    0    0 -0.31481422379E+01  0.52446975204E+02  0.20955947164E+03  0.22987505574E+03  0.78528804206E+02 0.  0.
          5    1    3    3  501    0 -0.95749678140E+02  0.34971235466E+02  0.27426736931E+02  0.10566600244E+03  0.47000000000E+01 0. -1.
        -13    1    4    4    0    0 -0.69346997190E+01  0.11244699676E+02  0.28484507840E+02  0.31399052819E+02  0.00000000000E+00 0.  1.
         14    1    4    4    0    0  0.11456171190E+02 -0.64892274426E+02 -0.17599924939E+01  0.65919259038E+02  0.00000000000E+00 0. -1.
         -5    1    5    5    0  502  0.94376348907E+02 -0.33770635920E+02  0.17978367102E+03  0.20589222776E+03  0.47000000000E+01 0.  1.
         13    1    6    6    0    0  0.29742775622E+02  0.31864748817E+02  0.53216475591E+02  0.68789448270E+02  0.00000000000E+00 0. -1.
        -14    1    6    6    0    0 -0.32890917860E+02  0.20582226387E+02  0.15634299605E+03  0.16108560747E+03  0.00000000000E+00 0.  1.
</event>
<event>
12    1  0.8500177E-002  0.2461798E+03  0.7818608E-02  0.1116554E+00
         21   -1    0    0  501  502  0.00000000000E+00  0.00000000000E+00  0.36950688607E+03  0.36950688607E+03  0.00000000000E+00 0. -1.
         21   -1    0    0  502  503 -0.00000000000E+00 -0.00000000000E+00 -0.22369162306E+03  0.22369162306E+03  0.00000000000E+00 0. -1.
         -6    2    1    2    0  503 -0.76686069368E+02 -0.14894580610E+03 -0.83924901060E+02  0.26009206373E+03  0.18038538247E+03 0.  0.
        -24    2    3    3    0    0 -0.15400928693E+02 -0.50382847595E+02  0.26028489888E+02  0.10014718749E+03  0.81094740516E+02 0.  0.
          6    2    1    2  501    0  0.76686069368E+02  0.14894580610E+03  0.22974016407E+03  0.33310644539E+03  0.17353315127E+03 0.  0.
         24    2    5    5    0    0  0.19752407021E+02  0.15865370008E+03  0.14316199966E+03  0.22892605537E+03  0.79690818463E+02 0.  0.
          5    1    5    5  501    0  0.56933662347E+02 -0.97078939855E+01  0.86578164409E+02  0.10418039003E+03  0.47000000000E+01 0. -1.
        -11    1    6    6    0    0 -0.20230999302E+02  0.30597626695E+02  0.62273134390E+02  0.72273448505E+02  0.00000000000E+00 0.  1.
         12    1    6    6    0    0  0.39983406323E+02  0.12805607339E+03  0.80888865267E+02  0.15665260686E+03  0.00000000000E+00 0. -1.
         -5    1    3    3    0  503 -0.61285140675E+02 -0.98562958500E+02 -0.10995339095E+03  0.15994487624E+03  0.47000000000E+01 0.  1.
         11    1    4    4    0    0 -0.24518781392E+02 -0.69255130651E+02  0.10839215648E+02  0.74262590571E+02  0.00000000000E+00 0. -1.
        -12    1    4    4    0    0  0.91178526992E+01  0.18872283056E+02  0.15189274240E+02  0.25884596917E+02  0.00000000000E+00 0.  1.
</event>
<event>
12    1  0.8500177E-002  0.3252121E+03  0.7818608E-02  0.1073305E+00
         21   -1    0    0  501  502  0.00000000000E+00  0.00000000000E+00  0.80957215104E+03  0.80957215104E+03  0.00000000000E+00 0. -1.
         21   -1    0    0  502  503 -0.00000000000E+00 -0.00000000000E+00 -0.18859576281E+03  0.18859576281E+03  0.00000000000E+00 0. -1.
         -6    2    1    2    0  503 -0.15236858384E+03 -0.22914321459E+03  0.33484303587E+02  0.32666970156E+03  0.17282678379E+03 0.  0.
        -24    2    3    3    0    0 -0.13993030954E+03 -0.17918183113E+03 -0.32269905437E+02  0.24302428023E+03  0.79579104343E+02 0.  0.
          6    2    1    2  501    0  0.15236858384E+03  0.22914321459E+03  0.58749208464E+03  0.67149821230E+03  0.17332080506E+03 0.  0.
         24    2    5    5    0    0  0.16846531814E+02  0.79402363453E+02  0.29125647142E+03  0.31293695167E+03  0.80688677137E+02 0.  0.
          5    1    5    5  501    0  0.13552205203E+03  0.14974085113E+03  0.29623561323E+03  0.35856126063E+03  0.47000000000E+01 0. -1.
        -13    1    6    6    0    0  0.17305757947E+01 -0.15262106697E+02  0.19855941230E+02  0.25103489709E+02  0.00000000000E+00 0.  1.
         14    1    6    6    0    0  0.15115956019E+02  0.94664470151E+02  0.27140053019E+03  0.28783346196E+03  0.00000000000E+00 0. -1.
         -5    1    3    3    0  503 -0.12438274300E+02 -0.49961383459E+02  0.65754209024E+02  0.83645421328E+02  0.47000000000E+01 0.  1.
         11    1    4    4    0    0 -0.30490255821E+02 -0.50863779639E+02 -0.44186644149E+02  0.73954305489E+02  0.00000000000E+00 0. -1.
        -12    1    4    4    0    0 -0.10944005372E+03 -0.12831805149E+03  0.11916738712E+02  0.16906997474E+03  0.00000000000E+00 0.  1.
</event>
<event>
12    1  0.8500177E-002  0.1830120E+03  0.7818608E-02  0.1166237E+00
         21   -1    0    0  501  502  0.00000000000E+00  0.00000000000E+00  0.26932032043E+03  0.26932032043E+03  0.00000000000E+00 0.  1.
         21   -1    0    0  502  503 -0.00000000000E+00 -0.00000000000E+00 -0.12131163631E+03  0.12131163631E+03  0.00000000000E+00 0.  1.
         -6    2    1    2    0  503 -0.38712150565E+02 -0.31105891877E+02  0.58685736969E+02  0.18698524088E+03  0.17045016126E+03 0.  0.
        -24    2    3    3    0    0 -0.30224808803E+02 -0.83122915197E+02  0.13763973354E+02  0.11757443098E+03  0.76232156987E+02 0.  0.
          6    2    1    2  501    0  0.38712150565E+02  0.31105891877E+02  0.89322947148E+02  0.20364671586E+03  0.17614536293E+03 0.  0.
         24    2    5    5    0    0  0.34890237999E+02  0.25243200696E+02 -0.19390820864E+02  0.94606578665E+02  0.81974708928E+02 0.  0.
          5    1    5    5  501    0  0.38219125660E+01  0.58626911815E+01  0.10871376801E+03  0.10904013719E+03  0.47000000000E+01 0. -1.
        -13    1    6    6    0    0  0.25975768225E+02  0.20522679341E+02  0.29709276466E+02  0.44481029780E+02  0.00000000000E+00 0.  1.
         14    1    6    6    0    0  0.89144697745E+01  0.47205213548E+01 -0.49100097329E+02  0.50125548885E+02  0.00000000000E+00 0. -1.
         -5    1    3    3    0  503 -0.84873417621E+01  0.52017023319E+02  0.44921763615E+02  0.69410809904E+02  0.47000000000E+01 0.  1.
         11    1    4    4    0    0 -0.13666072016E+02 -0.13240218365E+02  0.37404213058E+02  0.41965939298E+02  0.00000000000E+00 0. -1.
        -12    1    4    4    0    0 -0.16558736787E+02 -0.69882696832E+02 -0.23640239704E+02  0.75608491678E+02  0.00000000000E+00 0.  1.
</event>
<event>
12    1  0.8500177E-002  0.1955584E+03  0.7818608E-02  0.1156708E+00
         21   -1    0    0  503  502  0.00000000000E+00  0.00000000000E+00  0.12093904397E+03  0.12093904397E+03  0.00000000000E+00 0. -1.
         21   -1    0    0  501  503 -0.00000000000E+00 -0.00000000000E+00 -0.81575657326E+03  0.81575657326E+03  0.00000000000E+00 0.  1.
          6    2    1    2  501    0 -0.19800274890E+02 -0.80571855441E+02 -0.71723699403E+03  0.73985633443E+03  0.16147636118E+03 0.  0.
         24    2    3    3    0    0  0.24305707388E+02 -0.58887687196E+01 -0.48068256186E+03  0.48785833742E+03  0.79527272765E+02 0.  0.
         -6    2    1    2    0  502  0.19800274890E+02  0.80571855441E+02  0.22419464738E+02  0.19683928281E+03  0.17708527912E+03 0.  0.
        -24    2    5    5    0    0  0.78634173665E+02  0.44093431239E+02  0.33094674580E+02  0.12663847667E+03  0.82549877896E+02 0.  0.
          5    1    3    3  501    0 -0.44105982277E+02 -0.74683086722E+02 -0.23655443217E+03  0.25199799701E+03  0.47000000000E+01 0. -1.
        -13    1    4    4    0    0 -0.13411293355E+02  0.21049803509E+01 -0.37692056051E+03  0.37716495419E+03  0.00000000000E+00 0.  1.
         14    1    4    4    0    0  0.37717000742E+02 -0.79937490705E+01 -0.10376200134E+03  0.11069338324E+03  0.00000000000E+00 0. -1.
         -5    1    5    5    0  502 -0.58833898775E+02  0.36478424203E+02 -0.10675209842E+02  0.70200806139E+02  0.47000000000E+01 0.  1.
         13    1    6    6    0    0  0.37475108565E+02  0.53046175502E+02  0.49265946455E+02  0.81519408594E+02  0.00000000000E+00 0. -1.
        -14    1    6    6    0    0  0.41159065100E+02 -0.89527442634E+01 -0.16171271875E+02  0.45119068073E+02  0.00000000000E+00 0.  1.
</event>
<event>
12    1  0.8500177E-002  0.1899074E+03  0.7818608E-02  0.1158873E+00
         21   -1    0    0  503  502  0.00000000000E+00  0.00000000000E+00  0.27543543192E+04  0.27543543192E+04  0.00000000000E+00 0.  1.
         21   -1    0    0  501  503 -0.00000000000E+00 -0.00000000000E+00 -0.20905789013E+02  0.20905789013E+02  0.00000000000E+00 0.  1.
          6    2    1    2  501    0 -0.75562789615E+02 -0.23863435977E+02  0.50983075432E+03  0.54354757078E+03  0.17098937072E+03 0.  0.
         24    2    3    3    0    0 -0.11028142320E+03 -0.46710609699E+02  0.41761699502E+03  0.44229124126E+03  0.82907865726E+02 0.  0.
         -6    2    1    2    0  502  0.75562789615E+02  0.23863435977E+02  0.22236177758E+04  0.22317125374E+04  0.17258516111E+03 0.  0.
        -24    2    5    5    0    0 -0.13170913024E+02 -0.14719618334E+02  0.13702279074E+04  0.13728419537E+04  0.82343010661E+02 0.  0.
          5    1    3    3  501    0  0.34718633584E+02  0.22847173722E+02  0.92213759302E+02  0.10125632953E+03  0.47000000000E+01 0. -1.
        -11    1    4    4    0    0 -0.69753380597E+02 -0.30741431756E+02  0.12469955927E+03  0.14615248822E+03  0.00000000000E+00 0.  1.
         12    1    4    4    0    0 -0.40528042602E+02 -0.15969177943E+02  0.29291743575E+03  0.29613875304E+03  0.00000000000E+00 0. -1.
         -5    1    5    5    0  502  0.88733702639E+02  0.38583054311E+02  0.85338986841E+03  0.85887058371E+03  0.47000000000E+01 0.  1.
         13    1    6    6    0    0 -0.46621406161E+02 -0.44132175809E+01  0.60283237300E+03  0.60464857722E+03  0.00000000000E+00 0. -1.
        -14    1    6    6    0    0  0.33450493137E+02 -0.10306400753E+02  0.76739553442E+03  0.76819337646E+03  0.00000000000E+00 0.  1.
</event>
<event>
12    1  0.8500177E-002  0.2028735E+03  0.7818608E-02  0.1147371E+00
         21   -1    0    0  503  502  0.00000000000E+00  0.00000000000E+00  0.45449288633E+03  0.45449288633E+03  0.00000000000E+00 0.  1.
         21   -1    0    0  501  503 -0.00000000000E+00 -0.00000000000E+00 -0.15434800763E+03  0.15434800763E+03  0.00000000000E+00 0. -1.
          6    2    1    2  501    0 -0.44886606957E+02 -0.97611174760E+02 -0.45709846306E+02  0.20795926792E+03  0.17208985485E+03 0.  0.
         24    2    3    3    0    0 -0.73494897155E+02 -0.98525810788E+01 -0.99831879861E+01  0.10887097826E+03  0.79086361677E+02 0.  0.
         -6    2    1    2    0  502  0.44886606957E+02  0.97611174760E+02  0.34585472500E+03  0.40088162604E+03  0.17189484683E+03 0.  0.
        -24    2    5    5    0    0 -0.27297694756E+02  0.13062737875E+02  0.12225018971E+03  0.15112156158E+03  0.83527350200E+02 0.  0.
          5    1    3    3  501    0  0.28608290198E+02 -0.87758593681E+02 -0.35726658320E+02  0.99088289660E+02  0.47000000000E+01 0. -1.
        -11    1    4    4    0    0 -0.55862138774E+02 -0.41221527867E+02  0.56135293914E+01  0.69651307384E+02  0.00000000000E+00 0.  1.
         12    1    4    4    0    0 -0.17632758382E+02  0.31368946788E+02 -0.15596717378E+02  0.39219670877E+02  0.00000000000E+00 0. -1.
         -5    1    5    5    0  502  0.72184301713E+02  0.84548436885E+02  0.22360453530E+03  0.24976006446E+03  0.47000000000E+01 0.  1.
         13    1    6    6    0    0 -0.27095234292E+02 -0.27226665581E+02  0.24933419300E+02  0.45794305738E+02  0.00000000000E+00 0. -1.
        -14    1    6    6    0    0 -0.20246046454E+00  0.40289403456E+02  0.97316770406E+02  0.10532725584E+03  0.00000000000E+00 0.  1.
</event>
<event>
12    1  0.8500177E-002  0.2720242E+03  0.7818608E-02  0.1100301E+00
         21   -1    0    0  503  502  0.00000000000E+00  0.00000000000E+00  0.40551981453E+03  0.40551981453E+03  0.00000000000E+00 0. -1.
         21   -1    0    0  501  503 -0.00000000000E+00 -0.00000000000E+00 -0.25913044964E+03  0.25913044964E+03  0.00000000000E+00 0. -1.
          6    2    1    2  501    0  0.71338287211E+02  0.19725577509E+03 -0.10863933292E+03  0.29177390770E+03  0.17126154424E+03 0.  0.
         24    2    3    3    0    0 -0.22914984448E+01  0.17674202899E+03 -0.64118661620E+02  0.20319434298E+03  0.77030789119E+02 0.  0.
         -6    2    1    2    0  502 -0.71338287211E+02 -0.19725577509E+03  0.25502869781E+03  0.37287635646E+03  0.17319973578E+03 0.  0.
        -24    2    5    5    0    0 -0.40565081630E+02 -0.19255018920E+03  0.14241464269E+03  0.25594411912E+03  0.80649615319E+02 0.  0.
          5    1    3    3  501    0  0.73629785656E+02  0.20513746091E+02 -0.44520671296E+02  0.88579564726E+02  0.47000000000E+01 0. -1.
        -11    1    4    4    0    0 -0.35286043009E+01  0.52353684558E+02  0.16446240874E+02  0.54989436932E+02  0.00000000000E+00 0.  1.
         12    1    4    4    0    0  0.12371058562E+01  0.12438834444E+03 -0.80564902495E+02  0.14820490605E+03  0.00000000000E+00 0. -1.
         -5    1    5    5    0  502 -0.30773205581E+02 -0.47055858875E+01  0.11261405511E+03  0.11693223734E+03  0.47000000000E+01 0.  1.
         11    1    6    6    0    0 -0.57432723077E+02 -0.12566234686E+03  0.12115387007E+03  0.18376017885E+03  0.00000000000E+00 0. -1.
        -12    1    6    6    0    0  0.16867641447E+02 -0.66887842333E+02  0.21260772626E+02  0.72183940268E+02  0.00000000000E+00 0.  1.
</event>
<event>
12    1  0.8500177E-002  0.1899646E+03  0.7818608E-02  0.1158543E+00
         21   -1    0    0  501  502  0.00000000000E+00  0.00000000000E+00  0.77130959605E+02  0.77130959605E+02  0.00000000000E+00 0. -1.
         21   -1    0    0  502  503 -0.00000000000E+00 -0.00000000000E+00 -0.63894296322E+03  0.63894296322E+03  0.00000000000E+00 0. -1.
         -6    2    1    2    0  503 -0.80372941844E+02  0.16008952362E+02 -0.46658786651E+03  0.50377652479E+03  0.17137810075E+03 0.  0.
        -24    2    3    3    0    0 -0.50688467578E+02 -0.55281309322E+02 -0.31975613850E+03  0.33780931184E+03  0.79030368538E+02 0.  0.
          6    2    1    2  501    0  0.80372941844E+02 -0.16008952362E+02 -0.95224137102E+02  0.21229739803E+03  0.17113285070E+03 0.  0.
         24    2    5    5    0    0  0.80294416284E+02 -0.69457833230E+02 -0.85546645737E+02  0.15777645828E+03  0.79395203307E+02 0.  0.
          5    1    5    5  501    0  0.78525560018E-01  0.53448880868E+02 -0.96774913653E+01  0.54520939751E+02  0.47000000000E+01 0. -1.
        -13    1    6    6    0    0  0.84367723389E+02 -0.27201856001E+02 -0.46511437161E+02  0.10010578158E+03  0.00000000000E+00 0.  1.
         14    1    6    6    0    0 -0.40733071049E+01 -0.42255977229E+02 -0.39035208576E+02  0.57670676699E+02  0.00000000000E+00 0. -1.
         -5    1    3    3    0  503 -0.29684474266E+02  0.71290261684E+02 -0.14683172801E+03  0.16596721295E+03  0.47000000000E+01 0.  1.
         13    1    4    4    0    0 -0.22651818816E+02  0.98706715161E+01 -0.17362366621E+03  0.17537306669E+03  0.00000000000E+00 0. -1.
        -14    1    4    4    0    0 -0.28036648762E+02 -0.65151980838E+02 -0.14613247229E+03  0.16243624515E+03  0.00000000000E+00 0.  1.
</event>
<event>
12    1  0.8500177E-002  0.2147593E+03  0.7818608E-02  0.1138163E+00
         21   -1    0    0  503  502  0.00000000000E+00  0.00000000000E+00  0.65509138704E+02  0.65509138704E+02  0.00000000000E+00 0. -1.
         21   -1    0    0  501  503 -0.00000000000E+00 -0.00000000000E+00 -0.77456307528E+03  0.77456307528E+03  0.00000000000E+00 0.  1.
          6    2    1    2  501    0  0.10280043466E+03 -0.75505701713E+02 -0.48471380097E+03  0.52950809829E+03  0.17076977761E+03 0.  0.
         24    2    3    3    0    0  0.29973278201E+02 -0.62100444812E+02 -0.41522337705E+03  0.42784933257E+03  0.76744614661E+02 0.  0.
         -6    2    1    2    0  502 -0.10280043466E+03  0.75505701713E+02 -0.22434013561E+03  0.31056411570E+03  0.17277885622E+03 0.  0.
        -24    2    5    5    0    0 -0.81035517016E+02  0.10966418889E+03 -0.11830248986E+03  0.19695695834E+03  0.78762776682E+02 0.  0.
          5    1    3    3  501    0  0.72827156463E+02 -0.13405256901E+02 -0.69490423920E+02  0.10165876572E+03  0.47000000000E+01 0. -1.
        -13    1    4    4    0    0  0.23794250873E+02 -0.91090972552E+01 -0.29764351261E+03  0.29873199130E+03  0.00000000000E+00 0.  1.
         14    1    4    4    0    0  0.61790273276E+01 -0.52991347557E+02 -0.11757986443E+03  0.12911734126E+03  0.00000000000E+00 0. -1.
         -5    1    5    5    0  502 -0.21764917648E+02 -0.34158487174E+02 -0.10603764575E+03  0.11360715736E+03  0.47000000000E+01 0.  1.
         11    1    6    6    0    0 -0.21880313007E+02  0.47910958289E+02 -0.94506716370E+02  0.10819301022E+03  0.00000000000E+00 0. -1.
        -12    1    6    6    0    0 -0.59155204008E+02  0.61753230598E+02 -0.23795773492E+02  0.88763948125E+02  0.00000000000E+00 0.  1.
</event>
<event>
12    1  0.8500177E-002  0.2060478E+03  0.7818608E-02  0.1144795E+00
         21   -1    0    0  501  502  0.00000000000E+00  0.00000000000E+00  0.10009605460E+04  0.10009605460E+04  0.00000000000E+00 0.  1.
         21   -1    0    0  502  503 -0.00000000000E+00 -0.00000000000E+00 -0.66083200135E+02  0.66083200135E+02  0.00000000000E+00 0.  1.
         -6    2    1    2    0  503 -0.73351951310E+02  0.85983000312E+02  0.14794906788E+03  0.25366245528E+03  0.17228502381E+03 0.  0.
        -24    2    3    3    0    0 -0.46045988155E+02  0.32237419848E+02  0.43921900956E+01  0.97890602236E+02  0.80023711540E+02 0.  0.
          6    2    1    2  501    0  0.73351951310E+02 -0.85983000312E+02  0.78692827795E+03  0.81338129081E+03  0.17192854477E+03 0.  0.
         24    2    5    5    0    0 -0.12986142483E+02  0.42927197554E+01  0.27708714455E+03  0.28843934795E+03  0.78948745590E+02 0.  0.
          5    1    5    5  501    0  0.86338093794E+02 -0.90275720067E+02  0.50984113340E+03  0.52494194286E+03  0.47000000000E+01 0. -1.
        -13    1    6    6    0    0  0.55830293920E+01 -0.31259844201E+02  0.62156438954E+02  0.69798072896E+02  0.00000000000E+00 0.  1.
         14    1    6    6    0    0 -0.18569171875E+02  0.35552563956E+02  0.21493070559E+03  0.21864127505E+03  0.00000000000E+00 0. -1.
         -5    1    3    3    0  503 -0.27305963156E+02  0.53745580463E+02  0.14355687778E+03  0.15577185305E+03  0.47000000000E+01 0.  1.
         13    1    4    4    0    0 -0.33033090990E+02 -0.18791501898E+02 -0.16243500526E+02  0.41329855471E+02  0.00000000000E+00 0. -1.
        -14    1    4    4    0    0 -0.13012897165E+02  0.51028921746E+02  0.20635690622E+02  0.56560746765E+02  0.00000000000E+00 0.  1.
</event>
<event>
12    1  0.8500177E-002  0.2403330E+03  0.7818608E-02  0.1122277E+00
         21   -1    0    0  503  502  0.00000000000E+00  0.00000000000E+00  0.37921010714E+03  0.37921010714E+03  0.00000000000E+00 0. -1.
         21   -1    0    0  501  503 -0.00000000000E+00 -0.00000000000E+00 -0.15122820212E+03  0.15122820212E+03  0.00000000000E+00 0. -1.
          6    2    1    2  501    0  0.80985176005E+02 -0.14660074200E+03  0.17393592315E+03  0.28410335543E+03  0.14970182001E+03 0.  0.
         24    2    3    3    0    0  0.28684766993E+01 -0.71732504411E+02  0.11702242243E+03  0.16175668292E+03  0.85540614738E+02 0.  0.
         -6    2    1    2    0  502 -0.80985176005E+02  0.14660074200E+03  0.54045981869E+02  0.24633495382E+03  0.17236462813E+03 0.  0.
        -24    2    5    5    0    0 -0.10030566265E+03  0.47158873198E+02  0.24170480119E+02  0.14061550396E+03  0.83086235706E+02 0.  0.
          5    1    3    3  501    0  0.78116699306E+02 -0.74868237588E+02  0.56913500724E+02  0.12234667251E+03  0.47000000000E+01 0. -1.
        -13    1    4    4    0    0  0.28753934070E+01  0.12144795333E+02  0.57667467152E+02  0.59002548323E+02  0.00000000000E+00 0.  1.
         14    1    4    4    0    0 -0.69167077677E-02 -0.83877299744E+02  0.59354955275E+02  0.10275413459E+03  0.00000000000E+00 0. -1.
         -5    1    5    5    0  502  0.19320486644E+02  0.99441868800E+02  0.29875501750E+02  0.10571944986E+03  0.47000000000E+01 0.  1.
         13    1    6    6    0    0 -0.41795285280E+02  0.48946454236E+01 -0.28880390396E+02  0.51038028713E+02  0.00000000000E+00 0. -1.
        -14    1    6    6    0    0 -0.58510377369E+02  0.42264227775E+02  0.53050870514E+02  0.89577475247E+02  0.00000000000E+00 0.  1.
</event>
<event>
12    1  0.8500177E-002  0.1837491E+03  0.7818608E-02  0.1164454E+00
         21   -1    0    0  501  502  0.00000000000E+00  0.00000000000E+00  0.20810375381E+03  0.20810375381E+03  0.00000000000E+00 0.  1.
         21   -1    0    0  502  503 -0.00000000000E+00 -0.00000000000E+00 -0.39896741335E+03  0.39896741335E+03  0.00000000000E+00 0.  1.
         -6    2    1    2    0  503  0.33042376255E+02  0.51533179140E+02 -0.32976899958E+03  0.37750674508E+03  0.17325207739E+03 0.  0.
        -24    2    3    3    0    0 -0.50814936607E+02  0.29530332769E+02 -0.18616828394E+03  0.20969902863E+03  0.76556216784E+02 0.  0.
          6    2    1    2  501    0 -0.33042376255E+02 -0.51533179140E+02  0.13890534004E+03  0.22956442208E+03  0.17221400411E+03 0.  0.
         24    2    5    5    0    0 -0.46666031354E+01 -0.65324835516E+02  0.20746742160E+02  0.10717594820E+03  0.82262660075E+02 0.  0.
          5    1    5    5  501    0 -0.28375773119E+02  0.13791656376E+02  0.11815859788E+03  0.12238847388E+03  0.47000000000E+01 0. -1.
        -11    1    6    6    0    0 -0.22732201746E+02 -0.52264292998E+02  0.46180934683E+02  0.73355218267E+02  0.00000000000E+00 0.  1.
         12    1    6    6    0    0  0.18065598610E+02 -0.13060542518E+02 -0.25434192523E+02  0.33820729935E+02  0.00000000000E+00 0. -1.
         -5    1    3    3    0  503  0.83857312862E+02  0.22002846371E+02 -0.14360071563E+03  0.16780771645E+03  0.47000000000E+01 0.  1.
         11    1    4    4    0    0 -0.40755738840E+02  0.49012974567E+02 -0.17240303587E+03  0.18380997988E+03  0.00000000000E+00 0. -1.
        -12    1    4    4    0    0 -0.10059197767E+02 -0.19482641798E+02 -0.13765248071E+02  0.25889048758E+02  0.00000000000E+00 0.  1.
</event>
<event>
12    1  0.8500177E-002  0.2186468E+03  0.7818608E-02  0.1134940E+00
         21   -1    0    0  501  502  0.00000000000E+00  0.00000000000E+00  0.23290633307E+03  0.23290633307E+03  0.00000000000E+00 0. -1.
         21   -1    0    0  502  503 -0.00000000000E+00 -0.00000000000E+00 -0.67717869519E+03  0.67717869519E+03  0.00000000000E+00 0. -1.
         -6    2    1    2    0  503  0.12329373450E+03  0.54808243507E+02 -0.60212963699E+03  0.64059855936E+03  0.17204977767E+03 0.  0.
        -24    2    3    3    0    0  0.82014229234E+02  0.96131820391E+02 -0.50957019386E+03  0.53104959281E+03  0.79901357063E+02 0.  0.
          6    2    1    2  501    0 -0.12329373450E+03 -0.54808243507E+02  0.15785727486E+03  0.26948646890E+03  0.17175199903E+03 0.  0.
         24    2    5    5    0    0 -0.63162285166E+02 -0.55835044872E+02  0.13054125168E+02  0.11262064190E+03  0.73525317368E+02 0.  0.
          5    1    5    5  501    0 -0.60131449337E+02  0.10268013650E+01  0.14480314970E+03  0.15686582701E+03  0.47000000000E+01 0. -1.
        -11    1    6    6    0    0 -0.39455455497E+02 -0.12263175666E+02 -0.26579052184E+02  0.49128041493E+02  0.00000000000E+00 0.  1.
         12    1    6    6    0    0 -0.23706829669E+02 -0.43571869206E+02  0.39633177352E+02  0.63492600404E+02  0.00000000000E+00 0. -1.
         -5    1    3    3    0  503  0.41279505270E+02 -0.41323576883E+02 -0.92559443124E+02  0.10954896655E+03  0.47000000000E+01 0.  1.
         13    1    4    4    0    0  0.55054236879E+02  0.72136658241E+02 -0.20296380076E+03  0.22232627123E+03  0.00000000000E+00 0. -1.
        -14    1    4    4    0    0  0.26959992355E+02  0.23995162149E+02 -0.30660639311E+03  0.30872332158E+03  0.00000000000E+00 0.  1.
</event>
<event>
12    1  0.8500177E-002  0.2126099E+03  0.7818608E-02  0.1139880E+00
         21   -1    0    0  501  502  0.00000000000E+00  0.00000000000E+00  0.27651645596E+03  0.27651645596E+03  0.00000000000E+00 0. -1.
         21   -1    0    0  502  503 -0.00000000000E+00 -0.00000000000E+00 -0.18528465272E+03  0.18528465272E+03  0.00000000000E+00 0. -1.
         -6    2    1    2    0  503 -0.69020394404E+02 -0.10354546318E+03  0.12756540362E+03  0.24794332530E+03  0.17238759402E+03 0.  0.
        -24    2    3    3    0    0 -0.45442503040E+02 -0.33035674006E+02 -0.26436668264E+01  0.97929861383E+02  0.80167898417E+02 0.  0.
          6    2    1    2  501    0  0.69020394404E+02  0.10354546318E+03 -0.36333600383E+02  0.21385778339E+03  0.17008686960E+03 0.  0.
         24    2    5    5    0    0  0.81116129618E+01 -0.19526027711E+01  0.16302235148E+02  0.81070951368E+02  0.78975473170E+02 0.  0.
          5    1    5    5  501    0  0.60908781443E+02  0.10549806595E+03 -0.52635835531E+02  0.13278683202E+03  0.47000000000E+01 0. -1.
        -13    1    6    6    0    0 -0.33372188388E+01 -0.19873632747E+02 -0.26491158281E+02  0.33284828003E+02  0.00000000000E+00 0.  1.
         14    1    6    6    0    0  0.11448831801E+02  0.17921029976E+02  0.42793393430E+02  0.47786123365E+02  0.00000000000E+00 0. -1.
         -5    1    3    3    0  503 -0.23577891364E+02 -0.70509789169E+02  0.13020907045E+03  0.15001346392E+03  0.47000000000E+01 0.  1.
         11    1    4    4    0    0 -0.17489392607E+02 -0.55628522016E+02 -0.14489555270E+02  0.60086259056E+02  0.00000000000E+00 0. -1.
        -12    1    4    4    0    0 -0.27953110433E+02  0.22592848010E+02  0.11845888444E+02  0.37843602327E+02  0.00000000000E+00 0.  1.
</event>
<event>
12    1  0.8500177E-002  0.1960439E+03  0.7818608E-02  0.1153293E+00
         21   -1    0    0  503  502  0.00000000000E+00  0.00000000000E+00  0.92706955693E+02  0.92706955693E+02  0.00000000000E+00 0.  1.
         21   -1    0    0  501  503 -0.00000000000E+00 -0.00000000000E+00 -0.44331198184E+03  0.44331198184E+03  0.00000000000E+00 0.  1.
          6    2    1    2  501    0 -0.61112886254E+02 -0.69305519749E+02 -0.24584435143E+03  0.31444024343E+03  0.17290223141E+03 0.  0.
         24    2    3    3    0    0 -0.83407092306E+02 -0.69188671981E+02 -0.25671989328E+03  0.28919321019E+03  0.77354985851E+02 0.  0.
         -6    2    1    2    0  502  0.61112886254E+02  0.69305519749E+02 -0.10476067472E+03  0.22157869410E+03  0.17200081040E+03 0.  0.
        -24    2    5    5    0    0  0.65403932859E+01  0.67664810878E+02 -0.69958852308E+01  0.10950330439E+03  0.85561252253E+02 0.  0.
          5    1    3    3  501    0  0.22294206052E+02 -0.11684776846E+00  0.10875541856E+02  0.25247033243E+02  0.47000000000E+01 0. -1.
        -13    1    4    4    0    0 -0.74364535986E+02 -0.43644727172E+02 -0.24488897883E+03  0.25962580452E+03  0.00000000000E+00 0.  1.
         14    1    4    4    0    0 -0.90425563192E+01 -0.25543944809E+02 -0.11830914457E+02  0.29567405670E+02  0.00000000000E+00 0. -1.
         -5    1    5    5    0  502  0.54572492968E+02  0.16407088711E+01 -0.97764789489E+02  0.11207538971E+03  0.47000000000E+01 0.  1.
         11    1    6    6    0    0 -0.56633586344E+01 -0.14031478483E+02 -0.20834447021E+02  0.25749372849E+02  0.00000000000E+00 0. -1.
        -12    1    6    6    0    0  0.12203751920E+02  0.81696289361E+02  0.13838561791E+02  0.83753931542E+02  0.00000000000E+00 0.  1.
</event>
<event>
12    1  0.8500177E-002  0.2161671E+03  0.7818608E-02  0.1138010E+00
         21   -1    0    0  501  502  0.00000000000E+00  0.00000000000E+00  0.26825669483E+03  0.26825669483E+03  0.00000000000E+00 0. -1.
         21   -1    0    0  502  503 -0.00000000000E+00 -0.00000000000E+00 -0.16922832020E+03  0.16922832020E+03  0.00000000000E+00 0. -1.
         -6    2    1    2    0  503  0.72129995851E+02 -0.10872202071E+03  0.56580720731E+02  0.22344930155E+03  0.17235138038E+03 0.  0.
        -24    2    3    3    0    0  0.10728283365E+03 -0.67338126363E+02  0.72571529150E+02  0.16665014073E+03  0.80384158299E+02 0.  0.
          6    2    1    2  501    0 -0.72129995851E+02  0.10872202071E+03  0.42447653894E+02  0.21403571348E+03  0.16427498055E+03 0.  0.
         24    2    5    5    0    0 -0.28732793158E+02  0.12081236182E+03  0.47572513987E+02  0.16845229829E+03  0.10340131788E+03 0.  0.
          5    1    5    5  501    0 -0.43397202693E+02 -0.12090341107E+02 -0.51248600931E+01  0.45583415193E+02  0.47000000000E+01 0. -1.
        -13    1    6    6    0    0 -0.10760647541E+02  0.67914448482E+01  0.51408568318E+02  0.52959948595E+02  0.00000000000E+00 0.  1.
         14    1    6    6    0    0 -0.17972145617E+02  0.11402091697E+03 -0.38360543308E+01  0.11549234969E+03  0.00000000000E+00 0. -1.
         -5    1    3    3    0  503 -0.35152837795E+02 -0.41383894346E+02 -0.15990808419E+02  0.56799160823E+02  0.47000000000E+01 0.  1.
         13    1    4    4    0    0  0.52723106083E+02  0.11639449899E+02  0.24390867632E+02  0.59246241508E+02  0.00000000000E+00 0. -1.
        -14    1    4    4    0    0  0.54559727563E+02 -0.78977576263E+02  0.48180661518E+02  0.10740389922E+03  0.00000000000E+00 0.  1.
</event>
<event>
12    1  0.8500177E-002  0.1818307E+03  0.7818608E-02  0.1166993E+00
         21   -1    0    0  503  502  0.00000000000E+00  0.00000000000E+00  0.23808563430E+03  0.23808563430E+03  0.00000000000E+00 0. -1.
         21   -1    0    0  501  503 -0.00000000000E+00 -0.00000000000E+00 -0.20072430152E+03  0.20072430152E+03  0.00000000000E+00 0. -1.
          6    2    1    2  501    0 -0.48318341442E+02 -0.18427462618E+02 -0.10588074482E+03  0.21041180344E+03  0.17432200494E+03 0.  0.
         24    2    3    3    0    0  0.17833398559E+02 -0.36128053644E+02 -0.61690213139E+01  0.89358586082E+02  0.79521278399E+02 0.  0.
         -6    2    1    2    0  502  0.48318341442E+02  0.18427462618E+02  0.14324207760E+03  0.22839813238E+03  0.17021510092E+03 0.  0.
        -24    2    5    5    0    0  0.54297806475E+02  0.67239256751E+01  0.17145207929E+03  0.19692400056E+03  0.79936121607E+02 0.  0.
          5    1    3    3  501    0 -0.66151740001E+02  0.17700591027E+02 -0.99711723508E+02  0.12105321736E+03  0.47000000000E+01 0. -1.
        -13    1    4    4    0    0 -0.20282198136E+02 -0.41507807616E+02 -0.17231550435E+02  0.49307119007E+02  0.00000000000E+00 0.  1.
         14    1    4    4    0    0  0.38115596696E+02  0.53797539719E+01  0.11062529122E+02  0.40051467075E+02  0.00000000000E+00 0. -1.
         -5    1    5    5    0  502 -0.59794650333E+01  0.11703536943E+02 -0.28210001688E+02  0.31474131828E+02  0.47000000000E+01 0.  1.
         11    1    6    6    0    0  0.19602675844E+02 -0.34714440829E+02  0.49685979680E+02  0.63702856129E+02  0.00000000000E+00 0. -1.
        -12    1    6    6    0    0  0.34695130631E+02  0.41438366504E+02  0.12176609961E+03  0.13322114443E+03  0.00000000000E+00 0.  1.
</event>
<event>
12    1  0.8500177E-002  0.1867901E+03  0.7818608E-02  0.1161633E+00
         21   -1    0    0  501  502  0.00000000000E+00  0.00000000000E+00  0.14269434658E+03  0.14269434658E+03  0.00000000000E+00 0. -1.
         21   -1    0    0  502  503 -0.00000000000E+00 -0.00000000000E+00 -0.24791208965E+03  0.24791208965E+03  0.00000000000E+00 0. -1.
         -6    2    1    2    0  503 -0.71217463280E+02 -0.20155303679E+02 -0.79589631778E+02  0.20206641764E+03  0.17034718755E+03 0.  0.
        -24    2    3    3    0    0 -0.76308082772E+02  0.31616379662E+02 -0.93888016875E+02  0.14791149709E+03  0.78995773937E+02 0.  0.
          6    2    1    2  501    0  0.71217463280E+02  0.20155303679E+02 -0.25628111292E+02  0.18854001858E+03  0.17150036495E+03 0.  0.
         24    2    5    5    0    0  0.85712447051E+02  0.32993649838E+02 -0.69756438986E+02  0.14012176798E+03  0.79579800029E+02 0.  0.
          5    1    5    5  501    0 -0.14494983771E+02 -0.12838346159E+02  0.44128327693E+02  0.48418250605E+02  0.47000000000E+01 0. -1.
        -11    1    6    6    0    0 -0.50736930727E+01 -0.14050272352E+02 -0.23612447994E+02  0.27941013132E+02  0.00000000000E+00 0.  1.
         12    1    6    6    0    0  0.90786140124E+02  0.47043922190E+02 -0.46143990992E+02  0.11218075485E+03  0.00000000000E+00 0. -1.
         -5    1    3    3    0  503  0.50906194919E+01 -0.51771683341E+02  0.14298385097E+02  0.54154920544E+02  0.47000000000E+01 0.  1.
         11    1    4    4    0    0 -0.40376120497E+02 -0.11688833328E+02 -0.44835699250E+01  0.42272477220E+02  0.00000000000E+00 0. -1.
        -12    1    4    4    0    0 -0.35931962275E+02  0.43305212990E+02 -0.89404446950E+02  0.10563901987E+03  0.00000000000E+00 0.  1.
</event>
<event>
12    1  0.8500177E-002  0.1856427E+03  0.7818608E-02  0.1163342E+00
         21   -1    0    0  501  502  0.00000000000E+00  0.00000000000E+00  0.17825641098E+04  0.17825641098E+04  0.00000000000E+00 0.  1.
         21   -1    0    0  502  503 -0.00000000000E+00 -0.00000000000E+00 -0.20920534645E+02  0.20920534645E+02  0.00000000000E+00 0.  1.
         -6    2    1    2    0  503  0.45762852320E+01 -0.67721470245E+02  0.59522314960E+03  0.62238353280E+03  0.16871136344E+03 0.  0.
        -24    2    3    3    0    0 -0.47360921277E+01  0.14104701778E+01  0.68632395629E+02  0.91171844550E+02  0.59812034859E+02 0.  0.
          6    2    1    2  501    0 -0.45762852320E+01  0.67721470245E+02  0.11664204255E+04  0.11811011116E+04  0.17278913991E+03 0.  0.
         24    2    5    5    0    0 -0.50052955472E+02  0.31058216022E+02  0.39338975027E+03  0.40585222473E+03  0.80564393898E+02 0.  0.
          5    1    5    5  501    0  0.45476670240E+02  0.36663254224E+02  0.77303067525E+03  0.77524888689E+03  0.47000000000E+01 0. -1.
        -11    1    6    6    0    0  0.19370462615E+02  0.20986423187E+02  0.14284636970E+03  0.14567336791E+03  0.00000000000E+00 0.  1.
         12    1    6    6    0    0 -0.69423418088E+02  0.10071792834E+02  0.25054338057E+03  0.26017885682E+03  0.00000000000E+00 0. -1.
         -5    1    3    3    0  503  0.93123773597E+01 -0.69131940423E+02  0.52659075397E+03  0.53121168825E+03  0.47000000000E+01 0.  1.
         13    1    4    4    0    0  0.22659320478E+01  0.24386284967E+02  0.61373681064E+02  0.66079906703E+02  0.00000000000E+00 0. -1.
        -14    1    4    4    0    0 -0.70020241755E+01 -0.22975814789E+02  0.72587145653E+01  0.25091937847E+02  0.00000000000E+00 0.  1.
</event>
<event>
12    1  0.8500177E-002  0.1751549E+03  0.7818608E-02  0.1172719E+00
         21   -1    0    0  503  502  0.00000000000E+00  0.00000000000E+00  0.23313759684E+03  0.23313759684E+03  0.00000000000E+00 0. -1.
         21   -1    0    0  501  503 -0.00000000000E+00 -0.00000000000E+00 -0.18649823250E+03  0.18649823250E+03  0.00000000000E+00 0. -1.
          6    2    1    2  501    0  0.31465993283E+02 -0.12805363617E+02 -0.90993451540E+02  0.19687581874E+03  0.17124892324E+03 0.  0.
         24    2    3    3    0    0 -0.24086260057E+02  0.44080090785E+02 -0.50683913864E+02  0.10760680619E+03  0.80542928222E+02 0.  0.
         -6    2    1    2    0  502 -0.31465993283E+02  0.12805363617E+02  0.13763281588E+03  0.22276001060E+03  0.17182882251E+03 0.  0.
        -24    2    5    5    0    0 -0.22835619259E+02  0.71152759141E+02  0.11702808748E+03  0.16010582676E+03  0.79712745917E+02 0.  0.
          5    1    3    3  501    0  0.55552253340E+02 -0.56885454403E+02 -0.40309537677E+02  0.89269012549E+02  0.47000000000E+01 0. -1.
        -11    1    4    4    0    0  0.40729541604E+01 -0.14393577411E+02  0.10608239599E+02  0.18338450689E+02  0.00000000000E+00 0.  1.
         12    1    4    4    0    0 -0.28159214218E+02  0.58473668197E+02 -0.61292153462E+02  0.89268355501E+02  0.00000000000E+00 0. -1.
         -5    1    5    5    0  502 -0.86303740236E+01 -0.58347395524E+02  0.20604728394E+02  0.62654183838E+02  0.47000000000E+01 0.  1.
         11    1    6    6    0    0 -0.25772043600E+02 -0.15771998102E+01  0.66942702173E+02  0.71749642263E+02  0.00000000000E+00 0. -1.
        -12    1    6    6    0    0  0.29364243408E+01  0.72729958951E+02  0.50085385310E+02  0.88356184495E+02  0.00000000000E+00 0.  1.
</event>
<event>
12    1  0.8500177E-002  0.2065382E+03  0.7818608E-02  0.1144898E+00
         21   -1    0    0  501  502  0.00000000000E+00  0.00000000000E+00  0.39102385090E+02  0.39102385090E+02  0.00000000000E+00 0.  1.
         21   -1    0    0  502  503 -0.00000000000E+00 -0.00000000000E+00 -0.16180065907E+04  0.16180065907E+04  0.00000000000E+00 0.  1.
         -6    2    1    2    0  503 -0.97969472160E+02  0.50755043959E+02 -0.31362934617E+03  0.37552814504E+03  0.17459647470E+03 0.  0.
        -24    2    3    3    0    0 -0.62294038085E+02  0.95839315067E+02 -0.26789729406E+03  0.30191538333E+03  0.79487212994E+02 0.  0.
          6    2    1    2  501    0  0.97969472160E+02 -0.50755043959E+02 -0.12652748594E+04  0.12815808307E+04  0.17133261171E+03 0.  0.
         24    2    5    5    0    0  0.10159771823E+03  0.44776337356E+01 -0.10943686113E+04  0.11018731556E+04  0.78355906349E+02 0.  0.
          5    1    5    5  501    0 -0.36282460741E+01 -0.55232677695E+02 -0.17090624810E+03  0.17970767512E+03  0.47000000000E+01 0. -1.
        -13    1    6    6    0    0  0.64797677231E+02  0.39705516878E+02 -0.73353797743E+03  0.73746405430E+03  0.00000000000E+00 0.  1.
         14    1    6    6    0    0  0.36800041003E+02 -0.35227883143E+02 -0.36083063387E+03  0.36440910129E+03  0.00000000000E+00 0. -1.
         -5    1    3    3    0  503 -0.35675434075E+02 -0.45084271108E+02 -0.45732052105E+02  0.73612761716E+02  0.47000000000E+01 0.  1.
         13    1    4    4    0    0  0.76149470933E+00  0.62058836087E+02 -0.16759613996E+03  0.17871862001E+03  0.00000000000E+00 0. -1.
        -14    1    4    4    0    0 -0.63055532794E+02  0.33780478981E+02 -0.10030115410E+03  0.12319676331E+03  0.00000000000E+00 0.  1.
</event>
<event>
12    1  0.8500177E-002  0.1983984E+03  0.7818608E-02  0.1152080E+00
         21   -1    0    0  503  502  0.00000000000E+00  0.00000000000E+00  0.13238880534E+03  0.13238880534E+03  0.00000000000E+00 0. -1.
         21   -1    0    0  501  503 -0.00000000000E+00 -0.00000000000E+00 -0.33985726795E+03  0.33985726795E+03  0.00000000000E+00 0. -1.
          6    2    1    2  501    0  0.76960074976E+01  0.96849313609E+02 -0.19264837088E+03  0.27329489682E+03  0.16774292159E+03 0.  0.
         24    2    3    3    0    0  0.53350850002E+02  0.10277743445E+03 -0.11841331729E+03  0.18581666843E+03  0.84241357566E+02 0.  0.
         -6    2    1    2    0  502 -0.76960074976E+01 -0.96849313609E+02 -0.14820091735E+02  0.19895117647E+03  0.17298241940E+03 0.  0.
        -24    2    5    5    0    0  0.24172719702E+02 -0.12654425479E+03 -0.25075545284E+02  0.15395484737E+03  0.80470760272E+02 0.  0.
          5    1    3    3  501    0 -0.45654842504E+02 -0.59281208440E+01 -0.74235053590E+02  0.87478228390E+02  0.47000000000E+01 0. -1.
        -11    1    4    4    0    0 -0.14371858121E+02  0.40451379073E+02 -0.10903043926E+02  0.44291542552E+02  0.00000000000E+00 0.  1.
         12    1    4    4    0    0  0.67722708123E+02  0.62326055379E+02 -0.10751027336E+03  0.14152512587E+03  0.00000000000E+00 0. -1.
         -5    1    5    5    0  502 -0.31868727200E+02  0.29694941184E+02  0.10255453548E+02  0.44996329103E+02  0.47000000000E+01 0.  1.
         13    1    6    6    0    0  0.33400012643E+01 -0.54428447553E+02 -0.50877384207E+02  0.74579620106E+02  0.00000000000E+00 0. -1.
        -14    1    6    6    0    0  0.20832718438E+02 -0.72115807240E+02  0.25801838923E+02  0.79375227264E+02  0.00000000000E+00 0.  1.
</event>
<event>
12    1  0.8500177E-002  0.1781809E+03  0.7818608E-02  0.1169653E+00
         21   -1    0    0  503  502  0.00000000000E+00  0.00000000000E+00  0.26580918985E+03  0.26580918985E+03  0.00000000000E+00 0.  1.
         21   -1    0    0  501  503 -0.00000000000E+00 -0.00000000000E+00 -0.13632208657E+03  0.13632208657E+03  0.00000000000E+00 0.  1.
          6    2    1    2  501    0 -0.43240102738E+02 -0.11880975312E+02 -0.65084592587E+01  0.17798127447E+03  0.17211655923E+03 0.  0.
         24    2    3    3    0    0  0.30196878619E+02  0.36493433521E+02  0.17612715529E+02  0.86674129440E+02  0.70417148462E+02 0.  0.
         -6    2    1    2    0  502  0.43240102738E+02  0.11880975312E+02  0.13599556254E+03  0.22415000194E+03  0.17244583579E+03 0.  0.
        -24    2    5    5    0    0  0.81320361698E+02  0.48900634858E+02  0.10700379183E+03  0.16346084241E+03  0.79154041086E+02 0.  0.
          5    1    3    3  501    0 -0.73436981357E+02 -0.48374408832E+02 -0.24121174788E+02  0.91307145032E+02  0.47000000000E+01 0. -1.
        -11    1    4    4    0    0 -0.20876441861E+02  0.22567028588E+02  0.13502029003E+02  0.33576798407E+02  0.00000000000E+00 0.  1.
         12    1    4    4    0    0  0.51073320480E+02  0.13926404932E+02  0.41106865266E+01  0.53097331033E+02  0.00000000000E+00 0. -1.
         -5    1    5    5    0  502 -0.38080258960E+02 -0.37019659546E+02  0.28991770707E+02  0.60689159527E+02  0.47000000000E+01 0.  1.
         13    1    6    6    0    0  0.12605258188E+02 -0.21659098323E+02  0.20547901063E+02  0.32407179950E+02  0.00000000000E+00 0. -1.
        -14    1    6    6    0    0  0.68715103510E+02  0.70559733181E+02  0.86455890768E+02  0.13105366246E+03  0.00000000000E+00 0.  1.
</event>
<event>
12    1  0.8500177E-002  0.2661397E+03  0.7818608E-02  0.1103672E+00
         21   -1    0    0  503  502  0.00000000000E+00  0.00000000000E+00  0.26208861676E+02  0.26208861676E+02  0.00000000000E+00 0.  1.
         21   -1    0    0  501  503 -0.00000000000E+00 -0.00000000000E+00 -0.27231002648E+04  0.27231002648E+04  0.00000000000E+00 0.  1.
          6    2    1    2  501    0  0.15651379030E+03  0.12687879353E+03 -0.14999287653E+04  0.15233570214E+04  0.17388363558E+03 0.  0.
         24    2    3    3    0    0  0.14352162183E+03  0.29333823243E+02 -0.97721302925E+03  0.99143818508E+03  0.80903900840E+02 0.  0.
         -6    2    1    2    0  502 -0.15651379030E+03 -0.12687879353E+03 -0.11969626378E+04  0.12259521051E+04  0.17217494856E+03 0.  0.
        -24    2    5    5    0    0 -0.95254444780E+02 -0.99426560284E+02 -0.47569720058E+03  0.50155424932E+03  0.79434175502E+02 0.  0.
          5    1    3    3  501    0  0.12992168468E+02  0.97544970287E+02 -0.52271573610E+03  0.53191883632E+03  0.47000000000E+01 0. -1.
        -13    1    4    4    0    0  0.10714592091E+03 -0.10312350910E+02 -0.76377332822E+03  0.77132113276E+03  0.00000000000E+00 0.  1.
         14    1    4    4    0    0  0.36375700916E+02  0.39646174152E+02 -0.21343970103E+03  0.22011705231E+03  0.00000000000E+00 0. -1.
         -5    1    5    5    0  502 -0.61259345517E+02 -0.27452233246E+02 -0.72126543720E+03  0.72439785575E+03  0.47000000000E+01 0.  1.
         13    1    6    6    0    0 -0.45715717460E+01 -0.14720342314E+01 -0.14294989439E+03  0.14303055079E+03  0.00000000000E+00 0. -1.
        -14    1    6    6    0    0 -0.90682873034E+02 -0.97954526052E+02 -0.33274730619E+03  0.35852369853E+03  0.00000000000E+00 0.  1.
</event>
<event>
12    1  0.8500177E-002  0.2225694E+03  0.7818608E-02  0.1132550E+00
         21   -1    0    0  501  502  0.00000000000E+00  0.00000000000E+00  0.49352769740E+03  0.49352769740E+03  0.00000000000E+00 0.  1.
         21   -1    0    0  502  503 -0.00000000000E+00 -0.00000000000E+00 -0.28343505828E+03  0.28343505828E+03  0.00000000000E+00 0.  1.
         -6    2    1    2    0  503 -0.27437241132E+02 -0.13331278039E+03 -0.20858696435E+03  0.30280059516E+03  0.17220504961E+03 0.  0.
        -24    2    3    3    0    0 -0.65143981949E+02 -0.39310032981E+02 -0.10780229907E+03  0.15983922422E+03  0.90212110261E+02 0.  0.
          6    2    1    2  501    0  0.27437241132E+02  0.13331278039E+03  0.41867960347E+03  0.47416216053E+03  0.17610236938E+03 0.  0.
         24    2    5    5    0    0 -0.95890028291E+01  0.76959270206E+01  0.23325728258E+03  0.24710696091E+03  0.80633206465E+02 0.  0.
          5    1    5    5  501    0  0.37026243961E+02  0.12561685337E+03  0.18542232090E+03  0.22705519963E+03  0.47000000000E+01 0. -1.
        -11    1    6    6    0    0  0.18782886322E+02  0.21285939579E+01  0.20757747161E+03  0.20843640386E+03  0.00000000000E+00 0.  1.
         12    1    6    6    0    0 -0.28371889151E+02  0.55673330627E+01  0.25679810963E+02  0.38670557049E+02  0.00000000000E+00 0. -1.
         -5    1    3    3    0  503  0.37706740817E+02 -0.94002747408E+02 -0.10078466528E+03  0.14296137093E+03  0.47000000000E+01 0.  1.
         11    1    4    4    0    0 -0.91657999394E+01 -0.49740051235E+02 -0.18354338806E+02  0.53804891398E+02  0.00000000000E+00 0. -1.
        -12    1    4    4    0    0 -0.55978182010E+02  0.10430018253E+02 -0.89447960265E+02  0.10603433282E+03  0.00000000000E+00 0.  1.
</event>
<event>
12    1  0.8500177E-002  0.2653328E+03  0.7818608E-02  0.1104525E+00
         21   -1    0    0  501  502  0.00000000000E+00  0.00000000000E+00  0.11596836218E+03  0.11596836218E+03  0.00000000000E+00 0. -1.
         21   -1    0    0  502  503 -0.00000000000E+00 -0.00000000000E+00 -0.60113264640E+03  0.60113264640E+03  0.00000000000E+00 0. -1.
         -6    2    1    2    0  503  0.11259516871E+03 -0.16725709767E+03 -0.26389800032E+03  0.37161545046E+03  0.16674315493E+03 0.  0.
        -24    2    3    3    0    0  0.82011656542E+02 -0.18957281243E+03 -0.24035655806E+03  0.32678653295E+03  0.79714491109E+02 0.  0.
          6    2    1    2  501    0 -0.11259516871E+03  0.16725709767E+03 -0.22126628391E+03  0.34548555812E+03  0.17247867619E+03 0.  0.
         24    2    5    5    0    0 -0.71963091013E+02  0.22745703381E+02 -0.69441317188E+02  0.13192662167E+03  0.82984838874E+02 0.  0.
          5    1    5    5  501    0 -0.40632077693E+02  0.14451139429E+03 -0.15182496672E+03  0.21355893645E+03  0.47000000000E+01 0. -1.
        -11    1    6    6    0    0  0.13053989399E+02 -0.11724350394E+02 -0.23497723697E+02  0.29325927954E+02  0.00000000000E+00 0.  1.
         12    1    6    6    0    0 -0.85017080412E+02  0.34470053775E+02 -0.45943593490E+02  0.10260069372E+03  0.00000000000E+00 0. -1.
         -5    1    3    3    0  503  0.30583512164E+02  0.22315714764E+02 -0.23541442256E+02  0.44828917512E+02  0.47000000000E+01 0.  1.
         13    1    4    4    0    0  0.26427289632E+02 -0.10754682975E+03 -0.74122975091E+02  0.13326266417E+03  0.00000000000E+00 0. -1.
        -14    1    4    4    0    0  0.55584366909E+02 -0.82025982688E+02 -0.16623358297E+03  0.19352386878E+03  0.00000000000E+00 0.  1.
</event>
<event>
12    1  0.8500177E-002  0.2551204E+03  0.7818608E-02  0.1110115E+00
         21   -1    0    0  503  502  0.00000000000E+00  0.00000000000E+00  0.85371075947E+03  0.85371075947E+03  0.00000000000E+00 0.  1.
         21   -1    0    0  501  503 -0.00000000000E+00 -0.00000000000E+00 -0.79246662158E+02  0.79246662158E+02  0.00000000000E+00 0. -1.
          6    2    1    2  501    0  0.69001868526E+02 -0.17481272145E+03  0.29625598278E+03  0.39096548553E+03  0.17252726769E+03 0.  0.
         24    2    3    3    0    0  0.41878749383E+02 -0.19967791842E+02  0.74476251026E+02  0.11908140134E+03  0.80505439673E+02 0.  0.
         -6    2    1    2    0  502 -0.69001868526E+02  0.17481272145E+03  0.47820811453E+03  0.54199193610E+03  0.17248626774E+03 0.  0.
        -24    2    5    5    0    0  0.91457214840E+01  0.15233866776E+03  0.37322355236E+03  0.40911613993E+03  0.69206083571E+02 0.  0.
          5    1    3    3  501    0  0.27123119144E+02 -0.15484492961E+03  0.22177973176E+03  0.27188408419E+03  0.47000000000E+01 0. -1.
        -11    1    4    4    0    0 -0.94577620947E+01  0.11635329403E+02  0.53009072017E+02  0.55088945083E+02  0.00000000000E+00 0.  1.
         12    1    4    4    0    0  0.51336511477E+02 -0.31603121245E+02  0.21467179009E+02  0.63992456256E+02  0.00000000000E+00 0. -1.
         -5    1    5    5    0  502 -0.78147590010E+02  0.22474053690E+02  0.10498456217E+03  0.13287579617E+03  0.47000000000E+01 0.  1.
         11    1    6    6    0    0 -0.14542797095E+02  0.13979381595E+03  0.30545365851E+03  0.33623762642E+03  0.00000000000E+00 0. -1.
        -12    1    6    6    0    0  0.23688518579E+02  0.12544851809E+02  0.67769893850E+02  0.72878513513E+02  0.00000000000E+00 0.  1.
</event>
<event>
12    1  0.8500177E-002  0.2466077E+03  0.7818608E-02  0.1115747E+00
         21   -1    0    0  501  502  0.00000000000E+00  0.00000000000E+00  0.76544863647E+03  0.76544863647E+03  0.00000000000E+00 0. -1.
         21   -1    0    0  502  503 -0.00000000000E+00 -0.00000000000E+00 -0.94557240522E+02  0.94557240522E+02  0.00000000000E+00 0.  1.
         -6    2    1    2    0  503 -0.49794444260E+02 -0.16821940263E+03  0.15944796717E+03  0.29221215010E+03  0.17084212692E+03 0.  0.
        -24    2    3    3    0    0  0.53249706068E+00 -0.87512135492E+02  0.15768405163E+03  0.19696685945E+03  0.79202437917E+02 0.  0.
          6    2    1    2  501    0  0.49794444260E+02  0.16821940263E+03  0.51144342878E+03  0.56779372690E+03  0.17331497731E+03 0.  0.
         24    2    5    5    0    0 -0.17778168340E+02  0.66757073049E+02  0.12990274819E+03  0.16722407846E+03  0.79477030394E+02 0.  0.
          5    1    5    5  501    0  0.67572612601E+02  0.10146232958E+03  0.38154068060E+03  0.40056964844E+03  0.47000000000E+01 0. -1.
        -13    1    6    6    0    0 -0.69392131907E+01 -0.88988424070E+01 -0.48684374429E+01  0.12289986128E+02  0.00000000000E+00 0.  1.
         14    1    6    6    0    0 -0.10838955149E+02  0.75655915456E+02  0.13477118563E+03  0.15493409234E+03  0.00000000000E+00 0. -1.
         -5    1    3    3    0  503 -0.50326941321E+02 -0.80707267137E+02  0.17639155352E+01  0.95245290642E+02  0.47000000000E+01 0.  1.
         13    1    4    4    0    0  0.21082453434E+02  0.62789941129E+01  0.28035138969E+02  0.35635159982E+02  0.00000000000E+00 0. -1.
        -14    1    4    4    0    0 -0.20549956374E+02 -0.93791129605E+02  0.12964891266E+03  0.16133169947E+03  0.00000000000E+00 0.  1.
</event>
<event>
12    1  0.8500177E-002  0.1909263E+03  0.7818608E-02  0.1157886E+00
         21   -1    0    0  501  502  0.00000000000E+00  0.00000000000E+00  0.10353993703E+03  0.10353993703E+03  0.00000000000E+00 0.  1.
         21   -1    0    0  502  503 -0.00000000000E+00 -0.00000000000E+00 -0.35057115007E+03  0.35057115007E+03  0.00000000000E+00 0.  1.
         -6    2    1    2    0  503 -0.19339768397E+02 -0.79982892558E+02 -0.13338423015E+03  0.23290381690E+03  0.17228332865E+03 0.  0.
        -24    2    3    3    0    0 -0.31826091357E+02 -0.98607398166E+02 -0.15354728144E+03  0.20238465722E+03  0.81525841168E+02 0.  0.
          6    2    1    2  501    0  0.19339768397E+02  0.79982892558E+02 -0.11364698289E+03  0.22120727021E+03  0.17101382965E+03 0.  0.
         24    2    5    5    0    0  0.38621129886E+02  0.39977689059E+02 -0.13291836044E+03  0.17256918636E+03  0.94989611242E+02 0.  0.
          5    1    5    5  501    0 -0.19281361489E+02  0.40005203500E+02  0.19271377549E+02  0.48638083849E+02  0.47000000000E+01 0. -1.
        -13    1    6    6    0    0  0.49911080572E+02  0.43670963530E+02 -0.37048422033E+02  0.75966141107E+02  0.00000000000E+00 0.  1.
         14    1    6    6    0    0 -0.11289950686E+02 -0.36932744714E+01 -0.95869938403E+02  0.96603045254E+02  0.00000000000E+00 0. -1.
         -5    1    3    3    0  503  0.12486322960E+02  0.18624505607E+02  0.20163051286E+02  0.30519159676E+02  0.47000000000E+01 0.  1.
         13    1    4    4    0    0  0.26173409697E+02 -0.16629317075E+02 -0.43290414009E+02  0.53250741841E+02  0.00000000000E+00 0. -1.
        -14    1    4    4    0    0 -0.57999501054E+02 -0.81978081091E+02 -0.11025686743E+03  0.14913391538E+03  0.00000000000E+00 0.  1.
</event>
<event>
12    1  0.8500177E-002  0.2293414E+03  0.7818608E-02  0.1127476E+00
         21   -1    0    0  503  502  0.00000000000E+00  0.00000000000E+00  0.21072723663E+03  0.21072723663E+03  0.00000000000E+00 0.  1.
         21   -1    0    0  501  503 -0.00000000000E+00 -0.00000000000E+00 -0.24895158191E+03  0.24895158191E+03  0.00000000000E+00 0. -1.
          6    2    1    2  501    0 -0.96308310949E+02 -0.11431337704E+03 -0.45124914853E+00  0.22724759131E+03  0.17116782759E+03 0.  0.
         24    2    3    3    0    0 -0.10574819873E+03 -0.41631123476E+02  0.37964627851E+02  0.14436399178E+03  0.80522153333E+02 0.  0.
         -6    2    1    2    0  502  0.96308310949E+02  0.11431337704E+03 -0.37773096132E+02  0.23243122724E+03  0.17393858018E+03 0.  0.
        -24    2    5    5    0    0 -0.61915446089E+01  0.92061303873E+02 -0.34013015597E+02  0.12737122840E+03  0.80950143290E+02 0.  0.
          5    1    3    3  501    0  0.94398877863E+01 -0.72682253566E+02 -0.38415877000E+02  0.82883599527E+02  0.47000000000E+01 0. -1.
        -11    1    4    4    0    0 -0.14954445782E+02  0.60539215259E+01 -0.20677930259E+02  0.26227127451E+02  0.00000000000E+00 0.  1.
         12    1    4    4    0    0 -0.90793752952E+02 -0.47685045001E+02  0.58642558110E+02  0.11813686433E+03  0.00000000000E+00 0. -1.
         -5    1    5    5    0  502  0.10249985556E+03  0.22252073168E+02 -0.37600805357E+01  0.10505999883E+03  0.47000000000E+01 0.  1.
         11    1    6    6    0    0  0.15970541415E+02  0.85207870735E+02 -0.59844180581E+00  0.86693699661E+02  0.00000000000E+00 0. -1.
        -12    1    6    6    0    0 -0.22162086024E+02  0.68534331384E+01 -0.33414573791E+02  0.40677528739E+02  0.00000000000E+00 0.  1.
</event>
<event>
12    1  0.8500177E-002  0.1755773E+03  0.7818608E-02  0.1172153E+00
         21   -1    0    0  501  502  0.00000000000E+00  0.00000000000E+00  0.10108358628E+04  0.10108358628E+04  0.00000000000E+00 0. -1.
         21   -1    0    0  502  503 -0.00000000000E+00 -0.00000000000E+00 -0.75727220869E+02  0.75727220869E+02  0.00000000000E+00 0. -1.
         -6    2    1    2    0  503  0.28454426483E+02 -0.15205762784E+02  0.47684353076E+02  0.18193649462E+03  0.17258685043E+03 0.  0.
        -24    2    3    3    0    0  0.69337538002E+02  0.67637618417E+01  0.72671220094E+02  0.12901653295E+03  0.80689013472E+02 0.  0.
          6    2    1    2  501    0 -0.28454426483E+02  0.15205762784E+02  0.88742428890E+03  0.90462658909E+03  0.17258773870E+03 0.  0.
         24    2    5    5    0    0  0.32035661840E+02  0.10973788471E+02  0.74108131794E+03  0.74614846587E+03  0.79933132359E+02 0.  0.
          5    1    5    5  501    0 -0.60490088322E+02  0.42319743135E+01  0.14634297096E+03  0.15847812323E+03  0.47000000000E+01 0. -1.
        -11    1    6    6    0    0 -0.38590154910E+01 -0.22248919072E+02  0.76325342188E+02  0.79595629657E+02  0.00000000000E+00 0.  1.
         12    1    6    6    0    0  0.35894677331E+02  0.33222707543E+02  0.66475597575E+03  0.66655283621E+03  0.00000000000E+00 0. -1.
         -5    1    3    3    0  503 -0.40883111520E+02 -0.21969524626E+02 -0.24986867018E+02  0.52919961671E+02  0.47000000000E+01 0.  1.
         13    1    4    4    0    0  0.29522117354E+02 -0.18007936266E+02 -0.81942917894E+01  0.35538536823E+02  0.00000000000E+00 0. -1.
        -14    1    4    4    0    0  0.39815420649E+02  0.24771698107E+02  0.80865511884E+02  0.93477996131E+02  0.00000000000E+00 0.  1.
</event>
<event>
12    1  0.8500177E-002  0.2778314E+03  0.7818608E-02  0.1096946E+00
         21   -1    0    0  501  502  0.00000000000E+00  0.00000000000E+00  0.28245143752E+03  0.28245143752E+03  0.00000000000E+00 0. -1.
         21   -1    0    0  502  503 -0.00000000000E+00 -0.00000000000E+00 -0.27972560459E+03  0.27972560459E+03  0.00000000000E+00 0. -1.
         -6    2    1    2    0  503 -0.20253480308E+03  0.80855988240E+02  0.45563051165E+02  0.28154268250E+03  0.17214021362E+03 0.  0.
        -24    2    3    3    0    0 -0.20575422785E+03  0.53228355280E+02 -0.39109914928E+01  0.22459163601E+03  0.72512392244E+02 0.  0.
          6    2    1    2  501    0  0.20253480308E+03 -0.80855988240E+02 -0.42837218237E+02  0.28063435962E+03  0.17135512609E+03 0.  0.
         24    2    5    5    0    0  0.12524708179E+03  0.20122644045E+02 -0.37918537293E+02  0.15329088918E+03  0.77256254987E+02 0.  0.
          5    1    5    5  501    0  0.77287721294E+02 -0.10097863228E+03 -0.49186809432E+01  0.12734347044E+03  0.47000000000E+01 0. -1.
        -13    1    6    6    0    0  0.57245837675E+02  0.46493142380E+02 -0.31101835808E+02  0.80037631212E+02  0.00000000000E+00 0.  1.
         14    1    6    6    0    0  0.68001244113E+02 -0.26370498335E+02 -0.68167014851E+01  0.73253257965E+02  0.00000000000E+00 0. -1.
         -5    1    3    3    0  503  0.32194247682E+01  0.27627632960E+02  0.49474042658E+02  0.56951046485E+02  0.47000000000E+01 0.  1.
         11    1    4    4    0    0 -0.15184416437E+03  0.15708290219E+02 -0.26893559594E+02  0.15500536824E+03  0.00000000000E+00 0. -1.
        -12    1    4    4    0    0 -0.53910063483E+02  0.37520065061E+02  0.22982568101E+02  0.69586267779E+02  0.00000000000E+00 0.  1.
</event>
<event>
12    1  0.8500177E-002  0.1855280E+03  0.7818608E-02  0.1162645E+00
         21   -1    0    0  501  502  0.00000000000E+00  0.00000000000E+00  0.40876429813E+03  0.40876429813E+03  0.00000000000E+00 0.  1.
         21   -1    0    0  502  503 -0.00000000000E+00 -0.00000000000E+00 -0.85830352099E+02  0.85830352099E+02  0.00000000000E+00 0.  1.
         -6    2    1    2    0  503  0.59238829873E+02 -0.31960906912E+02  0.19738166222E+03  0.27088770207E+03  0.17288692262E+03 0.  0.
        -24    2    3    3    0    0 -0.31584816382E+02 -0.37852399909E+02  0.92475843757E+02  0.13192380331E+03  0.80135531430E+02 0.  0.
          6    2    1    2  501    0 -0.59238829873E+02  0.31960906912E+02  0.12555228380E+03  0.22370694816E+03  0.17248386635E+03 0.  0.
         24    2    5    5    0    0 -0.84985095300E+02 -0.27904660357E+02  0.82097892627E+02  0.14523956359E+03  0.79707781087E+02 0.  0.
          5    1    5    5  501    0  0.25746265428E+02  0.59865567269E+02  0.43454391177E+02  0.78467384565E+02  0.47000000000E+01 0. -1.
        -11    1    6    6    0    0 -0.48431849445E+02  0.79438205048E+01  0.70610144026E+00  0.49084079946E+02  0.00000000000E+00 0.  1.
         12    1    6    6    0    0 -0.36553245855E+02 -0.35848480861E+02  0.81391791187E+02  0.96155483646E+02  0.00000000000E+00 0. -1.
         -5    1    3    3    0  503  0.90823646255E+02  0.58914929970E+01  0.10490581847E+03  0.13896389875E+03  0.47000000000E+01 0.  1.
         11    1    4    4    0    0  0.10006797533E+01 -0.27733396365E+02  0.93758360502E+02  0.97779204322E+02  0.00000000000E+00 0. -1.
        -12    1    4    4    0    0 -0.32585496136E+02 -0.10119003545E+02 -0.12825167445E+01  0.34144598992E+02  0.00000000000E+00 0.  1.
</event>
<event>
12    1  0.8500177E-002  0.3578305E+03  0.7818608E-02  0.1059653E+00
         21   -1    0    0  501  502  0.00000000000E+00  0.00000000000E+00  0.12957175687E+03  0.12957175687E+03  0.00000000000E+00 0.  1.
         21   -1    0    0  502  503 -0.00000000000E+00 -0.00000000000E+00 -0.10589728427E+04  0.10589728427E+04  0.00000000000E+00 0. -1.
         -6    2    1    2    0  503 -0.21909769135E+03 -0.22161560325E+03 -0.30625064252E+03  0.47099061288E+03  0.17585626921E+03 0.  0.
        -24    2    3    3    0    0 -0.18727003878E+03 -0.21671185795E+03 -0.31881229479E+03  0.43610607054E+03  0.80703956890E+02 0.  0.
          6    2    1    2  501    0  0.21909769135E+03  0.22161560325E+03 -0.62315044335E+03  0.71755398673E+03  0.17160994978E+03 0.  0.
         24    2    5    5    0    0  0.12632232763E+03  0.17406003087E+03 -0.53050423111E+03  0.57800395549E+03  0.79997553252E+02 0.  0.
          5    1    5    5  501    0  0.92775363720E+02  0.47555572378E+02 -0.92646212239E+02  0.13955003124E+03  0.47000000000E+01 0. -1.
        -11    1    6    6    0    0  0.29529377270E+01  0.47813294714E+02 -0.16974934887E+03  0.17637934243E+03  0.00000000000E+00 0.  1.
         12    1    6    6    0    0  0.12336938991E+03  0.12624673615E+03 -0.36075488224E+03  0.40162461306E+03  0.00000000000E+00 0. -1.
         -5    1    3    3    0  503 -0.31827652573E+02 -0.49037452983E+01  0.12561652268E+02  0.34884542336E+02  0.47000000000E+01 0.  1.
         13    1    4    4    0    0 -0.35897957516E+02 -0.36841786792E+01 -0.34272174127E+02  0.49767644567E+02  0.00000000000E+00 0. -1.
        -14    1    4    4    0    0 -0.15137208126E+03 -0.21302767927E+03 -0.28454012066E+03  0.38633842598E+03  0.00000000000E+00 0.  1.
</event>
<event>
12    1  0.8500177E-002  0.2178348E+03  0.7818608E-02  0.1135805E+00
         21   -1    0    0  501  502  0.00000000000E+00  0.00000000000E+00  0.58221177165E+02  0.58221177165E+02  0.00000000000E+00 0. -1.
         21   -1    0    0  502  503 -0.00000000000E+00 -0.00000000000E+00 -0.83652835820E+03  0.83652835820E+03  0.00000000000E+00 0.  1.
         -6    2    1    2    0  503 -0.97130886171E+02  0.88813837647E+02 -0.30689678899E+03  0.37544253773E+03  0.17160755588E+03 0.  0.
        -24    2    3    3    0    0 -0.57249958875E+02  0.10093186323E+03 -0.12514472791E+03  0.18891308532E+03  0.81007111275E+02 0.  0.
          6    2    1    2  501    0  0.97130886171E+02 -0.88813837647E+02 -0.47141039204E+03  0.51930699763E+03  0.17357906920E+03 0.  0.
         24    2    5    5    0    0  0.15703193445E+02 -0.82565934638E+02 -0.16554588368E+03  0.20269257454E+03  0.81333365391E+02 0.  0.
          5    1    5    5  501    0  0.81427692725E+02 -0.62479030094E+01 -0.30586450836E+03  0.31661442309E+03  0.47000000000E+01 0. -1.
        -11    1    6    6    0    0  0.11858267377E+02  0.10413237938E+02 -0.59722390592E+02  0.61772307448E+02  0.00000000000E+00 0.  1.
         12    1    6    6    0    0  0.38449260687E+01 -0.92979172576E+02 -0.10582349309E+03  0.14092026709E+03  0.00000000000E+00 0. -1.
         -5    1    3    3    0  503 -0.39880927296E+02 -0.12118025580E+02 -0.18175206108E+03  0.18652945240E+03  0.47000000000E+01 0.  1.
         13    1    4    4    0    0 -0.40499847478E+02  0.80531017660E+02 -0.37939143377E+02  0.97800107624E+02  0.00000000000E+00 0. -1.
        -14    1    4    4    0    0 -0.16750111397E+02  0.20400845567E+02 -0.87205584532E+02  0.91112977700E+02  0.00000000000E+00 0.  1.
</event>
<event>
12    1  0.8500177E-002  0.2319949E+03  0.7818608E-02  0.1125319E+00
         21   -1    0    0  501  502  0.00000000000E+00  0.00000000000E+00  0.11175536017E+03  0.11175536017E+03  0.00000000000E+00 0. -1.
         21   -1    0    0  502  503 -0.00000000000E+00 -0.00000000000E+00 -0.15535252656E+04  0.15535252656E+04  0.00000000000E+00 0.  1.
         -6    2    1    2    0  503 -0.11688801231E+03 -0.10132540996E+03 -0.14126067682E+04  0.14314598921E+04  0.17230755961E+03 0.  0.
        -24    2    3    3    0    0 -0.87881028999E+02 -0.55820256339E+02 -0.60886562759E+03  0.62589547187E+03  0.10093965014E+03 0.  0.
          6    2    1    2  501    0  0.11688801231E+03  0.10132540996E+03 -0.29163137240E+02  0.23382073365E+03  0.17289303278E+03 0.  0.
         24    2    5    5    0    0  0.12676740429E+03  0.12064756345E+03  0.59761683697E+01  0.19225381410E+03  0.79372571409E+02 0.  0.
          5    1    5    5  501    0 -0.98793919808E+01 -0.19322153495E+02 -0.35139305610E+02  0.41566919544E+02  0.47000000000E+01 0. -1.
        -13    1    6    6    0    0  0.79075387949E+02  0.29200258854E+02 -0.18391955329E+02  0.86277668705E+02  0.00000000000E+00 0.  1.
         14    1    6    6    0    0  0.47692016338E+02  0.91447304600E+02  0.24368123698E+02  0.10597614540E+03  0.00000000000E+00 0. -1.
         -5    1    3    3    0  503 -0.29006983307E+02 -0.45505153621E+02 -0.80374114060E+03  0.80556442025E+03  0.47000000000E+01 0.  1.
         11    1    4    4    0    0  0.20150506764E+02 -0.23205065963E+02 -0.97617420267E+02  0.10234099251E+03  0.00000000000E+00 0. -1.
        -12    1    4    4    0    0 -0.10803153576E+03 -0.32615190375E+02 -0.51124820733E+03  0.52355447936E+03  0.00000000000E+00 0.  1.
</event>
<event>
12    1  0.8500177E-002  0.1905876E+03  0.7818608E-02  0.1158058E+00
         21   -1    0    0  503  502  0.00000000000E+00  0.00000000000E+00  0.18680122507E+04  0.18680122507E+04  0.00000000000E+00 0.  1.
         21   -1    0    0  501  503 -0.00000000000E+00 -0.00000000000E+00 -0.19500683794E+02  0.19500683794E+02  0.00000000000E+00 0.  1.
          6    2    1    2  501    0 -0.63739614053E+02 -0.49952307238E+02  0.85394351180E+03  0.87495322868E+03  0.17252727213E+03 0.  0.
         24    2    3    3    0    0 -0.10670632564E+03 -0.18112033996E+02  0.66891043390E+03  0.68228960673E+03  0.79772508841E+02 0.  0.
         -6    2    1    2    0  502  0.63739614053E+02  0.49952307238E+02  0.99456805515E+03  0.10125597059E+04  0.17191151855E+03 0.  0.
        -24    2    5    5    0    0 -0.29719364873E+02  0.50605236416E+02  0.49474922446E+03  0.50405605733E+03  0.76495641868E+02 0.  0.
          5    1    3    3  501    0  0.42966711582E+02 -0.31840273243E+02  0.18503307790E+03  0.19266362195E+03  0.47000000000E+01 0. -1.
        -11    1    4    4    0    0 -0.86576170407E+02  0.20671799073E+02  0.39409007804E+03  0.40401701223E+03  0.00000000000E+00 0.  1.
         12    1    4    4    0    0 -0.20130155228E+02 -0.38783833068E+02  0.27482035586E+03  0.27827259450E+03  0.00000000000E+00 0. -1.
         -5    1    5    5    0  502  0.93458978926E+02 -0.65292917787E+00  0.49981883069E+03  0.50850364853E+03  0.47000000000E+01 0.  1.
         11    1    6    6    0    0 -0.32042629720E+01 -0.66430956252E+01  0.25111581081E+01  0.77912730489E+01  0.00000000000E+00 0. -1.
        -12    1    6    6    0    0 -0.26515101901E+02  0.57248332041E+02  0.49223806635E+03  0.49626478428E+03  0.00000000000E+00 0.  1.
</event>
<event>
12    1  0.8500177E-002  0.1791170E+03  0.7818608E-02  0.1168677E+00
         21   -1    0    0  503  502  0.00000000000E+00  0.00000000000E+00  0.80308981795E+03  0.80308981795E+03  0.00000000000E+00 0. -1.
         21   -1    0    0  501  503 -0.00000000000E+00 -0.00000000000E+00 -0.56990587453E+02  0.56990587453E+02  0.00000000000E+00 0. -1.
          6    2    1    2  501    0 -0.51818782855E+02  0.24640915128E+01  0.13773908699E+03  0.22589986958E+03  0.17136930001E+03 0.  0.
         24    2    3    3    0    0 -0.78250378742E+02 -0.12741587675E+02  0.15425927143E+03  0.19090203486E+03  0.79763364152E+02 0.  0.
         -6    2    1    2    0  502  0.51818782855E+02 -0.24640915128E+01  0.60836014350E+03  0.63418053582E+03  0.17143987230E+03 0.  0.
        -24    2    5    5    0    0  0.43137944902E+02  0.39264580249E+02  0.56338712893E+03  0.57204116799E+03  0.80146436513E+02 0.  0.
          5    1    3    3  501    0  0.26431595887E+02  0.15205679188E+02 -0.16520184443E+02  0.34997834715E+02  0.47000000000E+01 0. -1.
        -13    1    4    4    0    0 -0.37155531323E+02  0.21549959781E+02  0.11974569083E+03  0.12721621260E+03  0.00000000000E+00 0.  1.
         14    1    4    4    0    0 -0.41094847419E+02 -0.34291547457E+02  0.34513580599E+02  0.63685822261E+02  0.00000000000E+00 0. -1.
         -5    1    5    5    0  502  0.86808379533E+01 -0.41728671762E+02  0.44973014576E+02  0.62139367833E+02  0.47000000000E+01 0.  1.
         13    1    6    6    0    0  0.47432680504E+02  0.58779704332E+02  0.37041826341E+03  0.37804047758E+03  0.00000000000E+00 0. -1.
        -14    1    6    6    0    0 -0.42947356022E+01 -0.19515124083E+02  0.19296886551E+03  0.19400069041E+03  0.00000000000E+00 0.  1.
</event>
<event>
12    1  0.8500177E-002  0.2151891E+03  0.7818608E-02  0.1137833E+00
         21   -1    0    0  503  502  0.00000000000E+00  0.00000000000E+00  0.22428289821E+03  0.22428289821E+03  0.00000000000E+00 0.  1.
         21   -1    0    0  501  503 -0.00000000000E+00 -0.00000000000E+00 -0.46503417518E+03  0.46503417518E+03  0.00000000000E+00 0. -1.
          6    2    1    2  501    0 -0.11523663928E+03 -0.55283757973E+02 -0.37794471667E+03  0.43411447297E+03  0.17110637000E+03 0.  0.
         24    2    3    3    0    0 -0.14186570531E+03 -0.18090809715E+02 -0.32522764853E+03  0.36416018910E+03  0.79915356579E+02 0.  0.
         -6    2    1    2    0  502  0.11523663928E+03  0.55283757973E+02  0.13719343970E+03  0.25520260042E+03  0.17312004632E+03 0.  0.
        -24    2    5    5    0    0  0.12534907069E+03 -0.62351765755E+01  0.73140066210E+02  0.16569413583E+03  0.79710792324E+02 0.  0.
          5    1    3    3  501    0  0.26629066038E+02 -0.37192948259E+02 -0.52717068136E+02  0.69954283865E+02  0.47000000000E+01 0. -1.
        -11    1    4    4    0    0 -0.32838432814E+02 -0.15043820375E+02 -0.22919985303E+02  0.42778556865E+02  0.00000000000E+00 0.  1.
         12    1    4    4    0    0 -0.10902727250E+03 -0.30469893398E+01 -0.30230766323E+03  0.32138163224E+03  0.00000000000E+00 0. -1.
         -5    1    5    5    0  502 -0.10112431418E+02  0.61518934549E+02  0.64053373491E+02  0.89508464588E+02  0.47000000000E+01 0.  1.
         11    1    6    6    0    0  0.90533870705E+02  0.32155003431E+02  0.39318966830E+02  0.10380899356E+03  0.00000000000E+00 0. -1.
        -12    1    6    6    0    0  0.34815199989E+02 -0.38390180007E+02  0.33821099379E+02  0.61885142275E+02  0.00000000000E+00 0.  1.
</event>
<event>
12    1  0.8500177E-002  0.2535237E+03  0.7818608E-02  0.1111446E+00
         21   -1    0    0  503  502  0.00000000000E+00  0.00000000000E+00  0.55934473043E+03  0.55934473043E+03  0.00000000000E+00 0.  1.
         21   -1    0    0  501  503 -0.00000000000E+00 -0.00000000000E+00 -0.11901782454E+03  0.11901782454E+03  0.00000000000E+00 0.  1.
          6    2    1    2  501    0  0.98713884606E+02 -0.15298198499E+03  0.14889301550E+03  0.29208808839E+03  0.17320046931E+03 0.  0.
         24    2    3    3    0    0  0.12658566772E+03 -0.73615094943E+02  0.11402446685E+03  0.20090779877E+03  0.76936669360E+02 0.  0.
         -6    2    1    2    0  502 -0.98713884606E+02  0.15298198499E+03  0.29143389039E+03  0.38627446658E+03  0.17642656354E+03 0.  0.
        -24    2    5    5    0    0 -0.50103468393E+02  0.66837752033E+02  0.51311921270E+02  0.12653526760E+03  0.80003862655E+02 0.  0.
          5    1    3    3  501    0 -0.27871783111E+02 -0.79366890048E+02  0.34868548652E+02  0.91180289618E+02  0.47000000000E+01 0. -1.
        -13    1    4    4    0    0  0.18320802699E+02 -0.35107356504E+02  0.82903744740E+00  0.39608908030E+02  0.00000000000E+00 0.  1.
         14    1    4    4    0    0  0.10826486502E+03 -0.38507738439E+02  0.11319542940E+03  0.16129889074E+03  0.00000000000E+00 0. -1.
         -5    1    5    5    0  502 -0.48610416213E+02  0.86144232958E+02  0.24012196912E+03  0.25973919899E+03  0.47000000000E+01 0.  1.
         13    1    6    6    0    0 -0.71334435658E+02  0.41205534339E+02  0.36799672521E+02  0.90225903534E+02  0.00000000000E+00 0. -1.
        -14    1    6    6    0    0  0.21230967265E+02  0.25632217694E+02  0.14512248749E+02  0.36309364063E+02  0.00000000000E+00 0.  1.
</event>
<event>
12    1  0.8500177E-002  0.1778465E+03  0.7818608E-02  0.1171054E+00
         21   -1    0    0  503  502  0.00000000000E+00  0.00000000000E+00  0.72545750992E+02  0.72545750992E+02  0.00000000000E+00 0. -1.
         21   -1    0    0  501  503 -0.00000000000E+00 -0.00000000000E+00 -0.48363739776E+03  0.48363739776E+03  0.00000000000E+00 0. -1.
          6    2    1    2  501    0  0.18044268773E+02  0.23144545057E-01 -0.30494462678E+03  0.35301642434E+03  0.17692872656E+03 0.  0.
         24    2    3    3    0    0 -0.18601466797E+02  0.44041844142E+02 -0.26665110496E+03  0.28395819049E+03  0.85110184854E+02 0.  0.
         -6    2    1    2    0  502 -0.18044268773E+02 -0.23144545057E-01 -0.10614701999E+03  0.20316672442E+03  0.17229025476E+03 0.  0.
        -24    2    5    5    0    0  0.84147521629E+01 -0.72142862427E+02 -0.74873923189E+02  0.12009187816E+03  0.59502556029E+02 0.  0.
          5    1    3    3  501    0  0.36645735570E+02 -0.44018699596E+02 -0.38293521818E+02  0.69058233853E+02  0.47000000000E+01 0. -1.
        -13    1    4    4    0    0 -0.29227654904E+02  0.34353006485E+02 -0.52041243204E+02  0.68867088366E+02  0.00000000000E+00 0.  1.
         14    1    4    4    0    0  0.10626188107E+02  0.96888376562E+01 -0.21460986176E+03  0.21509110212E+03  0.00000000000E+00 0. -1.
         -5    1    5    5    0  502 -0.26459020936E+02  0.72119717882E+02 -0.31273096804E+02  0.83074846253E+02  0.47000000000E+01 0.  1.
         13    1    6    6    0    0 -0.11793580656E+02  0.76424380596E+00  0.22772889975E+01  0.12035724260E+02  0.00000000000E+00 0. -1.
        -14    1    6    6    0    0  0.20208332819E+02 -0.72907106233E+02 -0.77151212186E+02  0.10805615390E+03  0.00000000000E+00 0.  1.
</event>
<event>
12    1  0.8500177E-002  0.1792439E+03  0.7818608E-02  0.1168831E+00
         21   -1    0    0  503  502  0.00000000000E+00  0.00000000000E+00  0.67217192969E+03  0.67217192969E+03  0.00000000000E+00 0. -1.
         21   -1    0    0  501  503 -0.00000000000E+00 -0.00000000000E+00 -0.48768655497E+02  0.48768655497E+02  0.00000000000E+00 0. -1.
          6    2    1    2  501    0 -0.34349340780E+02 -0.32702380246E+02  0.25406909864E+03  0.31093327296E+03  0.17285563475E+03 0.  0.
         24    2    3    3    0    0 -0.31601086675E+00 -0.37330287364E+02  0.26104748586E+03  0.27557124591E+03  0.80000446764E+02 0.  0.
         -6    2    1    2    0  502  0.34349340780E+02  0.32702380246E+02  0.36933417555E+03  0.41000731222E+03  0.17160693448E+03 0.  0.
        -24    2    5    5    0    0  0.53000939742E+02  0.58290001022E+02  0.35931623207E+03  0.37646543284E+03  0.80070242057E+02 0.  0.
          5    1    3    3  501    0 -0.34033329913E+02  0.46279071185E+01 -0.69783872147E+01  0.35362027054E+02  0.47000000000E+01 0. -1.
        -11    1    4    4    0    0  0.47744512657E+01  0.16151132008E+02  0.16216428812E+03  0.16303653208E+03  0.00000000000E+00 0.  1.
         12    1    4    4    0    0 -0.50904621325E+01 -0.53481419372E+02  0.98883197735E+02  0.11253471383E+03  0.00000000000E+00 0. -1.
         -5    1    5    5    0  502 -0.18651598963E+02 -0.25587620776E+02  0.10017943480E+02  0.33541879381E+02  0.47000000000E+01 0.  1.
         13    1    6    6    0    0  0.36517031554E+02  0.16329976545E+02  0.29627591834E+03  0.29896418099E+03  0.00000000000E+00 0. -1.
        -14    1    6    6    0    0  0.16483908188E+02  0.41960024477E+02  0.63040313730E+02  0.77501251851E+02  0.00000000000E+00 0.  1.
</event>
<event>
12    1  0.8500177E-002  0.1761654E+03  0.7818608E-02  0.1172974E+00
         21   -1    0    0  503  502  0.00000000000E+00  0.00000000000E+00  0.69550675500E+03  0.69550675500E+03  0.00000000000E+00 0. -1.
         21   -1    0    0  501  503 -0.00000000000E+00 -0.00000000000E+00 -0.44349796249E+02  0.44349796249E+02  0.00000000000E+00 0. -1.
          6    2    1    2  501    0  0.19242148675E+02  0.32340048420E+02  0.38960368475E+03  0.42758071513E+03  0.17209909287E+03 0.  0.
         24    2    3    3    0    0 -0.73453525244E+01 -0.21782912901E+02  0.83611935241E+02  0.11566849843E+03  0.76549306440E+02 0.  0.
         -6    2    1    2    0  502 -0.19242148675E+02 -0.32340048420E+02  0.26155327401E+03  0.31227583612E+03  0.16640295569E+03 0.  0.
        -24    2    5    5    0    0 -0.18397359882E+02 -0.42679812638E+02  0.50769648111E+02  0.10118473887E+03  0.74167142005E+02 0.  0.
          5    1    3    3  501    0  0.26587501199E+02  0.54122961321E+02  0.30599174951E+03  0.31191221670E+03  0.47000000000E+01 0. -1.
        -13    1    4    4    0    0 -0.36238238433E+02  0.71217693360E+01  0.26566741643E+02  0.45494189571E+02  0.00000000000E+00 0.  1.
         14    1    4    4    0    0  0.28892885909E+02 -0.28904682237E+02  0.57045193598E+02  0.70174308860E+02  0.00000000000E+00 0. -1.
         -5    1    5    5    0  502 -0.84478879296E+00  0.10339764218E+02  0.21078362589E+03  0.21109109725E+03  0.47000000000E+01 0.  1.
         11    1    6    6    0    0  0.75983169466E+01 -0.51004230228E+01  0.54570432694E+02  0.55332457562E+02  0.00000000000E+00 0. -1.
        -12    1    6    6    0    0 -0.25995676828E+02 -0.37579389615E+02 -0.38007845828E+01  0.45852281307E+02  0.00000000000E+00 0.  1.
</event>
<event>
12    1  0.8500177E-002  0.2122079E+03  0.7818608E-02  0.1139914E+00
         21   -1    0    0  503  502  0.00000000000E+00  0.00000000000E+00  0.47109646495E+03  0.47109646495E+03  0.00000000000E+00 0. -1.
         21   -1    0    0  501  503 -0.00000000000E+00 -0.00000000000E+00 -0.95882580358E+02  0.95882580358E+02  0.00000000000E+00 0.  1.
          6    2    1    2  501    0 -0.10960170850E+03 -0.57641931043E+02  0.16760836170E+03  0.27041589438E+03  0.17232836766E+03 0.  0.
         24    2    3    3    0    0 -0.17568762250E+02 -0.60910399670E+02  0.14200864948E+03  0.17471750699E+03  0.79630474859E+02 0.  0.
         -6    2    1    2    0  502  0.10960170850E+03  0.57641931043E+02  0.20760552289E+03  0.29656315093E+03  0.17179791219E+03 0.  0.
        -24    2    5    5    0    0  0.94949521834E+02 -0.16464359118E+02  0.80897856781E+02  0.14897131014E+03  0.79759019532E+02 0.  0.
          5    1    3    3  501    0 -0.92032946252E+02  0.32684686268E+01  0.25599712219E+02  0.95698387388E+02  0.47000000000E+01 0. -1.
        -13    1    4    4    0    0  0.22031716647E+02 -0.35669085359E+02  0.25426510943E+02  0.49032516227E+02  0.00000000000E+00 0.  1.
         14    1    4    4    0    0 -0.39600478897E+02 -0.25241314311E+02  0.11658213854E+03  0.12568499077E+03  0.00000000000E+00 0. -1.
         -5    1    5    5    0  502  0.14652186667E+02  0.74106290161E+02  0.12670766611E+03  0.14759184079E+03  0.47000000000E+01 0.  1.
         13    1    6    6    0    0  0.43108064250E+02 -0.54306230130E+01  0.85359499276E+02  0.95781214162E+02  0.00000000000E+00 0. -1.
        -14    1    6    6    0    0  0.51841457584E+02 -0.11033736105E+02 -0.44616424951E+01  0.53190095982E+02  0.00000000000E+00 0.  1.
</event>
<event>
12    1  0.8500177E-002  0.1937404E+03  0.7818608E-02  0.1155634E+00
         21   -1    0    0  501  502  0.00000000000E+00  0.00000000000E+00  0.49840835422E+02  0.49840835422E+02  0.00000000000E+00 0. -1.
         21   -1    0    0  502  503 -0.00000000000E+00 -0.00000000000E+00 -0.74433471441E+03  0.74433471441E+03  0.00000000000E+00 0. -1.
         -6    2    1    2    0  503 -0.46492219704E+02 -0.74968015394E+02 -0.34617655231E+03  0.39670336718E+03  0.17249239502E+03 0.  0.
        -24    2    3    3    0    0  0.15004414765E+02 -0.20085253094E+02 -0.73083085760E+02  0.11140337573E+03  0.80255995705E+02 0.  0.
          6    2    1    2  501    0  0.46492219704E+02  0.74968015394E+02 -0.34831732668E+03  0.39747218265E+03  0.16993365202E+03 0.  0.
         24    2    5    5    0    0  0.56019367947E+02  0.72358008048E+02 -0.36057575361E+03  0.38104240107E+03  0.82489916997E+02 0.  0.
          5    1    5    5  501    0 -0.95271482432E+01  0.26100073462E+01  0.12258426930E+02  0.16429781581E+02  0.47000000000E+01 0. -1.
        -11    1    6    6    0    0  0.26825231763E+02  0.20384033803E+02 -0.27319362810E+03  0.27526325641E+03  0.00000000000E+00 0.  1.
         12    1    6    6    0    0  0.29194136184E+02  0.51973974245E+02 -0.87382125503E+02  0.10577914465E+03  0.00000000000E+00 0. -1.
         -5    1    3    3    0  503 -0.61496634468E+02 -0.54882762300E+02 -0.27309346655E+03  0.28529999145E+03  0.47000000000E+01 0.  1.
         13    1    4    4    0    0  0.11709309561E+02 -0.44075556184E+02 -0.74275441912E+02  0.87158498464E+02  0.00000000000E+00 0. -1.
        -14    1    4    4    0    0  0.32951052035E+01  0.23990303090E+02  0.11923561523E+01  0.24244877270E+02  0.00000000000E+00 0.  1.
</event>
<event>
12    1  0.8500177E-002  0.3223452E+03  0.7818608E-02  0.1074966E+00
         21   -1    0    0  501  502  0.00000000000E+00  0.00000000000E+00  0.20952371653E+03  0.20952371653E+03  0.00000000000E+00 0.  1.
         21   -1    0    0  502  503 -0.00000000000E+00 -0.00000000000E+00 -0.84889780840E+03  0.84889780840E+03  0.00000000000E+00 0.  1.
         -6    2    1    2    0  503 -0.20307118823E+03 -0.17627684076E+03 -0.66247306941E+03  0.73524971644E+03  0.17149386504E+03 0.  0.
        -24    2    3    3    0    0 -0.92133843835E+02 -0.26334896196E+02 -0.34636515498E+03  0.36818571018E+03  0.80060756065E+02 0.  0.
          6    2    1    2  501    0  0.20307118823E+03  0.17627684076E+03  0.23098977538E+02  0.32317180849E+03  0.17774988878E+03 0.  0.
         24    2    5    5    0    0  0.18356316978E+03  0.15524584594E+03  0.74158837980E+02  0.26441753311E+03  0.81365770348E+02 0.  0.
          5    1    5    5  501    0  0.19508018456E+02  0.21030994815E+02 -0.51059860442E+02  0.58754275379E+02  0.47000000000E+01 0. -1.
        -11    1    6    6    0    0  0.14503576774E+03  0.15628283852E+03  0.74561374741E+02  0.22587407586E+03  0.00000000000E+00 0.  1.
         12    1    6    6    0    0  0.38527402033E+02 -0.10369925796E+01 -0.40253676143E+00  0.38543457251E+02  0.00000000000E+00 0. -1.
         -5    1    3    3    0  503 -0.11093734440E+03 -0.14994194456E+03 -0.31610791444E+03  0.36706400626E+03  0.47000000000E+01 0.  1.
         11    1    4    4    0    0 -0.33412432519E+02 -0.23396938270E+00 -0.25085123847E+03  0.25306676833E+03  0.00000000000E+00 0. -1.
        -12    1    4    4    0    0 -0.58721411316E+02 -0.26100926813E+02 -0.95513916506E+02  0.11511894185E+03  0.00000000000E+00 0.  1.
</event>
<event>
12    1  0.8500177E-002  0.1957145E+03  0.7818608E-02  0.1153663E+00
         21   -1    0    0  503  502  0.00000000000E+00  0.00000000000E+00  0.19532680701E+04  0.19532680701E+04  0.00000000000E+00 0. -1.
         21   -1    0    0  501  503 -0.00000000000E+00 -0.00000000000E+00 -0.30609644914E+02  0.30609644914E+02  0.00000000000E+00 0. -1.
          6    2    1    2  501    0 -0.75975595916E+02  0.54001989078E+02  0.36167180048E+03  0.41066971625E+03  0.17074723594E+03 0.  0.
         24    2    3    3    0    0 -0.33772379581E+02 -0.35456464007E+02  0.18812497162E+03  0.21085851010E+03  0.81685811919E+02 0.  0.
         -6    2    1    2    0  502  0.75975595916E+02 -0.54001989078E+02  0.15609866247E+04  0.15732079987E+04  0.17209200700E+03 0.  0.
        -24    2    5    5    0    0  0.62148390441E+02 -0.35450093954E+02  0.15332421356E+04  0.15367770902E+04  0.75718207547E+02 0.  0.
          5    1    3    3  501    0 -0.42203216335E+02  0.89458453086E+02  0.17354682886E+03  0.19981120615E+03  0.47000000000E+01 0. -1.
        -11    1    4    4    0    0  0.25697525995E+02 -0.16394207493E+02  0.84975759718E+02  0.90277420329E+02  0.00000000000E+00 0.  1.
         12    1    4    4    0    0 -0.59469905576E+02 -0.19062256514E+02  0.10314921191E+03  0.12058108977E+03  0.00000000000E+00 0. -1.
         -5    1    5    5    0  502  0.13827205474E+02 -0.18551895124E+02  0.27744489097E+02  0.36430908569E+02  0.47000000000E+01 0.  1.
         13    1    6    6    0    0  0.26698353786E+02  0.23371533165E+02  0.53421248531E+03  0.53538958723E+03  0.00000000000E+00 0. -1.
        -14    1    6    6    0    0  0.35450036656E+02 -0.58821627119E+02  0.99902965025E+03  0.10013875029E+04  0.00000000000E+00 0.  1.
</event>
<event>
12    1  0.8500177E-002  0.2099834E+03  0.7818608E-02  0.1141662E+00
         21   -1    0    0  503  502  0.00000000000E+00  0.00000000000E+00  0.45496424229E+03  0.45496424229E+03  0.00000000000E+00 0. -1.
         21   -1    0    0  501  503 -0.00000000000E+00 -0.00000000000E+00 -0.18904132643E+03  0.18904132643E+03  0.00000000000E+00 0. -1.
          6    2    1    2  501    0  0.75235527495E+02 -0.92843709200E+02 -0.92129316679E+02  0.22892190453E+03  0.17215425771E+03 0.  0.
         24    2    3    3    0    0  0.27418558222E+02  0.96333824766E+01 -0.78295189376E+02  0.11489782836E+03  0.78910043014E+02 0.  0.
         -6    2    1    2    0  502 -0.75235527495E+02  0.92843709200E+02  0.35805223254E+03  0.41508366419E+03  0.17266356917E+03 0.  0.
        -24    2    5    5    0    0 -0.10892245939E+03  0.36555123451E+02  0.20176244514E+03  0.24552010115E+03  0.79822657120E+02 0.  0.
          5    1    3    3  501    0  0.47816969273E+02 -0.10247709168E+03 -0.13834127302E+02  0.11402407617E+03  0.47000000000E+01 0. -1.
        -13    1    4    4    0    0  0.45630950593E+02 -0.13617656861E+02 -0.69186366376E+02  0.83990341842E+02  0.00000000000E+00 0.  1.
         14    1    4    4    0    0 -0.18212392372E+02  0.23251039337E+02 -0.91088230005E+01  0.30907486514E+02  0.00000000000E+00 0. -1.
         -5    1    5    5    0  502  0.33686931895E+02  0.56288585749E+02  0.15628978740E+03  0.16956356304E+03  0.47000000000E+01 0.  1.
         13    1    6    6    0    0 -0.47956849918E+02  0.22177787688E+02  0.25915225594E+02  0.58849916214E+02  0.00000000000E+00 0. -1.
        -14    1    6    6    0    0 -0.60965609472E+02  0.14377335763E+02  0.17584721954E+03  0.18667018493E+03  0.00000000000E+00 0.  1.
</event>
<event>
12    1  0.8500177E-002  0.2032949E+03  0.7818608E-02  0.1147045E+00
         21   -1    0    0  503  502  0.00000000000E+00  0.00000000000E+00  0.59366166554E+03  0.59366166554E+03  0.00000000000E+00 0. -1.
         21   -1    0    0  501  503 -0.00000000000E+00 -0.00000000000E+00 -0.92963381542E+02  0.92963381542E+02  0.00000000000E+00 0. -1.
          6    2    1    2  501    0 -0.76338811579E+02 -0.76125526795E+02  0.78083217885E+02  0.21777464245E+03  0.17235456477E+03 0.  0.
         24    2    3    3    0    0 -0.46634280842E+01  0.17450318467E+02  0.70441047658E+02  0.99561732070E+02  0.68002471437E+02 0.  0.
         -6    2    1    2    0  502  0.76338811579E+02  0.76125526795E+02  0.42261506611E+03  0.46885040463E+03  0.17203051424E+03 0.  0.
        -24    2    5    5    0    0 -0.84684078100E+01 -0.11153858651E+02  0.13870285604E+03  0.15991968648E+03  0.78356246449E+02 0.  0.
          5    1    3    3  501    0 -0.71675383494E+02 -0.93575845262E+02  0.76421702267E+01  0.11821291038E+03  0.47000000000E+01 0. -1.
        -11    1    4    4    0    0 -0.40615689798E+01 -0.20604071739E+02  0.54303236001E+02  0.58222551945E+02  0.00000000000E+00 0.  1.
         12    1    4    4    0    0 -0.60185910442E+00  0.38054390206E+02  0.16137811657E+02  0.41339180125E+02  0.00000000000E+00 0. -1.
         -5    1    5    5    0  502  0.84807219389E+02  0.87279385446E+02  0.28391221007E+03  0.30893071814E+03  0.47000000000E+01 0.  1.
         13    1    6    6    0    0 -0.17072361613E+02  0.14589263910E+02  0.12923695920E+03  0.13117356356E+03  0.00000000000E+00 0. -1.
        -14    1    6    6    0    0  0.86039538033E+01 -0.25743122561E+02  0.94658968353E+01  0.28746122924E+02  0.00000000000E+00 0.  1.
</event>
<event>
12    1  0.8500177E-002  0.1767972E+03  0.7818608E-02  0.1170947E+00
         21   -1    0    0  503  502  0.00000000000E+00  0.00000000000E+00  0.95706097324E+03  0.95706097324E+03  0.00000000000E+00 0.  1.
         21   -1    0    0  501  503 -0.00000000000E+00 -0.00000000000E+00 -0.70743122242E+02  0.70743122242E+02  0.00000000000E+00 0.  1.
          6    2    1    2  501    0  0.15719121230E+02  0.37720424175E+02  0.66092173722E+02  0.18874698226E+03  0.17200967040E+03 0.  0.
         24    2    3    3    0    0 -0.45311817395E+02 -0.29891483552E+01  0.26094053111E+01  0.91617189455E+02  0.79528640150E+02 0.  0.
         -6    2    1    2    0  502 -0.15719121230E+02 -0.37720424175E+02  0.82022567728E+03  0.83905711322E+03  0.17197894177E+03 0.  0.
        -24    2    5    5    0    0 -0.21884543010E+02 -0.89277749971E+02  0.62979695838E+03  0.64162014290E+03  0.81134142813E+02 0.  0.
          5    1    3    3  501    0  0.61030938625E+02  0.40709572530E+02  0.63482768411E+02  0.97129792804E+02  0.47000000000E+01 0. -1.
        -13    1    4    4    0    0 -0.15675540576E+02 -0.77521927127E+01 -0.37583477279E+02  0.41452826545E+02  0.00000000000E+00 0.  1.
         14    1    4    4    0    0 -0.29636276819E+02  0.47630443575E+01  0.40192882590E+02  0.50164362910E+02  0.00000000000E+00 0. -1.
         -5    1    5    5    0  502  0.61654217801E+01  0.51557325796E+02  0.19042871890E+03  0.19743697032E+03  0.47000000000E+01 0.  1.
         13    1    6    6    0    0 -0.51958705205E+02 -0.55770653594E+02  0.34809835880E+03  0.35634609616E+03  0.00000000000E+00 0. -1.
        -14    1    6    6    0    0  0.30074162195E+02 -0.33507096377E+02  0.28169859958E+03  0.28527404675E+03  0.00000000000E+00 0.  1.
</event>
<event>
12    1  0.8500177E-002  0.1778212E+03  0.7818608E-02  0.1170543E+00
         21   -1    0    0  503  502  0.00000000000E+00  0.00000000000E+00  0.31302501582E+03  0.31302501582E+03  0.00000000000E+00 0. -1.
         21   -1    0    0  501  503 -0.00000000000E+00 -0.00000000000E+00 -0.13812501627E+03  0.13812501627E+03  0.00000000000E+00 0. -1.
          6    2    1    2  501    0  0.42079616314E+02  0.35185710883E+02 -0.31217854642E+02  0.18054071189E+03  0.16914983253E+03 0.  0.
         24    2    3    3    0    0  0.66485319265E+01  0.70219005025E+02  0.20237123040E+02  0.10876050454E+03  0.80276986464E+02 0.  0.
         -6    2    1    2    0  502 -0.42079616314E+02 -0.35185710883E+02  0.20611785419E+03  0.27060932020E+03  0.16654160442E+03 0.  0.
        -24    2    5    5    0    0 -0.26457992947E+02  0.72532752703E+01  0.20832329606E+03  0.22508947138E+03  0.80709597043E+02 0.  0.
          5    1    3    3  501    0  0.35431084387E+02 -0.35033294142E+02 -0.51454977682E+02  0.71780207353E+02  0.47000000000E+01 0. -1.
        -11    1    4    4    0    0  0.24060601716E+02  0.15981373751E+02  0.39227304967E+02  0.48714456960E+02  0.00000000000E+00 0.  1.
         12    1    4    4    0    0 -0.17412069789E+02  0.54237631274E+02 -0.18990181927E+02  0.60046047582E+02  0.00000000000E+00 0. -1.
         -5    1    5    5    0  502 -0.15621623367E+02 -0.42438986153E+02 -0.22054418647E+01  0.45519848815E+02  0.47000000000E+01 0.  1.
         13    1    6    6    0    0  0.21787572412E+02 -0.19590894065E+02  0.58736474545E+02  0.65638973817E+02  0.00000000000E+00 0. -1.
        -14    1    6    6    0    0 -0.48245565359E+02  0.26844169335E+02  0.14958682151E+03  0.15945049757E+03  0.00000000000E+00 0.  1.
</event>
<event>
12    1  0.8500177E-002  0.2198819E+03  0.7818608E-02  0.1134694E+00
         21   -1    0    0  501  502  0.00000000000E+00  0.00000000000E+00  0.42686421335E+03  0.42686421335E+03  0.00000000000E+00 0.  1.
         21   -1    0    0  502  503 -0.00000000000E+00 -0.00000000000E+00 -0.29789115087E+03  0.29789115087E+03  0.00000000000E+00 0.  1.
         -6    2    1    2    0  503 -0.76646511888E+02 -0.11346776098E+03 -0.22252495207E+03  0.31014841678E+03  0.16710794586E+03 0.  0.
        -24    2    3    3    0    0 -0.19722813401E+01 -0.90152042546E+02 -0.18947115459E+03  0.22509251186E+03  0.81461891735E+02 0.  0.
          6    2    1    2  501    0  0.76646511888E+02  0.11346776098E+03  0.35149801456E+03  0.41460694743E+03  0.17204198923E+03 0.  0.
         24    2    5    5    0    0  0.77921901311E+02  0.79749693864E+02  0.12865147844E+03  0.18917136168E+03  0.82478874855E+02 0.  0.
          5    1    5    5  501    0 -0.12753894229E+01  0.33718067112E+02  0.22284653611E+03  0.22543558576E+03  0.47000000000E+01 0. -1.
        -11    1    6    6    0    0  0.78959812066E+02  0.30179307116E+02  0.10332170825E+03  0.13349463621E+03  0.00000000000E+00 0.  1.
         12    1    6    6    0    0 -0.10379107547E+01  0.49570386749E+02  0.25329770190E+02  0.55676725470E+02  0.00000000000E+00 0. -1.
         -5    1    3    3    0  503 -0.74674230548E+02 -0.23315718431E+02 -0.33053797487E+02  0.85055904923E+02  0.47000000000E+01 0.  1.
         13    1    4    4    0    0 -0.24614804473E+02  0.37376615000E+01 -0.41275528011E+02  0.48202986684E+02  0.00000000000E+00 0. -1.
        -14    1    4    4    0    0  0.22642523133E+02 -0.93889704046E+02 -0.14819562658E+03  0.17688952517E+03  0.00000000000E+00 0.  1.
</event>
<event>
12    1  0.8500177E-002  0.2287954E+03  0.7818608E-02  0.1127694E+00
         21   -1    0    0  503  502  0.00000000000E+00  0.00000000000E+00  0.13416644491E+04  0.13416644491E+04  0.00000000000E+00 0.  1.
         21   -1    0    0  501  503 -0.00000000000E+00 -0.00000000000E+00 -0.40971303445E+02  0.40971303445E+02  0.00000000000E+00 0.  1.
          6    2    1    2  501    0  0.79277519999E+02  0.12878551433E+03  0.81025729459E+03  0.84194074074E+03  0.17168777941E+03 0.  0.
         24    2    3    3    0    0 -0.10561686028E+02  0.10091279180E+02  0.30937751049E+03  0.31938734393E+03  0.77977229604E+02 0.  0.
         -6    2    1    2    0  502 -0.79277519999E+02 -0.12878551433E+03  0.49043585110E+03  0.54069501185E+03  0.17015621620E+03 0.  0.
        -24    2    5    5    0    0 -0.10524339402E+03 -0.13224705497E+03  0.47331580594E+03  0.50905018883E+03  0.80862766863E+02 0.  0.
          5    1    3    3  501    0  0.89839206028E+02  0.11869423515E+03  0.50087978410E+03  0.52255339681E+03  0.47000000000E+01 0. -1.
        -11    1    4    4    0    0  0.72856140167E+01 -0.17095970293E+02  0.25742643538E+03  0.25809634248E+03  0.00000000000E+00 0.  1.
         12    1    4    4    0    0 -0.17847300045E+02  0.27187249472E+02  0.51951075116E+02  0.61291001447E+02  0.00000000000E+00 0. -1.
         -5    1    5    5    0  502  0.25965874018E+02  0.34615406475E+01  0.17120045160E+02  0.31644823012E+02  0.47000000000E+01 0.  1.
         13    1    6    6    0    0 -0.38317006108E+01 -0.46496066407E+02  0.19737057935E+03  0.20280954542E+03  0.00000000000E+00 0. -1.
        -14    1    6    6    0    0 -0.10141169341E+03 -0.85750988566E+02  0.27594522659E+03  0.30624064341E+03  0.00000000000E+00 0.  1.
</event>
<event>
12    1  0.8500177E-002  0.1922705E+03  0.7818608E-02  0.1156688E+00
         21   -1    0    0  503  502  0.00000000000E+00  0.00000000000E+00  0.14182973611E+03  0.14182973611E+03  0.00000000000E+00 0.  1.
         21   -1    0    0  501  503 -0.00000000000E+00 -0.00000000000E+00 -0.27014693941E+03  0.27014693941E+03  0.00000000000E+00 0.  1.
          6    2    1    2  501    0  0.83507523937E+02 -0.12633096427E+02 -0.10566713342E+03  0.21837664949E+03  0.17143429143E+03 0.  0.
         24    2    3    3    0    0  0.99620945472E+02  0.29267806126E+02 -0.34491412417E+02  0.13409497148E+03  0.77529778754E+02 0.  0.
         -6    2    1    2    0  502 -0.83507523937E+02  0.12633096427E+02 -0.22650069886E+02  0.19360002603E+03  0.17272765480E+03 0.  0.
        -24    2    5    5    0    0 -0.69936460985E+02  0.25710494191E+02 -0.79244314667E+02  0.13376533188E+03  0.77854765545E+02 0.  0.
          5    1    3    3  501    0 -0.16113421534E+02 -0.41900902552E+02 -0.71175721004E+02  0.84281678013E+02  0.47000000000E+01 0. -1.
        -11    1    4    4    0    0  0.87127660640E+02  0.41842342192E+01 -0.51517480952E+02  0.10130541895E+03  0.00000000000E+00 0.  1.
         12    1    4    4    0    0  0.12493284831E+02  0.25083571906E+02  0.17026068535E+02  0.32789552531E+02  0.00000000000E+00 0. -1.
         -5    1    5    5    0  502 -0.13571062953E+02 -0.13077397764E+02  0.56594244781E+02  0.59834694152E+02  0.47000000000E+01 0.  1.
         13    1    6    6    0    0  0.34049792364E+01 -0.19799490060E+02 -0.72199584567E+01  0.21348102735E+02  0.00000000000E+00 0. -1.
        -14    1    6    6    0    0 -0.73341440221E+02  0.45509984251E+02 -0.72024356210E+02  0.11241722914E+03  0.00000000000E+00 0.  1.
</event>
<event>
12    1  0.8500177E-002  0.2029110E+03  0.7818608E-02  0.1147667E+00
         21   -1    0    0  501  502  0.00000000000E+00  0.00000000000E+00  0.52335541006E+03  0.52335541006E+03  0.00000000000E+00 0. -1.
         21   -1    0    0  502  503 -0.00000000000E+00 -0.00000000000E+00 -0.18893162381E+03  0.18893162381E+03  0.00000000000E+00 0. -1.
         -6    2    1    2    0  503  0.73333158861E+02 -0.78373207645E+02 -0.10538881357E+03  0.22864751579E+03  0.17219980425E+03 0.  0.
        -24    2    3    3    0    0  0.71456370146E+02 -0.56292809443E+02 -0.10039375873E+01  0.12183291634E+03  0.81039239776E+02 0.  0.
          6    2    1    2  501    0 -0.73333158861E+02  0.78373207645E+02  0.43981259983E+03  0.48363951808E+03  0.17015272145E+03 0.  0.
         24    2    5    5    0    0  0.78517733768E+01  0.61491986412E+02  0.13562989284E+03  0.16832193519E+03  0.78063379985E+02 0.  0.
          5    1    5    5  501    0 -0.81184932237E+02  0.16881221233E+02  0.30418270699E+03  0.31531758289E+03  0.47000000000E+01 0. -1.
        -11    1    6    6    0    0  0.85900965699E+01  0.79595525165E+02  0.12073893639E+03  0.14486934853E+03  0.00000000000E+00 0.  1.
         12    1    6    6    0    0 -0.73832319310E+00 -0.18103538753E+02  0.14890956459E+02  0.23452586654E+02  0.00000000000E+00 0. -1.
         -5    1    3    3    0  503  0.18767887144E+01 -0.22080398201E+02 -0.10438487599E+03  0.10681459945E+03  0.47000000000E+01 0.  1.
         11    1    4    4    0    0  0.82151226223E+02 -0.26761612496E+02 -0.14570077292E+02  0.87620174763E+02  0.00000000000E+00 0. -1.
        -12    1    4    4    0    0 -0.10694856076E+02 -0.29531196947E+02  0.13566139704E+02  0.34212741575E+02  0.00000000000E+00 0.  1.
</event>
<event>
12    1  0.8500177E-002  0.2326577E+03  0.7818608E-02  0.1125365E+00
         21   -1    0    0  501  502  0.00000000000E+00  0.00000000000E+00  0.73418415647E+03  0.73418415647E+03  0.00000000000E+00 0.  1.
         21   -1    0    0  502  503 -0.00000000000E+00 -0.00000000000E+00 -0.47355707933E+03  0.47355707933E+03  0.00000000000E+00 0.  1.
         -6    2    1    2    0  503 -0.40278557710E+01  0.15160355737E+03 -0.42543318219E+03  0.48330471814E+03  0.17201801023E+03 0.  0.
        -24    2    3    3    0    0  0.31677536443E+02  0.16639186721E+03 -0.37898708563E+03  0.42270027089E+03  0.79715670680E+02 0.  0.
          6    2    1    2  501    0  0.40278557710E+01 -0.15160355737E+03  0.68606025932E+03  0.72443651765E+03  0.17643618240E+03 0.  0.
         24    2    5    5    0    0 -0.58542067114E+02 -0.13212484911E+03  0.53165320935E+03  0.55663293483E+03  0.79378459039E+02 0.  0.
          5    1    5    5  501    0  0.62569922885E+02 -0.19478708266E+02  0.15440704997E+03  0.16780358282E+03  0.47000000000E+01 0. -1.
        -11    1    6    6    0    0 -0.89569049020E+00  0.32586591445E+01  0.10982584599E+03  0.10987783020E+03  0.00000000000E+00 0.  1.
         12    1    6    6    0    0 -0.57646376624E+02 -0.13538350825E+03  0.42182736335E+03  0.44675510464E+03  0.00000000000E+00 0. -1.
         -5    1    3    3    0  503 -0.35705392214E+02 -0.14788309838E+02 -0.46446096562E+02  0.60604447253E+02  0.47000000000E+01 0.  1.
         13    1    4    4    0    0  0.53518418498E+02  0.75505455581E+02 -0.16488546635E+03  0.18908334659E+03  0.00000000000E+00 0. -1.
        -14    1    4    4    0    0 -0.21840882055E+02  0.90886411628E+02 -0.21410161927E+03  0.23361692431E+03  0.00000000000E+00 0.  1.
</event>
<event>
12    1  0.8500177E-002  0.1763491E+03  0.7818608E-02  0.1171873E+00
         21   -1    0    0  503  502  0.00000000000E+00  0.00000000000E+00  0.24417946721E+03  0.24417946721E+03  0.00000000000E+00 0. -1.
         21   -1    0    0  501  503 -0.00000000000E+00 -0.00000000000E+00 -0.19691050796E+03  0.19691050796E+03  0.00000000000E+00 0. -1.
          6    2    1    2  501    0 -0.27610211638E+02 -0.10852208275E+02 -0.10884257605E+03  0.20556964181E+03  0.17184899494E+03 0.  0.
         24    2    3    3    0    0 -0.25663894175E+02 -0.11623143551E+02 -0.14110129202E+03  0.17290318732E+03  0.95875985767E+02 0.  0.
         -6    2    1    2    0  502  0.27610211638E+02  0.10852208275E+02  0.15611153531E+03  0.23552033336E+03  0.17383590469E+03 0.  0.
        -24    2    5    5    0    0  0.77162439092E+02  0.27338531624E+02  0.73410143091E+02  0.13759774977E+03  0.82720337973E+02 0.  0.
          5    1    3    3  501    0 -0.19463174631E+01  0.77093527605E+00  0.32258715967E+02  0.32666454486E+02  0.47000000000E+01 0. -1.
        -13    1    4    4    0    0 -0.32613769344E+01 -0.12177337451E+02  0.12454324013E+02  0.17721013332E+02  0.00000000000E+00 0.  1.
         14    1    4    4    0    0 -0.22402517241E+02  0.55419389923E+00 -0.15355561603E+03  0.15518217399E+03  0.00000000000E+00 0. -1.
         -5    1    5    5    0  502 -0.49552227454E+02 -0.16486323349E+02  0.82701392218E+02  0.97922583596E+02  0.47000000000E+01 0.  1.
         13    1    6    6    0    0  0.34682606616E+02  0.84196868103E+00  0.79905770381E+02  0.87112136084E+02  0.00000000000E+00 0. -1.
        -14    1    6    6    0    0  0.42479832476E+02  0.26496562943E+02 -0.64956272909E+01  0.50485613683E+02  0.00000000000E+00 0.  1.
</event>
<event>
12    1  0.8500177E-002  0.2491511E+03  0.7818608E-02  0.1113944E+00
         21   -1    0    0  501  502  0.00000000000E+00  0.00000000000E+00  0.47422262984E+03  0.47422262984E+03  0.00000000000E+00 0.  1.
         21   -1    0    0  502  503 -0.00000000000E+00 -0.00000000000E+00 -0.15805404342E+03  0.15805404342E+03  0.00000000000E+00 0. -1.
         -6    2    1    2    0  503  0.11162336367E+03 -0.14128326746E+03  0.26075477016E+02  0.24987601775E+03  0.17128151320E+03 0.  0.
        -24    2    3    3    0    0  0.13313463820E+02 -0.17875503186E+02 -0.18777807058E+02  0.85777816106E+02  0.80674938891E+02 0.  0.
          6    2    1    2  501    0 -0.11162336367E+03  0.14128326746E+03  0.29009310940E+03  0.38240065551E+03  0.17220775893E+03 0.  0.
         24    2    5    5    0    0 -0.52246092784E+02  0.14630319149E+03  0.26599401016E+03  0.31795132255E+03  0.78777865056E+02 0.  0.
          5    1    5    5  501    0 -0.59377270881E+02 -0.50199240314E+01  0.24099099243E+02  0.64449332960E+02  0.47000000000E+01 0. -1.
        -13    1    6    6    0    0  0.16918298191E+02  0.60871619743E+02  0.80455690402E+02  0.10229712128E+03  0.00000000000E+00 0.  1.
         14    1    6    6    0    0 -0.69164390974E+02  0.85431571745E+02  0.18553831976E+03  0.21565420128E+03  0.00000000000E+00 0. -1.
         -5    1    3    3    0  503  0.98309899846E+02 -0.12340776427E+03  0.44853284074E+02  0.16409820164E+03  0.47000000000E+01 0.  1.
         11    1    4    4    0    0  0.41462541293E+02 -0.21936037816E+02 -0.29466657896E+02  0.55395090153E+02  0.00000000000E+00 0. -1.
        -12    1    4    4    0    0 -0.28149077474E+02  0.40605346300E+01  0.10688850838E+02  0.30382725953E+02  0.00000000000E+00 0.  1.
</event>
<event>
12    1  0.8500177E-002  0.1919082E+03  0.7818608E-02  0.1157027E+00
         21   -1    0    0  501  502  0.00000000000E+00  0.00000000000E+00  0.21633839437E+04  0.21633839437E+04  0.00000000000E+00 0.  1.
         21   -1    0    0  502  503 -0.00000000000E+00 -0.00000000000E+00 -0.30322363924E+02  0.30322363924E+02  0.00000000000E+00 0. -1.
         -6    2    1    2    0  503  0.26801921661E+02  0.78813395453E+02  0.33524318008E+03  0.38567429833E+03  0.17154235714E+03 0.  0.
        -24    2    3    3    0    0  0.45473321927E+02  0.10901141465E+03  0.19787624512E+03  0.24371547905E+03  0.79315287389E+02 0.  0.
          6    2    1    2  501    0 -0.26801921661E+02 -0.78813395453E+02  0.17978183997E+04  0.18080320093E+04  0.17291285103E+03 0.  0.
         24    2    5    5    0    0 -0.81529159329E+02 -0.74981716153E+02  0.13106290797E+04  0.13177409980E+04  0.80146687344E+02 0.  0.
          5    1    5    5  501    0  0.54727237669E+02 -0.38316793001E+01  0.48718931992E+03  0.49029101129E+03  0.47000000000E+01 0. -1.
        -11    1    6    6    0    0 -0.20487167630E+02 -0.21433999359E+02  0.81219505302E+03  0.81273608540E+03  0.00000000000E+00 0.  1.
         12    1    6    6    0    0 -0.61041991699E+02 -0.53547716793E+02  0.49843402673E+03  0.50500491258E+03  0.00000000000E+00 0. -1.
         -5    1    3    3    0  503 -0.18671400266E+02 -0.30198019195E+02  0.13736693496E+03  0.14195881928E+03  0.47000000000E+01 0.  1.
         11    1    4    4    0    0  0.56120508933E+02  0.65854296137E+02  0.17133724537E+03  0.19194465737E+03  0.00000000000E+00 0. -1.
        -12    1    4    4    0    0 -0.10647187006E+02  0.43157118511E+02  0.26538999755E+02  0.51770821679E+02  0.00000000000E+00 0.  1.
</event>
<event>
12    1  0.8500177E-002  0.2089284E+03  0.7818608E-02  0.1143183E+00
         21   -1    0    0  503  502  0.00000000000E+00  0.00000000000E+00  0.36696493675E+03  0.36696493675E+03  0.00000000000E+00 0. -1.
         21   -1    0    0  501  503 -0.00000000000E+00 -0.00000000000E+00 -0.22007807693E+03  0.22007807693E+03  0.00000000000E+00 0. -1.
          6    2    1    2  501    0 -0.85814511920E+02 -0.78920898187E+02 -0.12727294138E+03  0.24464156234E+03  0.17337374020E+03 0.  0.
         24    2    3    3    0    0 -0.71943309450E+02 -0.11585410513E+03 -0.63580949563E+02  0.16957338097E+03  0.78195785917E+02 0.  0.
         -6    2    1    2    0  502  0.85814511920E+02  0.78920898187E+02  0.27415980119E+03  0.34240145134E+03  0.16876764696E+03 0.  0.
        -24    2    5    5    0    0 -0.20030009588E+01  0.50924407432E+02  0.68105576415E+02  0.11662246070E+03  0.79781711669E+02 0.  0.
          5    1    3    3  501    0 -0.13871202469E+02  0.36933206943E+02 -0.63691991814E+02  0.75068181370E+02  0.47000000000E+01 0. -1.
        -13    1    4    4    0    0 -0.69174738024E+02 -0.64419209380E+02 -0.96824383080E+01  0.95019621813E+02  0.00000000000E+00 0.  1.
         14    1    4    4    0    0 -0.27685714264E+01 -0.51434895750E+02 -0.53898511255E+02  0.74553759155E+02  0.00000000000E+00 0. -1.
         -5    1    5    5    0  502  0.87817512878E+02  0.27996490755E+02  0.20605422478E+03  0.22577899063E+03  0.47000000000E+01 0.  1.
         11    1    6    6    0    0 -0.58632868374E+01  0.36468693985E+02  0.85822019659E+02  0.93433199838E+02  0.00000000000E+00 0. -1.
        -12    1    6    6    0    0  0.38602858786E+01  0.14455713447E+02 -0.17716443244E+02  0.23189260867E+02  0.00000000000E+00 0.  1.
</event>
<event>
12    1  0.8500177E-002  0.1837098E+03  0.7818608E-02  0.1164264E+00
         21   -1    0    0  501  502  0.00000000000E+00  0.00000000000E+00  0.37883730264E+03  0.37883730264E+03  0.00000000000E+00 0.  1.
         21   -1    0    0  502  503 -0.00000000000E+00 -0.00000000000E+00 -0.95105371487E+02  0.95105371487E+02  0.00000000000E+00 0.  1.
         -6    2    1    2    0  503  0.50796363401E+02  0.39871008352E+02  0.82204176295E+02  0.20124739726E+03  0.17196807978E+03 0.  0.
        -24    2    3    3    0    0  0.51110881758E+02 -0.40011326754E+02  0.55945438493E+02  0.11702805450E+03  0.79702226757E+02 0.  0.
          6    2    1    2  501    0 -0.50796363401E+02 -0.39871008352E+02  0.20152775486E+03  0.27269527686E+03  0.17198636633E+03 0.  0.
         24    2    5    5    0    0  0.85909390432E+01 -0.72617822859E+02  0.15549487609E+03  0.19059581597E+03  0.82467909782E+02 0.  0.
          5    1    5    5  501    0 -0.59387302444E+02  0.32746814507E+02  0.46032878770E+02  0.82099460898E+02  0.47000000000E+01 0. -1.
        -11    1    6    6    0    0 -0.10668641266E+02 -0.57742059945E+02  0.36502431684E+02  0.69140385535E+02  0.00000000000E+00 0.  1.
         12    1    6    6    0    0  0.19259580309E+02 -0.14875762914E+02  0.11899244440E+03  0.12145543043E+03  0.00000000000E+00 0. -1.
         -5    1    3    3    0  503 -0.31451835700E+00  0.79882335105E+02  0.26258737802E+02  0.84219342758E+02  0.47000000000E+01 0.  1.
         13    1    4    4    0    0 -0.18148988647E+00 -0.45688861553E+02  0.45292384522E+02  0.64334322910E+02  0.00000000000E+00 0. -1.
        -14    1    4    4    0    0  0.51292371644E+02  0.56775347992E+01  0.10653053970E+02  0.52693731593E+02  0.00000000000E+00 0.  1.
</event>
<event>
12    1  0.8500177E-002  0.1887669E+03  0.7818608E-02  0.1159918E+00
         21   -1    0    0  503  502  0.00000000000E+00  0.00000000000E+00  0.30939264335E+03  0.30939264335E+03  0.00000000000E+00 0. -1.
         21   -1    0    0  501  503 -0.00000000000E+00 -0.00000000000E+00 -0.11939333065E+03  0.11939333065E+03  0.00000000000E+00 0. -1.
          6    2    1    2  501    0  0.67863399708E+02 -0.38540616271E+02  0.13907110908E+03  0.23326969068E+03  0.17024439811E+03 0.  0.
         24    2    3    3    0    0 -0.34347843067E+01  0.67510371353E+01  0.12951079254E+02  0.81404234325E+02  0.80009653584E+02 0.  0.
         -6    2    1    2    0  502 -0.67863399708E+02  0.38540616271E+02  0.50928203624E+02  0.19551628331E+03  0.17187819813E+03 0.  0.
        -24    2    5    5    0    0 -0.65639263287E+02  0.60980381436E+02 -0.22275432020E+02  0.11877416896E+03  0.74726090059E+02 0.  0.
          5    1    3    3  501    0  0.71298184015E+02 -0.45291653406E+02  0.12612002982E+03  0.15186545636E+03  0.47000000000E+01 0. -1.
        -11    1    4    4    0    0  0.10788120106E+02  0.20313324848E+02  0.41085598759E+02  0.47085466199E+02  0.00000000000E+00 0.  1.
         12    1    4    4    0    0 -0.14222904412E+02 -0.13562287712E+02 -0.28134519505E+02  0.34318768126E+02  0.00000000000E+00 0. -1.
         -5    1    5    5    0  502 -0.22241364212E+01 -0.22439765165E+02  0.73203635645E+02  0.76742114351E+02  0.47000000000E+01 0.  1.
         11    1    6    6    0    0 -0.31548561589E+01  0.10345686098E+02 -0.35641134074E+02  0.37246164585E+02  0.00000000000E+00 0. -1.
        -12    1    6    6    0    0 -0.62484407128E+02  0.50634695337E+02  0.13365702053E+02  0.81528004375E+02  0.00000000000E+00 0.  1.
</event>
<event>
12    1  0.8500177E-002  0.2138672E+03  0.7818608E-02  0.1138858E+00
         21   -1    0    0  503  502  0.00000000000E+00  0.00000000000E+00  0.10318714171E+03  0.10318714171E+03  0.00000000000E+00 0. -1.
         21   -1    0    0  501  503 -0.00000000000E+00 -0.00000000000E+00 -0.78052771757E+03  0.78052771757E+03  0.00000000000E+00 0. -1.
          6    2    1    2  501    0  0.18798452397E+02 -0.12466263975E+03 -0.62984279047E+03  0.66463678530E+03  0.17072187939E+03 0.  0.
         24    2    3    3    0    0  0.42425747376E+02 -0.14789015032E+02 -0.37489419247E+03  0.38597688489E+03  0.80086460222E+02 0.  0.
         -6    2    1    2    0  502 -0.18798452397E+02  0.12466263975E+03 -0.47497785387E+02  0.21907807399E+03  0.17275707605E+03 0.  0.
        -24    2    5    5    0    0 -0.70489627998E+01  0.15433951744E+03 -0.18312160237E+02  0.17557338125E+03  0.81365241173E+02 0.  0.
          5    1    3    3  501    0 -0.23627294979E+02 -0.10987362471E+03 -0.25494859800E+03  0.27865990041E+03  0.47000000000E+01 0. -1.
        -13    1    4    4    0    0  0.20908235991E+02 -0.12978010979E+02 -0.35723584141E+03  0.35808243393E+03  0.00000000000E+00 0.  1.
         14    1    4    4    0    0  0.21517511386E+02 -0.18110040527E+01 -0.17658351062E+02  0.27894450956E+02  0.00000000000E+00 0. -1.
         -5    1    5    5    0  502 -0.11749489597E+02 -0.29676877690E+02 -0.29185625149E+02  0.43504692742E+02  0.47000000000E+01 0.  1.
         13    1    6    6    0    0  0.91954022758E+01  0.10001544525E+03  0.25841891941E+02  0.10370847647E+03  0.00000000000E+00 0. -1.
        -14    1    6    6    0    0 -0.16244365076E+02  0.54324072182E+02 -0.44154052178E+02  0.71864904779E+02  0.00000000000E+00 0.  1.
</event>
<event>
12    1  0.8500177E-002  0.2958185E+03  0.7818608E-02  0.1087383E+00
         21   -1    0    0  501  502  0.00000000000E+00  0.00000000000E+00  0.56872105967E+02  0.56872105967E+02  0.00000000000E+00 0. -1.
         21   -1    0    0  502  503 -0.00000000000E+00 -0.00000000000E+00 -0.17017322965E+04  0.17017322965E+04  0.00000000000E+00 0.  1.
         -6    2    1    2    0  503 -0.23533386276E+03 -0.48078202655E+02 -0.10960475660E+04  0.11352659797E+04  0.17267031346E+03 0.  0.
        -24    2    3    3    0    0 -0.13951382271E+03  0.25538119566E+02 -0.78127367414E+03  0.79806346491E+03  0.80002736432E+02 0.  0.
          6    2    1    2  501    0  0.23533386276E+03  0.48078202655E+02 -0.54881262447E+03  0.62333842272E+03  0.17222645540E+03 0.  0.
         24    2    5    5    0    0  0.81229777733E+02 -0.35771076617E+02 -0.19869479846E+03  0.23169655476E+03  0.79535047866E+02 0.  0.
          5    1    5    5  501    0  0.15410408503E+03  0.83849279272E+02 -0.35011782600E+03  0.39164186796E+03  0.47000000000E+01 0. -1.
        -11    1    6    6    0    0  0.46671482544E+02  0.61188195362E+01 -0.15501671702E+03  0.16200570913E+03  0.00000000000E+00 0.  1.
         12    1    6    6    0    0  0.34558295189E+02 -0.41889896153E+02 -0.43678081443E+02  0.69690845630E+02  0.00000000000E+00 0. -1.
         -5    1    3    3    0  503 -0.95820040050E+02 -0.73616322221E+02 -0.31477389190E+03  0.33720251481E+03  0.47000000000E+01 0.  1.
         13    1    4    4    0    0 -0.16305716846E+02  0.60292861028E+01 -0.19419079236E+02  0.26063946960E+02  0.00000000000E+00 0. -1.
        -14    1    4    4    0    0 -0.12320810586E+03  0.19508833464E+02 -0.76185459491E+03  0.77199951795E+03  0.00000000000E+00 0.  1.
</event>
<event>
12    1  0.8500177E-002  0.2479204E+03  0.7818608E-02  0.1114672E+00
         21   -1    0    0  503  502  0.00000000000E+00  0.00000000000E+00  0.39581056592E+03  0.39581056592E+03  0.00000000000E+00 0.  1.
         21   -1    0    0  501  503 -0.00000000000E+00 -0.00000000000E+00 -0.16919939478E+03  0.16919939478E+03  0.00000000000E+00 0. -1.
          6    2    1    2  501    0  0.75318710614E+02 -0.16149237346E+03  0.31840178179E+02  0.24995660421E+03  0.17237114662E+03 0.  0.
         24    2    3    3    0    0  0.52004120540E+02 -0.37011737510E+02  0.62983981614E+02  0.11945363364E+03  0.78916990455E+02 0.  0.
         -6    2    1    2    0  502 -0.75318710614E+02  0.16149237346E+03  0.19477099296E+03  0.31505335648E+03  0.17195982926E+03 0.  0.
        -24    2    5    5    0    0 -0.99721081845E+00  0.39774735920E+02  0.23440089538E+02  0.92084217165E+02  0.79668319967E+02 0.  0.
          5    1    3    3  501    0  0.23314590074E+02 -0.12448063595E+03 -0.31143803435E+02  0.13050297057E+03  0.47000000000E+01 0. -1.
        -13    1    4    4    0    0 -0.10800448745E+02  0.13890911630E+02  0.23847429387E+02  0.29636244826E+02  0.00000000000E+00 0.  1.
         14    1    4    4    0    0  0.62804569286E+02 -0.50902649141E+02  0.39136552227E+02  0.89817388811E+02  0.00000000000E+00 0. -1.
         -5    1    5    5    0  502 -0.74321499796E+02  0.12171763754E+03  0.17133090343E+03  0.22296913932E+03  0.47000000000E+01 0.  1.
         11    1    6    6    0    0  0.33722829319E+02  0.36911808765E+02  0.27415337976E+02  0.57020273587E+02  0.00000000000E+00 0. -1.
        -12    1    6    6    0    0 -0.34720040138E+02  0.28629271548E+01 -0.39752484383E+01  0.35063943578E+02  0.00000000000E+00 0.  1.
</event>
<event>
12    1  0.8500177E-002  0.2441109E+03  0.7818608E-02  0.1117203E+00
         21   -1    0    0  501  502  0.00000000000E+00  0.00000000000E+00  0.39886230116E+03  0.39886230116E+03  0.00000000000E+00 0.  1.
         21   -1    0    0  502  503 -0.00000000000E+00 -0.00000000000E+00 -0.25761059446E+03  0.25761059446E+03  0.00000000000E+00 0. -1.
         -6    2    1    2    0  503  0.12704016444E+03 -0.11627893229E+03 -0.14260815597E+03  0.28208468681E+03  0.17197293656E+03 0.  0.
        -24    2    3    3    0    0  0.59802098085E+02 -0.10596052613E+02 -0.11395278098E+03  0.15350378177E+03  0.83003659317E+02 0.  0.
          6    2    1    2  501    0 -0.12704016444E+03  0.11627893229E+03  0.28385986267E+03  0.37438820882E+03  0.17300322480E+03 0.  0.
         24    2    5    5    0    0 -0.35403317521E+02  0.11444751475E+03  0.21958445324E+03  0.26234319973E+03  0.79088518879E+02 0.  0.
          5    1    5    5  501    0 -0.91636846914E+02  0.18314175393E+01  0.64275409437E+02  0.11204500908E+03  0.47000000000E+01 0. -1.
        -13    1    6    6    0    0 -0.46725636507E+02  0.26970836809E+02  0.10154749014E+03  0.11498958170E+03  0.00000000000E+00 0.  1.
         14    1    6    6    0    0  0.11322318986E+02  0.87476677941E+02  0.11803696310E+03  0.14735361804E+03  0.00000000000E+00 0. -1.
         -5    1    3    3    0  503  0.67238066351E+02 -0.10568287968E+03 -0.28655374994E+02  0.12858090503E+03  0.47000000000E+01 0.  1.
         13    1    4    4    0    0  0.16010318997E+02 -0.14936643786E+02  0.84198739314E+01  0.23459069014E+02  0.00000000000E+00 0. -1.
        -14    1    4    4    0    0  0.43791779088E+02  0.43405911737E+01 -0.12237265491E+03  0.13004471276E+03  0.00000000000E+00 0.  1.
</event>
<event>
12    1  0.8500177E-002  0.1772387E+03  0.7818608E-02  0.1170540E+00
         21   -1    0    0  503  502  0.00000000000E+00  0.00000000000E+00  0.21519764663E+03  0.21519764663E+03  0.00000000000E+00 0.  1.
         21   -1    0    0  501  503 -0.00000000000E+00 -0.00000000000E+00 -0.18953280866E+03  0.18953280866E+03  0.00000000000E+00 0.  1.
          6    2    1    2  501    0 -0.34710592309E+02  0.24936305042E+02 -0.84315162377E+02  0.19627176103E+03  0.17200846794E+03 0.  0.
         24    2    3    3    0    0 -0.51762564510E+02  0.58949490386E+02 -0.40062242689E+02  0.13772197508E+03  0.10586762314E+03 0.  0.
         -6    2    1    2    0  502  0.34710592309E+02 -0.24936305042E+02  0.10998000034E+03  0.20845869426E+03  0.17185104658E+03 0.  0.
        -24    2    5    5    0    0  0.89419361606E+02 -0.26490157397E+02  0.71018949097E+02  0.14111244411E+03  0.78558768340E+02 0.  0.
          5    1    3    3  501    0  0.17051972201E+02 -0.34013185344E+02 -0.44252919688E+02  0.58549785944E+02  0.47000000000E+01 0. -1.
        -13    1    4    4    0    0 -0.83789589838E+02  0.38380960435E+02 -0.37735282419E+02  0.99587875910E+02  0.00000000000E+00 0.  1.
         14    1    4    4    0    0  0.32027025327E+02  0.20568529950E+02 -0.23269602702E+01  0.38134099173E+02  0.00000000000E+00 0. -1.
         -5    1    5    5    0  502 -0.54708769296E+02  0.15538523551E+01  0.38961051247E+02  0.67346250150E+02  0.47000000000E+01 0.  1.
         13    1    6    6    0    0 -0.38763148237E+01 -0.26902799561E+02  0.25637732910E+02  0.37364151129E+02  0.00000000000E+00 0. -1.
        -14    1    6    6    0    0  0.93295676429E+02  0.41264216380E+00  0.45381216187E+02  0.10374829298E+03  0.00000000000E+00 0.  1.
</event>
<event>
12    1  0.8500177E-002  0.3943636E+03  0.7818608E-02  0.1045755E+00
         21   -1    0    0  501  502  0.00000000000E+00  0.00000000000E+00  0.68713616853E+03  0.68713616853E+03  0.00000000000E+00 0.  1.
         21   -1    0    0  502  503 -0.00000000000E+00 -0.00000000000E+00 -0.22768721248E+03  0.22768721248E+03  0.00000000000E+00 0. -1.
         -6    2    1    2    0  503 -0.23311824383E+03 -0.26728582277E+03  0.26547946059E+03  0.47539665870E+03  0.17244365006E+03 0.  0.
        -24    2    3    3    0    0 -0.86751760282E+02 -0.20186439322E+03  0.17824330005E+03  0.29281695376E+03  0.75471804216E+02 0.  0.
          6    2    1    2  501    0  0.23311824383E+03  0.26728582277E+03  0.19396949547E+03  0.43942672231E+03  0.17229582831E+03 0.  0.
         24    2    5    5    0    0  0.13400631869E+03  0.16019825200E+03  0.43837674468E+02  0.23001665762E+03  0.85818108150E+02 0.  0.
          5    1    5    5  501    0  0.99111925137E+02  0.10708757076E+03  0.15013182100E+03  0.20941006469E+03  0.47000000000E+01 0. -1.
        -13    1    6    6    0    0  0.74015977287E+01  0.68563151772E+01 -0.18965289273E+02  0.21481966948E+02  0.00000000000E+00 0.  1.
         14    1    6    6    0    0  0.12660472097E+03  0.15334193683E+03  0.62802963741E+02  0.20853469067E+03  0.00000000000E+00 0. -1.
         -5    1    3    3    0  503 -0.14636648355E+03 -0.65421429543E+02  0.87236160538E+02  0.18257970494E+03  0.47000000000E+01 0.  1.
         11    1    4    4    0    0 -0.23634967129E+02 -0.12636552389E+03  0.69435881640E+02  0.14611022879E+03  0.00000000000E+00 0. -1.
        -12    1    4    4    0    0 -0.63116793153E+02 -0.75498869334E+02  0.10880741841E+03  0.14670672496E+03  0.00000000000E+00 0.  1.
</event>
<event>
12    1  0.8500177E-002  0.2417246E+03  0.7818608E-02  0.1118789E+00
         21   -1    0    0  501  502  0.00000000000E+00  0.00000000000E+00  0.12943502485E+04  0.12943502485E+04  0.00000000000E+00 0.  1.
         21   -1    0    0  502  503 -0.00000000000E+00 -0.00000000000E+00 -0.14164796106E+03  0.14164796106E+03  0.00000000000E+00 0.  1.
         -6    2    1    2    0  503 -0.63876094344E+02 -0.15715586867E+03 -0.16455792643E+02  0.24228407478E+03  0.17219946949E+03 0.  0.
        -24    2    3    3    0    0 -0.56434792699E+02 -0.20540404453E+02  0.13666632524E+02  0.10211058038E+03  0.81443230163E+02 0.  0.
          6    2    1    2  501    0  0.63876094344E+02  0.15715586867E+03  0.11691580801E+04  0.11937141348E+04  0.17101080918E+03 0.  0.
         24    2    5    5    0    0  0.31734940975E+02  0.74957156345E+02  0.30506818073E+03  0.32511576602E+03  0.77511190502E+02 0.  0.
          5    1    5    5  501    0  0.32141153369E+02  0.82198712325E+02  0.86408989939E+03  0.86859836880E+03  0.47000000000E+01 0. -1.
        -13    1    6    6    0    0  0.50313239619E+02  0.46542325069E+02  0.25884059469E+03  0.26776120624E+03  0.00000000000E+00 0.  1.
         14    1    6    6    0    0 -0.18578298644E+02  0.28414831276E+02  0.46227586040E+02  0.57354559784E+02  0.00000000000E+00 0. -1.
         -5    1    3    3    0  503 -0.74413016452E+01 -0.13661546422E+03 -0.30122425167E+02  0.14017349440E+03  0.47000000000E+01 0.  1.
         11    1    4    4    0    0  0.37474661917E+01  0.10761791959E+02  0.30208791441E+02  0.32286696166E+02  0.00000000000E+00 0. -1.
        -12    1    4    4    0    0 -0.60182258890E+02 -0.31302196412E+02 -0.16542158917E+02  0.69823884216E+02  0.00000000000E+00 0.  1.
</event>
<event>
12    1  0.8500177E-002  0.1737637E+03  0.7818608E-02  0.1174956E+00
         21   -1    0    0  503  502  0.00000000000E+00  0.00000000000E+00  0.95610601307E+02  0.95610601307E+02  0.00000000000E+00 0. -1.
         21   -1    0    0  501  503 -0.00000000000E+00 -0.00000000000E+00 -0.32853850964E+03  0.32853850964E+03  0.00000000000E+00 0. -1.
          6    2    1    2  501    0 -0.33045355888E+01  0.31183545707E+02 -0.16950817433E+03  0.24274849105E+03  0.17091072307E+03 0.  0.
         24    2    3    3    0    0 -0.34090028442E+02 -0.18416333544E+02 -0.38497867619E+02  0.99243490932E+02  0.82860686099E+02 0.  0.
         -6    2    1    2    0  502  0.33045355888E+01 -0.31183545707E+02 -0.63419733999E+02  0.18140061990E+03  0.16703529196E+03 0.  0.
        -24    2    5    5    0    0 -0.28082528902E+02 -0.38389134793E+02 -0.10008993674E+03  0.13237142349E+03  0.72400581636E+02 0.  0.
          5    1    3    3  501    0  0.30785492854E+02  0.49599879251E+02 -0.13101030672E+03  0.14350500011E+03  0.47000000000E+01 0. -1.
        -13    1    4    4    0    0 -0.37381986017E+02 -0.41419669332E+02 -0.48516423784E+02  0.73938117794E+02  0.00000000000E+00 0.  1.
         14    1    4    4    0    0  0.32919575750E+01  0.23003335788E+02  0.10018556165E+02  0.25305373138E+02  0.00000000000E+00 0. -1.
         -5    1    5    5    0  502  0.31387064491E+02  0.72055890856E+01  0.36670202740E+02  0.49029196408E+02  0.47000000000E+01 0.  1.
         13    1    6    6    0    0  0.89729879870E+01 -0.47380041408E+02 -0.50633418714E+02  0.69922284916E+02  0.00000000000E+00 0. -1.
        -14    1    6    6    0    0 -0.37055516889E+02  0.89909066157E+01 -0.49456518025E+02  0.62449138576E+02  0.00000000000E+00 0.  1.
</event>
<event>
12    1  0.8500177E-002  0.1740072E+03  0.7818608E-02  0.1174296E+00
         21   -1    0    0  503  502  0.00000000000E+00  0.00000000000E+00  0.33035380168E+02  0.33035380168E+02  0.00000000000E+00 0. -1.
         21   -1    0    0  501  503 -0.00000000000E+00 -0.00000000000E+00 -0.90644089521E+03  0.90644089521E+03  0.00000000000E+00 0. -1.
          6    2    1    2  501    0  0.20165171037E+02  0.38938519538E+01 -0.41473939406E+03  0.44891220762E+03  0.17056262474E+03 0.  0.
         24    2    3    3    0    0 -0.55868432872E+02  0.30433269415E+02 -0.25280001529E+03  0.26799260669E+03  0.62166903029E+02 0.  0.
         -6    2    1    2    0  502 -0.20165171037E+02 -0.38938519538E+01 -0.45866612098E+03  0.49056406775E+03  0.17279090785E+03 0.  0.
        -24    2    5    5    0    0 -0.26536364845E+02  0.60317351818E+02 -0.19548834821E+03  0.21955059784E+03  0.75129282800E+02 0.  0.
          5    1    3    3  501    0  0.76033603910E+02 -0.26539417461E+02 -0.16193937877E+03  0.18091960093E+03  0.47000000000E+01 0. -1.
        -11    1    4    4    0    0 -0.36204876918E+02 -0.15176764686E+02 -0.10844950078E+03  0.11533612408E+03  0.00000000000E+00 0.  1.
         12    1    4    4    0    0 -0.19663555955E+02  0.45610034101E+02 -0.14435051451E+03  0.15265648261E+03  0.00000000000E+00 0. -1.
         -5    1    5    5    0  502  0.63711938073E+01 -0.64211203772E+02 -0.26317777276E+03  0.27101346992E+03  0.47000000000E+01 0.  1.
         13    1    6    6    0    0 -0.27483258082E+01  0.27665349869E+02 -0.97375505699E+01  0.29457507859E+02  0.00000000000E+00 0. -1.
        -14    1    6    6    0    0 -0.23788039036E+02  0.32652001949E+02 -0.18575079764E+03  0.19009308998E+03  0.00000000000E+00 0.  1.
</event>
<event>
12    1  0.8500177E-002  0.1784476E+03  0.7818608E-02  0.1169412E+00
         21   -1    0    0  501  502  0.00000000000E+00  0.00000000000E+00  0.16136183141E+03  0.16136183141E+03  0.00000000000E+00 0. -1.
         21   -1    0    0  502  503 -0.00000000000E+00 -0.00000000000E+00 -0.25804212429E+03  0.25804212429E+03  0.00000000000E+00 0. -1.
         -6    2    1    2    0  503  0.97153149334E+01 -0.47115433520E+02 -0.15037568677E+03  0.23305284702E+03  0.17142500084E+03 0.  0.
        -24    2    3    3    0    0 -0.23676993537E+01 -0.11269921587E+02 -0.17166986724E+03  0.18939013889E+03  0.79154685642E+02 0.  0.
          6    2    1    2  501    0 -0.97153149334E+01  0.47115433520E+02  0.53695393898E+02  0.18635110868E+03  0.17184088268E+03 0.  0.
         24    2    5    5    0    0  0.11609695883E+01 -0.36252363451E+02  0.52546161539E+02  0.10213772570E+03  0.79720977248E+02 0.  0.
          5    1    5    5  501    0 -0.10876284522E+02  0.83367796972E+02  0.11492323589E+01  0.84213382974E+02  0.47000000000E+01 0. -1.
        -13    1    6    6    0    0  0.20136711356E+02  0.25418357926E+01  0.55256624626E+02  0.58866311575E+02  0.00000000000E+00 0.  1.
         14    1    6    6    0    0 -0.18975741767E+02 -0.38794199244E+02 -0.27104630862E+01  0.43271414129E+02  0.00000000000E+00 0. -1.
         -5    1    3    3    0  503  0.12083014287E+02 -0.35845511933E+02  0.21294180462E+02  0.43662708134E+02  0.47000000000E+01 0.  1.
         11    1    4    4    0    0  0.57505749508E+01 -0.44705329534E+02 -0.10776356136E+03  0.11681019116E+03  0.00000000000E+00 0. -1.
        -12    1    4    4    0    0 -0.81182743045E+01  0.33435407947E+02 -0.63906305876E+02  0.72579947733E+02  0.00000000000E+00 0.  1.
</event>
<event>
12    1  0.8500177E-002  0.1874913E+03  0.7818608E-02  0.1160882E+00
         21   -1    0    0  501  502  0.00000000000E+00  0.00000000000E+00  0.59968737521E+03  0.59968737521E+03  0.00000000000E+00 0. -1.
         21   -1    0    0  502  503 -0.00000000000E+00 -0.00000000000E+00 -0.59808095991E+02  0.59808095991E+02  0.00000000000E+00 0. -1.
         -6    2    1    2    0  503  0.29271675275E+02  0.63927924924E+02  0.31955098031E+03  0.37019018096E+03  0.17315984091E+03 0.  0.
        -24    2    3    3    0    0  0.43492576372E+01 -0.17474712504E+02  0.75786628781E+02  0.11194482213E+03  0.80397440760E+02 0.  0.
          6    2    1    2  501    0 -0.29271675275E+02 -0.63927924924E+02  0.22032829892E+03  0.28930529025E+03  0.17380846096E+03 0.  0.
         24    2    5    5    0    0 -0.67008123128E+02  0.68249475530E+01  0.10204388651E+03  0.14632521933E+03  0.80383123629E+02 0.  0.
          5    1    5    5  501    0  0.37736447853E+02 -0.70752872477E+02  0.11828441241E+03  0.14298007091E+03  0.47000000000E+01 0. -1.
        -11    1    6    6    0    0  0.58852019725E+01  0.20397858053E+02  0.13435561243E+01  0.21272361375E+02  0.00000000000E+00 0.  1.
         12    1    6    6    0    0 -0.72893325100E+02 -0.13572910500E+02  0.10070033039E+03  0.12505285796E+03  0.00000000000E+00 0. -1.
         -5    1    3    3    0  503  0.24922417637E+02  0.81402637428E+02  0.24376435153E+03  0.25824535883E+03  0.47000000000E+01 0.  1.
         11    1    4    4    0    0  0.16264902507E+00  0.32299018467E+02  0.32981868486E+02  0.46163369651E+02  0.00000000000E+00 0. -1.
        -12    1    4    4    0    0  0.41866086121E+01 -0.49773730971E+02  0.42804760295E+02  0.65781452480E+02  0.00000000000E+00 0.  1.
</event>
<event>
12    1  0.8500177E-002  0.2405042E+03  0.7818608E-02  0.1119824E+00
         21   -1    0    0  503  502  0.00000000000E+00  0.00000000000E+00  0.20523922837E+03  0.20523922837E+03  0.00000000000E+00 0. -1.
         21   -1    0    0  501  503 -0.00000000000E+00 -0.00000000000E+00 -0.47369938529E+03  0.47369938529E+03  0.00000000000E+00 0. -1.
          6    2    1    2  501    0  0.15546583988E+03  0.53759180219E+02 -0.35208379261E+03  0.42638630862E+03  0.17544973735E+03 0.  0.
         24    2    3    3    0    0  0.51385979844E+02 -0.15907050313E+02 -0.77162227327E+02  0.12424402757E+03  0.81172753357E+02 0.  0.
         -6    2    1    2    0  502 -0.15546583988E+03 -0.53759180219E+02  0.83623635694E+02  0.25255230504E+03  0.17242412101E+03 0.  0.
        -24    2    5    5    0    0 -0.12133817538E+03 -0.42655844853E+02 -0.10681114005E+02  0.15154014064E+03  0.79422000251E+02 0.  0.
          5    1    3    3  501    0  0.10407986004E+03  0.69666230532E+02 -0.27492156528E+03  0.30214228105E+03  0.47000000000E+01 0. -1.
        -11    1    4    4    0    0  0.22177986551E+01 -0.76451141052E+01 -0.73848762186E+02  0.74276551326E+02  0.00000000000E+00 0.  1.
         12    1    4    4    0    0  0.49168181189E+02 -0.82619362074E+01 -0.33134651416E+01  0.49967476248E+02  0.00000000000E+00 0. -1.
         -5    1    5    5    0  502 -0.34127664501E+02 -0.11103335366E+02  0.94304749699E+02  0.10101216440E+03  0.47000000000E+01 0.  1.
         13    1    6    6    0    0 -0.92990743356E+02  0.74512294732E+01 -0.19289212823E+01  0.93308734360E+02  0.00000000000E+00 0. -1.
        -14    1    6    6    0    0 -0.28347432026E+02 -0.50107074326E+02 -0.87521927227E+01  0.58231406281E+02  0.00000000000E+00 0.  1.
</event>
<event>
12    1  0.8500177E-002  0.1855452E+03  0.7818608E-02  0.1162783E+00
         21   -1    0    0  503  502  0.00000000000E+00  0.00000000000E+00  0.75887897687E+02  0.75887897687E+02  0.00000000000E+00 0.  1.
         21   -1    0    0  501  503 -0.00000000000E+00 -0.00000000000E+00 -0.45189821029E+03  0.45189821029E+03  0.00000000000E+00 0. -1.
          6    2    1    2  501    0  0.60337631343E+02 -0.32261399121E+02 -0.19832886623E+03  0.27088592132E+03  0.17135756639E+03 0.  0.
         24    2    3    3    0    0 -0.21979896013E+02 -0.81849082154E+01 -0.15428701639E+03  0.17435806388E+03  0.77756944785E+02 0.  0.
         -6    2    1    2    0  502 -0.60337631343E+02  0.32261399121E+02 -0.17768144637E+03  0.25690018666E+03  0.17246907517E+03 0.  0.
        -24    2    5    5    0    0 -0.72377611207E+02  0.43375660529E+02 -0.19930403974E+03  0.22936630814E+03  0.75939690035E+02 0.  0.
          5    1    3    3  501    0  0.82317527356E+02 -0.24076490906E+02 -0.44041849845E+02  0.96527857440E+02  0.47000000000E+01 0. -1.
        -11    1    4    4    0    0 -0.39598282887E+02 -0.18318443331E+02 -0.43099890488E+02  0.61328540940E+02  0.00000000000E+00 0.  1.
         12    1    4    4    0    0  0.17618386875E+02  0.10133535115E+02 -0.11118712590E+03  0.11302952294E+03  0.00000000000E+00 0. -1.
         -5    1    5    5    0  502  0.12039979864E+02 -0.11114261408E+02  0.21622593375E+02  0.27533878514E+02  0.47000000000E+01 0.  1.
         13    1    6    6    0    0 -0.62809619791E+02  0.28435555755E+02 -0.67892889842E+02  0.96762976703E+02  0.00000000000E+00 0. -1.
        -14    1    6    6    0    0 -0.95679914161E+01  0.14940104775E+02 -0.13141114990E+03  0.13260333144E+03  0.00000000000E+00 0.  1.
</event>
<event>
12    1  0.8500177E-002  0.1779633E+03  0.7818608E-02  0.1170537E+00
         21   -1    0    0  501  502  0.00000000000E+00  0.00000000000E+00  0.24296675673E+03  0.24296675673E+03  0.00000000000E+00 0. -1.
         21   -1    0    0  502  503 -0.00000000000E+00 -0.00000000000E+00 -0.14806747448E+03  0.14806747448E+03  0.00000000000E+00 0. -1.
         -6    2    1    2    0  503 -0.10139056307E+02  0.37012979878E+02 -0.24609044859E+02  0.17666730054E+03  0.17068382714E+03 0.  0.
        -24    2    3    3    0    0  0.51733229171E+02  0.56377092297E+02 -0.23859258678E+02  0.11166114130E+03  0.77744727889E+02 0.  0.
          6    2    1    2  501    0  0.10139056307E+02 -0.37012979878E+02  0.11950832711E+03  0.21436693067E+03  0.17377623420E+03 0.  0.
         24    2    5    5    0    0  0.46399296168E+02  0.26409023763E+02  0.10303401439E+03  0.13932928332E+03  0.77112319684E+02 0.  0.
          5    1    5    5  501    0 -0.36260239860E+02 -0.63422003641E+02  0.16474312717E+02  0.75037647351E+02  0.47000000000E+01 0. -1.
        -11    1    6    6    0    0  0.41797833906E+02 -0.12454987815E+02  0.20932093954E+02  0.48377042055E+02  0.00000000000E+00 0.  1.
         12    1    6    6    0    0  0.46014622615E+01  0.38864011578E+02  0.82101920439E+02  0.90952241263E+02  0.00000000000E+00 0. -1.
         -5    1    3    3    0  503 -0.61872285478E+02 -0.19364112419E+02 -0.74978618068E+00  0.65006159242E+02  0.47000000000E+01 0.  1.
         13    1    4    4    0    0 -0.81192062379E+00  0.51632503587E+02  0.43722920903E+01  0.51823658496E+02  0.00000000000E+00 0. -1.
        -14    1    4    4    0    0  0.52545149795E+02  0.47445887092E+01 -0.28231550769E+02  0.59837482800E+02  0.00000000000E+00 0.  1.
</event>
<event>
12    1  0.8500177E-002  0.2022072E+03  0.7818608E-02  0.1147996E+00
         21   -1    0    0  503  502  0.00000000000E+00  0.00000000000E+00  0.14046663403E+03  0.14046663403E+03  0.00000000000E+00 0. -1.
         21   -1    0    0  501  503 -0.00000000000E+00 -0.00000000000E+00 -0.40387464822E+03  0.40387464822E+03  0.00000000000E+00 0. -1.
          6    2    1    2  501    0  0.34549924736E+02 -0.99480090536E+02 -0.27611882565E+03  0.34224168656E+03  0.17262033608E+03 0.  0.
         24    2    3    3    0    0 -0.97095940163E+01 -0.85915108387E+02 -0.27077648576E+03  0.29540639712E+03  0.80432283036E+02 0.  0.
         -6    2    1    2    0  502 -0.34549924736E+02  0.99480090536E+02  0.12710811449E+02  0.20209959569E+03  0.17202527762E+03 0.  0.
        -24    2    5    5    0    0 -0.26710159453E+02  0.50405754920E+02 -0.59088626619E+02  0.11465245942E+03  0.79997174376E+02 0.  0.
          5    1    3    3  501    0  0.44259518753E+02 -0.13564982148E+02 -0.53423398848E+01  0.46835289434E+02  0.47000000000E+01 0. -1.
        -13    1    4    4    0    0 -0.82955920992E+00  0.15794686629E+02 -0.42118752012E+02  0.44990549732E+02  0.00000000000E+00 0.  1.
         14    1    4    4    0    0 -0.88800348064E+01 -0.10170979502E+03 -0.22865773375E+03  0.25041584739E+03  0.00000000000E+00 0. -1.
         -5    1    5    5    0  502 -0.78397652837E+01  0.49074335615E+02  0.71799438068E+02  0.87447136275E+02  0.47000000000E+01 0.  1.
         13    1    6    6    0    0 -0.18205006012E+02  0.67920101809E+02 -0.23597460014E+02  0.74171440546E+02  0.00000000000E+00 0. -1.
        -14    1    6    6    0    0 -0.85051534407E+01 -0.17514346889E+02 -0.35491166605E+02  0.40481018873E+02  0.00000000000E+00 0.  1.
</event>
<event>
12    1  0.8500177E-002  0.2015006E+03  0.7818608E-02  0.1149583E+00
         21   -1    0    0  503  502  0.00000000000E+00  0.00000000000E+00  0.30264482369E+03  0.30264482369E+03  0.00000000000E+00 0. -1.
         21   -1    0    0  501  503 -0.00000000000E+00 -0.00000000000E+00 -0.15362134518E+03  0.15362134518E+03  0.00000000000E+00 0. -1.
          6    2    1    2  501    0 -0.92706117955E+02 -0.48604488586E+02 -0.12747675916E+02  0.20190338509E+03  0.17217913071E+03 0.  0.
         24    2    3    3    0    0 -0.91336172105E+02 -0.89586891419E+02  0.15844323402E+02  0.15169356017E+03  0.79948647045E+02 0.  0.
         -6    2    1    2    0  502  0.92706117955E+02  0.48604488586E+02  0.16177115442E+03  0.25436278378E+03  0.16605330093E+03 0.  0.
        -24    2    5    5    0    0  0.12116167437E+03  0.64847423764E+02  0.15245862076E+03  0.21997725023E+03  0.79126606568E+02 0.  0.
          5    1    3    3  501    0 -0.13699458501E+01  0.40982402833E+02 -0.28591999318E+02  0.50209824921E+02  0.47000000000E+01 0. -1.
        -13    1    4    4    0    0 -0.10560142809E+02  0.20959780347E+01  0.26928929736E+02  0.29001327501E+02  0.00000000000E+00 0.  1.
         14    1    4    4    0    0 -0.80776029296E+02 -0.91682869454E+02 -0.11084606334E+02  0.12269223267E+03  0.00000000000E+00 0. -1.
         -5    1    5    5    0  502 -0.28455556419E+02 -0.16242935178E+02  0.93125336609E+01  0.34385533550E+02  0.47000000000E+01 0.  1.
         13    1    6    6    0    0  0.99957171340E+01  0.44302991909E+02  0.40019011019E+02  0.60532558975E+02  0.00000000000E+00 0. -1.
        -14    1    6    6    0    0  0.11116595724E+03  0.20544431855E+02  0.11243960974E+03  0.15944469125E+03  0.00000000000E+00 0.  1.
</event>
<event>
12    1  0.8500177E-002  0.2712912E+03  0.7818608E-02  0.1100933E+00
         21   -1    0    0  501  502  0.00000000000E+00  0.00000000000E+00  0.59840679305E+03  0.59840679305E+03  0.00000000000E+00 0. -1.
         21   -1    0    0  502  503 -0.00000000000E+00 -0.00000000000E+00 -0.29025555648E+03  0.29025555648E+03  0.00000000000E+00 0. -1.
         -6    2    1    2    0  503 -0.55080731582E+02  0.20061860327E+03 -0.18479128163E+03  0.32599795024E+03  0.16983855517E+03 0.  0.
        -24    2    3    3    0    0  0.10379086555E+02  0.17797457769E+03 -0.17122663811E+03  0.25526020050E+03  0.63690914693E+02 0.  0.
          6    2    1    2  501    0  0.55080731582E+02 -0.20061860327E+03  0.49294251819E+03  0.56266439929E+03  0.17411831903E+03 0.  0.
         24    2    5    5    0    0  0.98029986363E+02 -0.92171273931E+02  0.29573120073E+03  0.33349229047E+03  0.75198023599E+02 0.  0.
          5    1    5    5  501    0 -0.42949254782E+02 -0.10844732934E+03  0.19721131746E+03  0.22917210882E+03  0.47000000000E+01 0. -1.
        -11    1    6    6    0    0 -0.22404250653E+01 -0.41317930273E+02  0.70092961998E+02  0.81395418717E+02  0.00000000000E+00 0.  1.
         12    1    6    6    0    0  0.10027041143E+03 -0.50853343658E+02  0.22563823873E+03  0.25209687175E+03  0.00000000000E+00 0. -1.
         -5    1    3    3    0  503 -0.65459818137E+02  0.22644025581E+02 -0.13564643515E+02  0.70737749743E+02  0.47000000000E+01 0.  1.
         13    1    4    4    0    0 -0.20927410380E+02  0.11475310267E+03 -0.12469403579E+03  0.17074786570E+03  0.00000000000E+00 0. -1.
        -14    1    4    4    0    0  0.31306496935E+02  0.63221475021E+02 -0.46532602321E+02  0.84512334798E+02  0.00000000000E+00 0.  1.
</event>
<event>
12    1  0.8500177E-002  0.1834902E+03  0.7818608E-02  0.1165239E+00
         21   -1    0    0  503  502  0.00000000000E+00  0.00000000000E+00  0.75059403410E+02  0.75059403410E+02  0.00000000000E+00 0.  1.
         21   -1    0    0  501  503 -0.00000000000E+00 -0.00000000000E+00 -0.45154087303E+03  0.45154087303E+03  0.00000000000E+00 0.  1.
          6    2    1    2  501    0  0.55186668663E+02  0.14135833016E+02 -0.23071986420E+03  0.29478859108E+03  0.17442266918E+03 0.  0.
         24    2    3    3    0    0  0.44603068122E+02 -0.18723676561E+02 -0.24095693721E+03  0.25847540293E+03  0.80057970107E+02 0.  0.
         -6    2    1    2    0  502 -0.55186668663E+02 -0.14135833016E+02 -0.14576160542E+03  0.23181168536E+03  0.17101117414E+03 0.  0.
        -24    2    5    5    0    0 -0.30102824726E+02 -0.18776358898E+02 -0.70343892426E+01  0.90680313172E+02  0.83154704347E+02 0.  0.
          5    1    3    3  501    0  0.10583600542E+02  0.32859509578E+02  0.10237073012E+02  0.36313188155E+02  0.47000000000E+01 0. -1.
        -11    1    4    4    0    0  0.68069046692E+02 -0.13034827650E+02 -0.18344617193E+03  0.19610150394E+03  0.00000000000E+00 0.  1.
         12    1    4    4    0    0 -0.23465978571E+02 -0.56888489116E+01 -0.57510765283E+02  0.62373898994E+02  0.00000000000E+00 0. -1.
         -5    1    5    5    0  502 -0.25083843938E+02  0.46405258819E+01 -0.13872721618E+03  0.14113137219E+03  0.47000000000E+01 0.  1.
         13    1    6    6    0    0  0.14093214599E+02 -0.18774153310E+01 -0.33551699491E+02  0.36439812359E+02  0.00000000000E+00 0. -1.
        -14    1    6    6    0    0 -0.44196039324E+02 -0.16898943567E+02  0.26517310248E+02  0.54240500813E+02  0.00000000000E+00 0.  1.
</event>
<event>
12    1  0.8500177E-002  0.2032824E+03  0.7818608E-02  0.1147316E+00
         21   -1    0    0  503  502  0.00000000000E+00  0.00000000000E+00  0.87810464435E+02  0.87810464435E+02  0.00000000000E+00 0.  1.
         21   -1    0    0  501  503 -0.00000000000E+00 -0.00000000000E+00 -0.50051405800E+03  0.50051405800E+03  0.00000000000E+00 0. -1.
          6    2    1    2  501    0  0.52957816540E+02  0.94363945469E+02 -0.28311580475E+03  0.34853738236E+03  0.17208911489E+03 0.  0.
         24    2    3    3    0    0  0.42905257292E+02  0.13717838167E+02 -0.23867048955E+03  0.25578866477E+03  0.80219687467E+02 0.  0.
         -6    2    1    2    0  502 -0.52957816540E+02 -0.94363945469E+02 -0.12958778881E+03  0.23978714008E+03  0.17028151103E+03 0.  0.
        -24    2    5    5    0    0 -0.10270701316E+02  0.13574531459E+02 -0.80778802100E+02  0.11378193466E+03  0.78302992135E+02 0.  0.
          5    1    3    3  501    0  0.10052559248E+02  0.80646107301E+02 -0.44445315206E+02  0.92748717587E+02  0.47000000000E+01 0. -1.
        -13    1    4    4    0    0 -0.10522827933E+02  0.26461228719E+01 -0.15815468229E+03  0.15852645017E+03  0.00000000000E+00 0.  1.
         14    1    4    4    0    0  0.53428085225E+02  0.11071715295E+02 -0.80515807259E+02  0.97262214601E+02  0.00000000000E+00 0. -1.
         -5    1    5    5    0  502 -0.42687115223E+02 -0.10793847693E+03 -0.48808986713E+02  0.12600520541E+03  0.47000000000E+01 0.  1.
         13    1    6    6    0    0  0.10074944145E+02  0.39730401248E+02 -0.22542565779E+02  0.46777949450E+02  0.00000000000E+00 0. -1.
        -14    1    6    6    0    0 -0.20345645461E+02 -0.26155869789E+02 -0.58236236321E+02  0.67003985214E+02  0.00000000000E+00 0.  1.
</event>
<event>
12    1  0.8500177E-002  0.2172646E+03  0.7818608E-02  0.1136636E+00
         21   -1    0    0  501  502  0.00000000000E+00  0.00000000000E+00  0.41413573969E+02  0.41413573969E+02  0.00000000000E+00 0.  1.
         21   -1    0    0  502  503 -0.00000000000E+00 -0.00000000000E+00 -0.11212454244E+04  0.11212454244E+04  0.00000000000E+00 0.  1.
         -6    2    1    2    0  503 -0.12706236648E+03  0.39980567749E+02 -0.55642342609E+03  0.59733654026E+03  0.17164096963E+03 0.  0.
        -24    2    3    3    0    0 -0.81320084883E+02 -0.41791300643E+02 -0.26559234343E+03  0.29174890401E+03  0.78858487748E+02 0.  0.
          6    2    1    2  501    0  0.12706236648E+03 -0.39980567749E+02 -0.52340842438E+03  0.56532245814E+03  0.16700243172E+03 0.  0.
         24    2    5    5    0    0  0.14655949530E+03 -0.59654822752E+02 -0.49327341843E+03  0.52412266536E+03  0.79671321542E+02 0.  0.
          5    1    5    5  501    0 -0.19497128815E+02  0.19674255003E+02 -0.30135005950E+02  0.41199792785E+02  0.47000000000E+01 0. -1.
        -13    1    6    6    0    0  0.49041293485E+02 -0.30931837162E+02 -0.81722800960E+02  0.10020201202E+03  0.00000000000E+00 0.  1.
         14    1    6    6    0    0  0.97518201812E+02 -0.28722985590E+02 -0.41155061747E+03  0.42392065333E+03  0.00000000000E+00 0. -1.
         -5    1    3    3    0  503 -0.45742281598E+02  0.81771868392E+02 -0.29083108266E+03  0.30558763625E+03  0.47000000000E+01 0.  1.
         11    1    4    4    0    0 -0.48641548368E+02 -0.47513975610E+02 -0.88657358218E+02  0.11173050287E+03  0.00000000000E+00 0. -1.
        -12    1    4    4    0    0 -0.32678536516E+02  0.57226749679E+01 -0.17693498521E+03  0.18001840114E+03  0.00000000000E+00 0.  1.
</event>
<event>
12    1  0.8500177E-002  0.1726619E+03  0.7818608E-02  0.1175198E+00
         21   -1    0    0  501  502  0.00000000000E+00  0.00000000000E+00  0.63343674812E+02  0.63343674812E+02  0.00000000000E+00 0.  1.
         21   -1    0    0  502  503 -0.00000000000E+00 -0.00000000000E+00 -0.62402775362E+03  0.62402775362E+03  0.00000000000E+00 0.  1.
         -6    2    1    2    0  503 -0.17629649178E+02 -0.11523508392E+02 -0.45155116742E+03  0.48343623984E+03  0.17137253401E+03 0.  0.
        -24    2    3    3    0    0 -0.54262656184E+02  0.16197014322E+02 -0.15297551590E+03  0.18131058011E+03  0.79153261886E+02 0.  0.
          6    2    1    2  501    0  0.17629649178E+02  0.11523508392E+02 -0.10913291139E+03  0.20393518860E+03  0.17098530061E+03 0.  0.
         24    2    5    5    0    0  0.51557619986E+02  0.53379464752E+02 -0.42161730152E+02  0.11785233663E+03  0.81265037528E+02 0.  0.
          5    1    5    5  501    0 -0.33927970808E+02 -0.41855956361E+02 -0.66971181240E+02  0.86082851967E+02  0.47000000000E+01 0. -1.
        -13    1    6    6    0    0 -0.21861868956E+02  0.89336122905E+01 -0.14346993711E+02  0.27633077486E+02  0.00000000000E+00 0.  1.
         14    1    6    6    0    0  0.73419488942E+02  0.44445852462E+02 -0.27814736441E+02  0.90219259146E+02  0.00000000000E+00 0. -1.
         -5    1    3    3    0  503  0.36633007006E+02 -0.27720522714E+02 -0.29857565152E+03  0.30212565973E+03  0.47000000000E+01 0.  1.
         11    1    4    4    0    0 -0.26764298697E+02  0.47979129133E+02 -0.94299114678E+02  0.10913591318E+03  0.00000000000E+00 0. -1.
        -12    1    4    4    0    0 -0.27498357487E+02 -0.31782114810E+02 -0.58676401218E+02  0.72174666928E+02  0.00000000000E+00 0.  1.
</event>
<event>
12    1  0.8500177E-002  0.2171286E+03  0.7818608E-02  0.1136238E+00
         21   -1    0    0  503  502  0.00000000000E+00  0.00000000000E+00  0.11600983329E+03  0.11600983329E+03  0.00000000000E+00 0. -1.
         21   -1    0    0  501  503 -0.00000000000E+00 -0.00000000000E+00 -0.63234438079E+03  0.63234438079E+03  0.00000000000E+00 0. -1.
          6    2    1    2  501    0  0.17723573808E+02  0.13275734577E+03 -0.48239793900E+03  0.52858956312E+03  0.16958925897E+03 0.  0.
         24    2    3    3    0    0 -0.51472126661E+02  0.99969519851E+02 -0.27734431303E+03  0.30965540402E+03  0.79519284144E+02 0.  0.
         -6    2    1    2    0  502 -0.17723573808E+02 -0.13275734577E+03 -0.33936608501E+02  0.21976465097E+03  0.17089812900E+03 0.  0.
        -24    2    5    5    0    0  0.26987851762E+02 -0.11627645445E+03  0.22938810814E+02  0.14541658659E+03  0.79820026371E+02 0.  0.
          5    1    3    3  501    0  0.69195700470E+02  0.32787825920E+02 -0.20505362597E+03  0.21893415909E+03  0.47000000000E+01 0. -1.
        -11    1    4    4    0    0 -0.30130557301E+02 -0.19683675870E+01 -0.37288371265E+02  0.47980700139E+02  0.00000000000E+00 0.  1.
         12    1    4    4    0    0 -0.21341569360E+02  0.10193788744E+03 -0.24005594176E+03  0.26167470388E+03  0.00000000000E+00 0. -1.
         -5    1    5    5    0  502 -0.44711425570E+02 -0.16480891316E+02 -0.56875419315E+02  0.74348064382E+02  0.47000000000E+01 0.  1.
         11    1    6    6    0    0 -0.25207984729E+02 -0.46407654971E+02  0.24435332568E+02  0.58191050959E+02  0.00000000000E+00 0. -1.
        -12    1    6    6    0    0  0.52195836491E+02 -0.69868799484E+02 -0.14965217541E+01  0.87225535629E+02  0.00000000000E+00 0.  1.
</event>
<event>
12    1  0.8500177E-002  0.1770147E+03  0.7818608E-02  0.1171785E+00
         21   -1    0    0  501  502  0.00000000000E+00  0.00000000000E+00  0.58542695557E+02  0.58542695557E+02  0.00000000000E+00 0.  1.
         21   -1    0    0  502  503 -0.00000000000E+00 -0.00000000000E+00 -0.13114977566E+04  0.13114977566E+04  0.00000000000E+00 0.  1.
         -6    2    1    2    0  503  0.43174153791E+02  0.14028242520E+02 -0.11608012686E+04  0.11742205081E+04  0.17109476114E+03 0.  0.
        -24    2    3    3    0    0 -0.23492788582E+02 -0.39777882575E+02 -0.63406816247E+03  0.64054510544E+03  0.78239417064E+02 0.  0.
          6    2    1    2  501    0 -0.43174153791E+02 -0.14028242520E+02 -0.92153792406E+02  0.19581994403E+03  0.16671031726E+03 0.  0.
         24    2    5    5    0    0 -0.87743140339E+01 -0.12956097957E+02  0.17105998549E+02  0.81171392410E+02  0.77790299513E+02 0.  0.
          5    1    5    5  501    0 -0.34399839757E+02 -0.10721445625E+01 -0.10925979095E+03  0.11464855162E+03  0.47000000000E+01 0. -1.
        -13    1    6    6    0    0 -0.22538373861E+02  0.28106704601E+02  0.84985410943E+01  0.37016082188E+02  0.00000000000E+00 0.  1.
         14    1    6    6    0    0  0.13764059827E+02 -0.41062802559E+02  0.86074574547E+01  0.44155310221E+02  0.00000000000E+00 0. -1.
         -5    1    3    3    0  503  0.66666942373E+02  0.53806125095E+02 -0.52673310616E+03  0.53367540268E+03  0.47000000000E+01 0.  1.
         13    1    4    4    0    0  0.13031457433E+02 -0.21452320185E+02 -0.60190395094E+02  0.65214297403E+02  0.00000000000E+00 0. -1.
        -14    1    4    4    0    0 -0.36524246015E+02 -0.18325562390E+02 -0.57387776737E+03  0.57533080803E+03  0.00000000000E+00 0.  1.
</event>
<event>
12    1  0.8500177E-002  0.2981879E+03  0.7818608E-02  0.1086293E+00
         21   -1    0    0  503  502  0.00000000000E+00  0.00000000000E+00  0.30597089548E+03  0.30597089548E+03  0.00000000000E+00 0. -1.
         21   -1    0    0  501  503 -0.00000000000E+00 -0.00000000000E+00 -0.34355660167E+03  0.34355660167E+03  0.00000000000E+00 0. -1.
          6    2    1    2  501    0  0.10546645277E+03 -0.21825574076E+03 -0.14758388820E+03  0.33169797091E+03  0.17170847043E+03 0.  0.
         24    2    3    3    0    0  0.10761615710E+03 -0.10893537769E+03 -0.38806605309E+02  0.17739259095E+03  0.80709509539E+02 0.  0.
         -6    2    1    2    0  502 -0.10546645277E+03  0.21825574076E+03  0.10999818202E+03  0.31782952623E+03  0.17365847709E+03 0.  0.
        -24    2    5    5    0    0 -0.13195625179E+03  0.12931030912E+03  0.60177898172E+02  0.21239163008E+03  0.85762559838E+02 0.  0.
          5    1    3    3  501    0 -0.21497043265E+01 -0.10932036307E+03 -0.10877728289E+03  0.15430537996E+03  0.47000000000E+01 0. -1.
        -11    1    4    4    0    0  0.27539457326E+01 -0.48208985046E+01  0.18184838262E+02  0.19013511567E+02  0.00000000000E+00 0.  1.
         12    1    4    4    0    0  0.10486221136E+03 -0.10411447918E+03 -0.56991443571E+02  0.15837907939E+03  0.00000000000E+00 0. -1.
         -5    1    5    5    0  502  0.26489799022E+02  0.88945431638E+02  0.49820283848E+02  0.10543789615E+03  0.47000000000E+01 0.  1.
         13    1    6    6    0    0 -0.82272078951E+02  0.10747383347E+03  0.56617358227E+01  0.13546724736E+03  0.00000000000E+00 0. -1.
        -14    1    6    6    0    0 -0.49684172842E+02  0.21836475649E+02  0.54516162349E+02  0.76924382721E+02  0.00000000000E+00 0.  1.
</event>
<event>
12    1  0.8500177E-002  0.2506049E+03  0.7818608E-02  0.1112987E+00
         21   -1    0    0  501  502  0.00000000000E+00  0.00000000000E+00  0.58092868969E+02  0.58092868969E+02  0.00000000000E+00 0. -1.
         21   -1    0    0  502  503 -0.00000000000E+00 -0.00000000000E+00 -0.10826911322E+04  0.10826911322E+04  0.00000000000E+00 0.  1.
         -6    2    1    2    0  503  0.14998441123E+03 -0.10082934702E+03 -0.48093291527E+03  0.54230920505E+03  0.17361141686E+03 0.  0.
        -24    2    3    3    0    0  0.81171320278E+02 -0.11927998978E+03 -0.24422760939E+03  0.29507013141E+03  0.81257356987E+02 0.  0.
          6    2    1    2  501    0 -0.14998441123E+03  0.10082934702E+03 -0.54366534801E+03  0.59847479616E+03  0.17302655918E+03 0.  0.
         24    2    5    5    0    0 -0.94417733261E+02  0.35796172694E+02 -0.16821403582E+03  0.21337383890E+03  0.83883007480E+02 0.  0.
          5    1    5    5  501    0 -0.55566677973E+02  0.65033174322E+02 -0.37545131218E+03  0.38510095726E+03  0.47000000000E+01 0. -1.
        -11    1    6    6    0    0  0.65220914277E+01  0.14681280993E+02  0.62265664718E-03  0.16064796562E+02  0.00000000000E+00 0.  1.
         12    1    6    6    0    0 -0.10093982469E+03  0.21114891701E+02 -0.16821465848E+03  0.19730904233E+03  0.00000000000E+00 0. -1.
         -5    1    3    3    0  503  0.68813090956E+02  0.18450642763E+02 -0.23670530588E+03  0.24723907364E+03  0.47000000000E+01 0.  1.
         13    1    4    4    0    0 -0.15104392307E+02 -0.32192005659E+02 -0.58763676500E+02  0.68685060756E+02  0.00000000000E+00 0. -1.
        -14    1    4    4    0    0  0.96275712585E+02 -0.87087984121E+02 -0.18546393289E+03  0.22638507065E+03  0.00000000000E+00 0.  1.
</event>
<event>
12    1  0.8500177E-002  0.2099141E+03  0.7818608E-02  0.1141808E+00
         21   -1    0    0  501  502  0.00000000000E+00  0.00000000000E+00  0.14212597888E+03  0.14212597888E+03  0.00000000000E+00 0. -1.
         21   -1    0    0  502  503 -0.00000000000E+00 -0.00000000000E+00 -0.31221758494E+03  0.31221758494E+03  0.00000000000E+00 0.  1.
         -6    2    1    2    0  503 -0.10741089660E+03 -0.49672711841E+02 -0.60899707300E+02  0.21772830549E+03  0.17231471688E+03 0.  0.
        -24    2    3    3    0    0  0.15017312434E+02 -0.26021247695E+02 -0.18385541779E+02  0.85904171152E+02  0.78350963430E+02 0.  0.
          6    2    1    2  501    0  0.10741089660E+03  0.49672711841E+02 -0.10919189876E+03  0.23661525833E+03  0.17337655755E+03 0.  0.
         24    2    5    5    0    0  0.95825977111E+02 -0.17943403174E+02 -0.11120206195E+03  0.16782368817E+03  0.79336675775E+02 0.  0.
          5    1    5    5  501    0  0.11584919492E+02  0.67616115014E+02  0.20101631809E+01  0.68791570162E+02  0.47000000000E+01 0. -1.
        -13    1    6    6    0    0 -0.25305738412E+01 -0.17367149156E+02 -0.47500433449E+02  0.50639044734E+02  0.00000000000E+00 0.  1.
         14    1    6    6    0    0  0.98356550952E+02 -0.57625401805E+00 -0.63701628497E+02  0.11718464344E+03  0.00000000000E+00 0. -1.
         -5    1    3    3    0  503 -0.12242820904E+03 -0.23651464146E+02 -0.42514165520E+02  0.13182413434E+03  0.47000000000E+01 0.  1.
         13    1    4    4    0    0  0.15538174895E+02  0.26855723893E+02 -0.73445170887E+01  0.31884270669E+02  0.00000000000E+00 0. -1.
        -14    1    4    4    0    0 -0.52086246056E+00 -0.52876971587E+02 -0.11041024691E+02  0.54019900483E+02  0.00000000000E+00 0.  1.
</event>
<event>
12    1  0.8500177E-002  0.2109920E+03  0.7818608E-02  0.1140966E+00
         21   -1    0    0  501  502  0.00000000000E+00  0.00000000000E+00  0.13657290414E+03  0.13657290414E+03  0.00000000000E+00 0. -1.
         21   -1    0    0  502  503 -0.00000000000E+00 -0.00000000000E+00 -0.88982298370E+03  0.88982298370E+03  0.00000000000E+00 0. -1.
         -6    2    1    2    0  503 -0.11147987971E+03  0.44338820341E+02 -0.78536603074E+03  0.81297367494E+03  0.17243172370E+03 0.  0.
        -24    2    3    3    0    0 -0.10854676721E+03  0.46964535536E+02 -0.35845033226E+03  0.38601395654E+03  0.80821195718E+02 0.  0.
          6    2    1    2  501    0  0.11147987971E+03 -0.44338820341E+02  0.32115951182E+02  0.21342221290E+03  0.17356241548E+03 0.  0.
         24    2    5    5    0    0  0.14435338203E+03 -0.51349692495E+02  0.10576427022E+02  0.17322444450E+03  0.80125885583E+02 0.  0.
          5    1    5    5  501    0 -0.32873502319E+02  0.70108721537E+01  0.21539524160E+02  0.40197768397E+02  0.47000000000E+01 0. -1.
        -11    1    6    6    0    0  0.35035855035E+02  0.20608165994E+02  0.11863198249E+02  0.42343159026E+02  0.00000000000E+00 0.  1.
         12    1    6    6    0    0  0.10931752700E+03 -0.71957858489E+02 -0.12867712270E+01  0.13088128547E+03  0.00000000000E+00 0. -1.
         -5    1    3    3    0  503 -0.29331125073E+01 -0.26257151951E+01 -0.42691569848E+03  0.42695971840E+03  0.47000000000E+01 0.  1.
         13    1    4    4    0    0 -0.37254371960E+02  0.61216725798E+01 -0.23308820577E+03  0.23612597226E+03  0.00000000000E+00 0. -1.
        -14    1    4    4    0    0 -0.71292395246E+02  0.40842862956E+02 -0.12536212649E+03  0.14988798428E+03  0.00000000000E+00 0.  1.
</event>
<event>
12    1  0.8500177E-002  0.2258883E+03  0.7818608E-02  0.1129697E+00
         21   -1    0    0  501  502  0.00000000000E+00  0.00000000000E+00  0.73407539857E+02  0.73407539857E+02  0.00000000000E+00 0. -1.
         21   -1    0    0  502  503 -0.00000000000E+00 -0.00000000000E+00 -0.78194069039E+03  0.78194069039E+03  0.00000000000E+00 0. -1.
         -6    2    1    2    0  503  0.12201455941E+03 -0.77374807639E+02 -0.49907844827E+03  0.54781822919E+03  0.17364072431E+03 0.  0.
        -24    2    3    3    0    0  0.14521798551E+02 -0.85229358665E+02 -0.27937848011E+03  0.30306007587E+03  0.79486780184E+02 0.  0.
          6    2    1    2  501    0 -0.12201455941E+03  0.77374807639E+02 -0.20945470226E+03  0.30753000106E+03  0.17271078624E+03 0.  0.
         24    2    5    5    0    0 -0.95503408489E+01 -0.82808408151E+01 -0.37526290868E+02  0.84894515984E+02  0.75093774728E+02 0.  0.
          5    1    5    5  501    0 -0.11246421856E+03  0.85655648454E+02 -0.17192841139E+03  0.22263548507E+03  0.47000000000E+01 0. -1.
        -11    1    6    6    0    0 -0.23407563675E+02 -0.32452744440E+02 -0.24357986203E+01  0.40087750920E+02  0.00000000000E+00 0.  1.
         12    1    6    6    0    0  0.13857222826E+02  0.24171903625E+02 -0.35090492248E+02  0.44806765064E+02  0.00000000000E+00 0. -1.
         -5    1    3    3    0  503  0.10749276086E+03  0.78545510259E+01 -0.21969996816E+03  0.24475815332E+03  0.47000000000E+01 0.  1.
         13    1    4    4    0    0  0.41043018577E+02 -0.31691619046E+02 -0.17786202361E+03  0.18526680095E+03  0.00000000000E+00 0. -1.
        -14    1    4    4    0    0 -0.26521220026E+02 -0.53537739619E+02 -0.10151645650E+03  0.11779327492E+03  0.00000000000E+00 0.  1.
</event>
<event>
12    1  0.8500177E-002  0.1942068E+03  0.7818608E-02  0.1158356E+00
         21   -1    0    0  503  502  0.00000000000E+00  0.00000000000E+00  0.36252282857E+03  0.36252282857E+03  0.00000000000E+00 0. -1.
         21   -1    0    0  501  503 -0.00000000000E+00 -0.00000000000E+00 -0.11923526694E+03  0.11923526694E+03  0.00000000000E+00 0. -1.
          6    2    1    2  501    0  0.45269955470E+01 -0.52421293854E+02  0.10595083495E+02  0.17867054187E+03  0.17041837049E+03 0.  0.
         24    2    3    3    0    0 -0.63378863813E+01  0.31643571583E+02  0.28949119298E+02  0.91814869112E+02  0.80934753076E+02 0.  0.
         -6    2    1    2    0  502 -0.45269955470E+01  0.52421293854E+02  0.23269247813E+03  0.30308755364E+03  0.18694328031E+03 0.  0.
        -24    2    5    5    0    0 -0.74647021637E+02  0.18156107909E+02  0.10098549631E+03  0.14992182611E+03  0.79854000443E+02 0.  0.
          5    1    3    3  501    0  0.10864881928E+02 -0.84064865438E+02 -0.18354035803E+02  0.86855672760E+02  0.47000000000E+01 0. -1.
        -13    1    4    4    0    0 -0.36770097906E+02  0.35901198471E+02  0.28002765891E+01  0.51466277315E+02  0.00000000000E+00 0.  1.
         14    1    4    4    0    0  0.30432211524E+02 -0.42576268877E+01  0.26148842709E+02  0.40348591797E+02  0.00000000000E+00 0. -1.
         -5    1    5    5    0  502  0.70120026090E+02  0.34265185946E+02  0.13170698183E+03  0.15316572753E+03  0.47000000000E+01 0.  1.
         13    1    6    6    0    0 -0.72652430892E+02  0.43480726791E+02  0.84605993653E+02  0.11969596267E+03  0.00000000000E+00 0. -1.
        -14    1    6    6    0    0 -0.19945907446E+01 -0.25324618882E+02  0.16379502653E+02  0.30225863444E+02  0.00000000000E+00 0.  1.
</event>
<event>
12    1  0.8500177E-002  0.2152318E+03  0.7818608E-02  0.1137729E+00
         21   -1    0    0  503  502  0.00000000000E+00  0.00000000000E+00  0.74539921333E+03  0.74539921333E+03  0.00000000000E+00 0.  1.
         21   -1    0    0  501  503 -0.00000000000E+00 -0.00000000000E+00 -0.13227566035E+03  0.13227566035E+03  0.00000000000E+00 0.  1.
          6    2    1    2  501    0 -0.12828515287E+03  0.70475773848E+01 -0.13369202960E+02  0.21564661324E+03  0.17267882736E+03 0.  0.
         24    2    3    3    0    0 -0.14143855176E+03  0.49851696807E+02 -0.87353910215E+01  0.17038330851E+03  0.80399683856E+02 0.  0.
         -6    2    1    2    0  502  0.12828515287E+03 -0.70475773848E+01  0.62649275594E+03  0.66202826045E+03  0.17111836718E+03 0.  0.
        -24    2    5    5    0    0  0.72179579423E+02 -0.58775651430E+02  0.49585239978E+03  0.51065910350E+03  0.78985117148E+02 0.  0.
          5    1    3    3  501    0  0.13153398886E+02 -0.42804119422E+02 -0.46338119383E+01  0.45263304727E+02  0.47000000000E+01 0. -1.
        -11    1    4    4    0    0 -0.47437755552E+02  0.88708857625E+00 -0.37595233075E+02  0.60535354364E+02  0.00000000000E+00 0.  1.
         12    1    4    4    0    0 -0.94000796207E+02  0.48964608231E+02  0.28859842053E+02  0.10984795415E+03  0.00000000000E+00 0. -1.
         -5    1    5    5    0  502  0.56105573451E+02  0.51728074046E+02  0.13064035616E+03  0.15136915694E+03  0.47000000000E+01 0.  1.
         11    1    6    6    0    0  0.12356141411E+02 -0.31611046227E+02  0.33771242201E+03  0.33941363033E+03  0.00000000000E+00 0. -1.
        -12    1    6    6    0    0  0.59823438011E+02 -0.27164605203E+02  0.15813997778E+03  0.17124547317E+03  0.00000000000E+00 0.  1.
</event>
<event>
12    1  0.8500177E-002  0.1944228E+03  0.7818608E-02  0.1154657E+00
         21   -1    0    0  503  502  0.00000000000E+00  0.00000000000E+00  0.31875088111E+02  0.31875088111E+02  0.00000000000E+00 0.  1.
         21   -1    0    0  501  503 -0.00000000000E+00 -0.00000000000E+00 -0.12851931640E+04  0.12851931640E+04  0.00000000000E+00 0. -1.
          6    2    1    2  501    0  0.86855981474E+02 -0.23489718391E+02 -0.81376142222E+03  0.83666473700E+03  0.17234993895E+03 0.  0.
         24    2    3    3    0    0  0.95023771638E+02 -0.75293204786E+01 -0.80760903761E+03  0.81713555540E+03  0.79949674335E+02 0.  0.
         -6    2    1    2    0  502 -0.86855981474E+02  0.23489718391E+02 -0.43955665367E+03  0.48040351511E+03  0.17170252520E+03 0.  0.
        -24    2    5    5    0    0  0.75088565463E+01 -0.30792495928E+02 -0.24778714079E+03  0.25983851898E+03  0.71505440883E+02 0.  0.
          5    1    3    3  501    0 -0.81677901639E+01 -0.15960397912E+02 -0.61523846140E+01  0.19529181604E+02  0.47000000000E+01 0. -1.
        -11    1    4    4    0    0  0.20444674748E+02  0.66235282649E+01 -0.36937103213E+02  0.42734125076E+02  0.00000000000E+00 0.  1.
         12    1    4    4    0    0  0.74579096889E+02 -0.14152848744E+02 -0.77067193439E+03  0.77440143032E+03  0.00000000000E+00 0. -1.
         -5    1    5    5    0  502 -0.94364838020E+02  0.54282214319E+02 -0.19176951288E+03  0.22056499613E+03  0.47000000000E+01 0.  1.
         11    1    6    6    0    0 -0.11922961959E+02 -0.35547111279E+02 -0.23010345094E+03  0.23313805411E+03  0.00000000000E+00 0. -1.
        -12    1    6    6    0    0  0.19431818506E+02  0.47546153517E+01 -0.17683689849E+02  0.26700464870E+02  0.00000000000E+00 0.  1.
</event>
<event>
12    1  0.8500177E-002  0.1973595E+03  0.7818608E-02  0.1152164E+00
         21   -1    0    0  503  502  0.00000000000E+00  0.00000000000E+00  0.32326812480E+03  0.32326812480E+03  0.00000000000E+00 0. -1.
         21   -1    0    0  501  503 -0.00000000000E+00 -0.00000000000E+00 -0.14088569045E+03  0.14088569045E+03  0.00000000000E+00 0. -1.
          6    2    1    2  501    0  0.73661414034E+02 -0.62579646637E+02  0.16403368549E+01  0.19653751349E+03  0.17112009646E+03 0.  0.
         24    2    3    3    0    0 -0.57801346493E+01  0.12967137212E+02  0.46479723877E+02  0.78000865837E+02  0.61009947842E+02 0.  0.
         -6    2    1    2    0  502 -0.73661414034E+02  0.62579646637E+02  0.18074209749E+03  0.26761630176E+03  0.17207138945E+03 0.  0.
        -24    2    5    5    0    0 -0.61453584329E+02 -0.24183673224E+02  0.12997119497E+03  0.16624234395E+03  0.79891253091E+02 0.  0.
          5    1    3    3  501    0  0.79441548683E+02 -0.75546783849E+02 -0.44839387022E+02  0.11853664765E+03  0.47000000000E+01 0. -1.
        -11    1    4    4    0    0 -0.17292716255E+02 -0.44073390481E+01 -0.80845166053E+01  0.19591377739E+02  0.00000000000E+00 0.  1.
         12    1    4    4    0    0  0.11512581606E+02  0.17374476260E+02  0.54564240482E+02  0.58409488098E+02  0.00000000000E+00 0. -1.
         -5    1    5    5    0  502 -0.12207829704E+02  0.86763319861E+02  0.50770902522E+02  0.10137395781E+03  0.47000000000E+01 0.  1.
         11    1    6    6    0    0 -0.76492944251E+02 -0.48379207321E+01  0.81192688227E+02  0.11165495340E+03  0.00000000000E+00 0. -1.
        -12    1    6    6    0    0  0.15039359922E+02 -0.19345752491E+02  0.48778506745E+02  0.54587390545E+02  0.00000000000E+00 0.  1.
</event>
<event>
12    1  0.8500177E-002  0.1812409E+03  0.7818608E-02  0.1166963E+00
         21   -1    0    0  501  502  0.00000000000E+00  0.00000000000E+00  0.56166174006E+03  0.56166174006E+03  0.00000000000E+00 0.  1.
         21   -1    0    0  502  503 -0.00000000000E+00 -0.00000000000E+00 -0.59591220666E+02  0.59591220666E+02  0.00000000000E+00 0.  1.
         -6    2    1    2    0  503  0.38983433473E+02  0.33499695169E+02  0.30065551022E+03  0.35029858189E+03  0.17225975439E+03 0.  0.
        -24    2    3    3    0    0  0.17831535413E+02  0.77560063007E+02  0.26487161994E+03  0.28954254837E+03  0.85699388767E+02 0.  0.
          6    2    1    2  501    0 -0.38983433473E+02 -0.33499695169E+02  0.20141500917E+03  0.27095437884E+03  0.17379968881E+03 0.  0.
         24    2    5    5    0    0 -0.66381608125E+02 -0.60585686660E+02  0.82798396014E+02  0.14614932355E+03  0.80167992773E+02 0.  0.
          5    1    5    5  501    0  0.27398174652E+02  0.27085991491E+02  0.11861661316E+03  0.12480505529E+03  0.47000000000E+01 0. -1.
        -13    1    6    6    0    0  0.38201233032E+01 -0.10624220989E+02 -0.13055534092E+02  0.17260196525E+02  0.00000000000E+00 0.  1.
         14    1    6    6    0    0 -0.70201731428E+02 -0.49961465671E+02  0.95853930106E+02  0.12888912702E+03  0.00000000000E+00 0. -1.
         -5    1    3    3    0  503  0.21151898060E+02 -0.44060367838E+02  0.35783890275E+02  0.60756033517E+02  0.47000000000E+01 0.  1.
         13    1    4    4    0    0 -0.87096105791E+00 -0.74341191496E+01 -0.28667980967E+01  0.80151875850E+01  0.00000000000E+00 0. -1.
        -14    1    4    4    0    0  0.18702496471E+02  0.84994182156E+02  0.26773841804E+03  0.28152736078E+03  0.00000000000E+00 0.  1.
</event>
<event>
12    1  0.8500177E-002  0.2034583E+03  0.7818608E-02  0.1147177E+00
         21   -1    0    0  503  502  0.00000000000E+00  0.00000000000E+00  0.72112012970E+03  0.72112012970E+03  0.00000000000E+00 0.  1.
         21   -1    0    0  501  503 -0.00000000000E+00 -0.00000000000E+00 -0.67310718977E+02  0.67310718977E+02  0.00000000000E+00 0.  1.
          6    2    1    2  501    0  0.38378520113E+02  0.10247982190E+03  0.17341462035E+03  0.26733480098E+03  0.17152329451E+03 0.  0.
         24    2    3    3    0    0 -0.27070420075E+02  0.96260230316E+02  0.14948513724E+03  0.19721378235E+03  0.80923606635E+02 0.  0.
         -6    2    1    2    0  502 -0.38378520113E+02 -0.10247982190E+03  0.48039479037E+03  0.52109604770E+03  0.16966706106E+03 0.  0.
        -24    2    5    5    0    0  0.20044287252E+01 -0.13020774580E+03  0.36322032531E+03  0.39400723787E+03  0.79715895382E+02 0.  0.
          5    1    3    3  501    0  0.65448940188E+02  0.62195915828E+01  0.23929483116E+02  0.70121018628E+02  0.47000000000E+01 0. -1.
        -11    1    4    4    0    0  0.94982845139E+01  0.65744647698E+02  0.39316456158E+02  0.77190412840E+02  0.00000000000E+00 0.  1.
         12    1    4    4    0    0 -0.36568704589E+02  0.30515582618E+02  0.11016868108E+03  0.12002336951E+03  0.00000000000E+00 0. -1.
         -5    1    5    5    0  502 -0.40382948839E+02  0.27727923902E+02  0.11717446506E+03  0.12708880982E+03  0.47000000000E+01 0.  1.
         13    1    6    6    0    0 -0.23980909689E+01  0.24596192160E+01 -0.29446217504E+01  0.45245291728E+01  0.00000000000E+00 0. -1.
        -14    1    6    6    0    0  0.44025196941E+01 -0.13266736502E+03  0.36616494706E+03  0.38948270870E+03  0.00000000000E+00 0.  1.
</event>
<event>
12    1  0.8500177E-002  0.2071200E+03  0.7818608E-02  0.1144104E+00
         21   -1    0    0  503  502  0.00000000000E+00  0.00000000000E+00  0.13209790030E+04  0.13209790030E+04  0.00000000000E+00 0. -1.
         21   -1    0    0  501  503 -0.00000000000E+00 -0.00000000000E+00 -0.35979724558E+02  0.35979724558E+02  0.00000000000E+00 0.  1.
          6    2    1    2  501    0 -0.10208263844E+03 -0.53028202202E+02  0.85809128194E+03  0.88245992471E+03  0.17082744299E+03 0.  0.
         24    2    3    3    0    0 -0.58662121303E+01 -0.72497954002E+02  0.42499070747E+03  0.43834859910E+03  0.79006500487E+02 0.  0.
         -6    2    1    2    0  502  0.10208263844E+03  0.53028202202E+02  0.42690799655E+03  0.47449880290E+03  0.17223768789E+03 0.  0.
        -24    2    5    5    0    0 -0.14320902428E+02  0.28354507819E+02  0.23685591826E+03  0.25022116695E+03  0.74167648043E+02 0.  0.
          5    1    3    3  501    0 -0.96216426313E+02  0.19469751800E+02  0.43310057447E+03  0.44411132561E+03  0.47000000000E+01 0. -1.
        -11    1    4    4    0    0 -0.35254760371E+02 -0.67583134784E+02  0.27177075027E+03  0.28225824867E+03  0.00000000000E+00 0.  1.
         12    1    4    4    0    0  0.29388548240E+02 -0.49148192173E+01  0.15321995720E+03  0.15609035044E+03  0.00000000000E+00 0. -1.
         -5    1    5    5    0  502  0.11640354087E+03  0.24673694382E+02  0.19005207829E+03  0.22427763594E+03  0.47000000000E+01 0.  1.
         11    1    6    6    0    0 -0.27848135052E+02 -0.92918087630E+01  0.41638077234E+02  0.50946892071E+02  0.00000000000E+00 0. -1.
        -12    1    6    6    0    0  0.13527232624E+02  0.37646316582E+02  0.19521784103E+03  0.19927427488E+03  0.00000000000E+00 0.  1.
</event>
<event>
12    1  0.8500177E-002  0.1942372E+03  0.7818608E-02  0.1154752E+00
         21   -1    0    0  501  502  0.00000000000E+00  0.00000000000E+00  0.39403789614E+03  0.39403789614E+03  0.00000000000E+00 0.  1.
         21   -1    0    0  502  503 -0.00000000000E+00 -0.00000000000E+00 -0.15075693017E+03  0.15075693017E+03  0.00000000000E+00 0.  1.
         -6    2    1    2    0  503  0.19720463643E+02 -0.88603461598E+02 -0.43149842068E+02  0.19871581836E+03  0.17142519506E+03 0.  0.
        -24    2    3    3    0    0  0.45889082364E+02 -0.74650595788E+02  0.30693805805E+02  0.11900099288E+03  0.74435255492E+02 0.  0.
          6    2    1    2  501    0 -0.19720463643E+02  0.88603461598E+02  0.28643080804E+03  0.34607900795E+03  0.17172245589E+03 0.  0.
         24    2    5    5    0    0 -0.61192772767E+02  0.10761165212E+03  0.23348498660E+03  0.27603178289E+03  0.79708739078E+02 0.  0.
          5    1    5    5  501    0  0.41472309124E+02 -0.19008190525E+02  0.52945821436E+02  0.70047225060E+02  0.47000000000E+01 0. -1.
        -11    1    6    6    0    0 -0.13768009774E+02  0.70425522286E+02  0.18582261188E+03  0.19919677549E+03  0.00000000000E+00 0.  1.
         12    1    6    6    0    0 -0.47424762993E+02  0.37186129836E+02  0.47662374727E+02  0.76835007398E+02  0.00000000000E+00 0. -1.
         -5    1    3    3    0  503 -0.26168618721E+02 -0.13952865809E+02 -0.73843647873E+02  0.79714825480E+02  0.47000000000E+01 0.  1.
         11    1    4    4    0    0 -0.68367502969E+01 -0.58634624906E+02  0.23033549704E+02  0.63366432789E+02  0.00000000000E+00 0. -1.
        -12    1    4    4    0    0  0.52725832661E+02 -0.16015970882E+02  0.76602561013E+01  0.55634560092E+02  0.00000000000E+00 0.  1.
</event>
<event>
12    1  0.8500177E-002  0.2424057E+03  0.7818608E-02  0.1118293E+00
         21   -1    0    0  501  502  0.00000000000E+00  0.00000000000E+00  0.35084557670E+03  0.35084557670E+03  0.00000000000E+00 0. -1.
         21   -1    0    0  502  503 -0.00000000000E+00 -0.00000000000E+00 -0.30837586253E+03  0.30837586253E+03  0.00000000000E+00 0. -1.
         -6    2    1    2    0  503  0.25736723395E+02  0.16979081004E+03 -0.20185475612E+03  0.31544546649E+03  0.17108244111E+03 0.  0.
        -24    2    3    3    0    0 -0.17499733731E+02  0.18005899515E+03 -0.16321078801E+03  0.25636693298E+03  0.79741837110E+02 0.  0.
          6    2    1    2  501    0 -0.25736723395E+02 -0.16979081004E+03  0.24432447029E+03  0.34377597274E+03  0.17028263136E+03 0.  0.
         24    2    5    5    0    0 -0.77582553608E+02 -0.93763274332E+02  0.17847320839E+03  0.23052114948E+03  0.80478009478E+02 0.  0.
          5    1    5    5  501    0  0.51845830213E+02 -0.76027535706E+02  0.65851261903E+02  0.11325482325E+03  0.47000000000E+01 0. -1.
        -13    1    6    6    0    0 -0.25864870649E+02 -0.64179828370E+02  0.40363535030E+02  0.80107782789E+02  0.00000000000E+00 0.  1.
         14    1    6    6    0    0 -0.51717682960E+02 -0.29583445962E+02  0.13810967336E+03  0.15041336669E+03  0.00000000000E+00 0. -1.
         -5    1    3    3    0  503  0.43236457126E+02 -0.10268185115E+02 -0.38643968107E+02  0.59078533507E+02  0.47000000000E+01 0.  1.
         13    1    4    4    0    0  0.28623780664E+02  0.49459981870E+02 -0.65161793070E+02  0.86669890401E+02  0.00000000000E+00 0. -1.
        -14    1    4    4    0    0 -0.46123514395E+02  0.13059901328E+03 -0.98048994942E+02  0.16969704258E+03  0.00000000000E+00 0.  1.
</event>
<event>
12    1  0.8500177E-002  0.1847505E+03  0.7818608E-02  0.1165201E+00
         21   -1    0    0  503  502  0.00000000000E+00  0.00000000000E+00  0.18074308357E+03  0.18074308357E+03  0.00000000000E+00 0. -1.
         21   -1    0    0  501  503 -0.00000000000E+00 -0.00000000000E+00 -0.40376221721E+03  0.40376221721E+03  0.00000000000E+00 0. -1.
          6    2    1    2  501    0  0.28158813849E+01 -0.42459656246E+02 -0.32979174554E+03  0.37801502308E+03  0.17978323240E+03 0.  0.
         24    2    3    3    0    0 -0.28181068362E+02  0.38530526995E+02 -0.13146869040E+03  0.16151018508E+03  0.80763538842E+02 0.  0.
         -6    2    1    2    0  502 -0.28158813849E+01  0.42459656246E+02  0.10677261190E+03  0.20649027771E+03  0.17154326726E+03 0.  0.
        -24    2    5    5    0    0  0.20175849165E+02  0.52890493616E+02  0.35100503804E+01  0.10008224863E+03  0.82460092362E+02 0.  0.
          5    1    3    3  501    0  0.30996949747E+02 -0.80990183241E+02 -0.19832305514E+03  0.21650483800E+03  0.47000000000E+01 0. -1.
        -13    1    4    4    0    0 -0.31407481685E+02 -0.58631771422E+01 -0.12188989287E+02  0.34196172473E+02  0.00000000000E+00 0.  1.
         14    1    4    4    0    0  0.32264133229E+01  0.44393704137E+02 -0.11927970111E+03  0.12731401261E+03  0.00000000000E+00 0. -1.
         -5    1    5    5    0  502 -0.22991730549E+02 -0.10430837370E+02  0.10326256152E+03  0.10640802908E+03  0.47000000000E+01 0.  1.
         13    1    6    6    0    0 -0.16270646796E+02  0.22837382018E+02  0.33837368507E+02  0.43945960817E+02  0.00000000000E+00 0. -1.
        -14    1    6    6    0    0  0.36446495960E+02  0.30053111597E+02 -0.30327318127E+02  0.56136287811E+02  0.00000000000E+00 0.  1.
</event>
<event>
12    1  0.8500177E-002  0.1843419E+03  0.7818608E-02  0.1164617E+00
         21   -1    0    0  501  502  0.00000000000E+00  0.00000000000E+00  0.82983799700E+03  0.82983799700E+03  0.00000000000E+00 0. -1.
         21   -1    0    0  502  503 -0.00000000000E+00 -0.00000000000E+00 -0.40367792268E+02  0.40367792268E+02  0.00000000000E+00 0. -1.
         -6    2    1    2    0  503  0.13047404771E+02  0.60069118701E+02  0.35269875387E+03  0.39612643099E+03  0.16953231125E+03 0.  0.
        -24    2    3    3    0    0 -0.38387204858E+02 -0.12769130393E+01  0.12985981339E+03  0.15929708722E+03  0.83885534270E+02 0.  0.
          6    2    1    2  501    0 -0.13047404771E+02 -0.60069118701E+02  0.43677145086E+03  0.47407935828E+03  0.17379126520E+03 0.  0.
         24    2    5    5    0    0 -0.65411113611E+02 -0.36203277650E+02  0.36792356075E+03  0.38422581997E+03  0.81685023605E+02 0.  0.
          5    1    5    5  501    0  0.52363708840E+02 -0.23865841051E+02  0.68847890112E+02  0.89853538302E+02  0.47000000000E+01 0. -1.
        -11    1    6    6    0    0  0.36573650200E+01  0.73948997459E+01  0.98705976265E+00  0.83087392616E+01  0.00000000000E+00 0.  1.
         12    1    6    6    0    0 -0.69068478631E+02 -0.43598177396E+02  0.36693650099E+03  0.37591708071E+03  0.00000000000E+00 0. -1.
         -5    1    3    3    0  503  0.51434609630E+02  0.61346031740E+02  0.22283894048E+03  0.23682934377E+03  0.47000000000E+01 0.  1.
         13    1    4    4    0    0  0.21767246342E+02  0.12506057908E+02  0.15945340229E+02  0.29740012991E+02  0.00000000000E+00 0. -1.
        -14    1    4    4    0    0 -0.60154451201E+02 -0.13782970947E+02  0.11391447316E+03  0.12955707423E+03  0.00000000000E+00 0.  1.
</event>
<event>
12    1  0.8500177E-002  0.2279115E+03  0.7818608E-02  0.1128791E+00
         21   -1    0    0  501  502  0.00000000000E+00  0.00000000000E+00  0.14880357334E+03  0.14880357334E+03  0.00000000000E+00 0. -1.
         21   -1    0    0  502  503 -0.00000000000E+00 -0.00000000000E+00 -0.37770258239E+03  0.37770258239E+03  0.00000000000E+00 0. -1.
         -6    2    1    2    0  503 -0.32552378606E+02  0.14465836896E+03 -0.34213612239E+02  0.22676287038E+03  0.16812235740E+03 0.  0.
        -24    2    3    3    0    0  0.27272146084E+02  0.11703229222E+03  0.14582419693E+02  0.14463299395E+03  0.79156355395E+02 0.  0.
          6    2    1    2  501    0  0.32552378606E+02 -0.14465836896E+03 -0.19468539681E+03  0.29974328535E+03  0.17308359922E+03 0.  0.
         24    2    5    5    0    0  0.43834714274E+02 -0.86979945070E+01 -0.79050326994E+02  0.12084087091E+03  0.79727188595E+02 0.  0.
          5    1    5    5  501    0 -0.11282335667E+02 -0.13596037446E+03 -0.11563506982E+03  0.17890241444E+03  0.47000000000E+01 0. -1.
        -13    1    6    6    0    0 -0.16675634746E+02 -0.22413278220E+02 -0.34833467932E+02  0.44652013649E+02  0.00000000000E+00 0.  1.
         14    1    6    6    0    0  0.60510349020E+02  0.13715283713E+02 -0.44216859062E+02  0.76188857264E+02  0.00000000000E+00 0. -1.
         -5    1    3    3    0  503 -0.59824524691E+02  0.27626076742E+02 -0.48796031932E+02  0.82129876433E+02  0.47000000000E+01 0.  1.
         11    1    4    4    0    0  0.71237920766E+01  0.35157712803E+02  0.42684049620E+02  0.55756087337E+02  0.00000000000E+00 0. -1.
        -12    1    4    4    0    0  0.20148354008E+02  0.81874579420E+02 -0.28101629927E+02  0.88876906612E+02  0.00000000000E+00 0.  1.
</event>
<event>
12    1  0.8500177E-002  0.3238006E+03  0.7818608E-02  0.1074066E+00
         21   -1    0    0  503  502  0.00000000000E+00  0.00000000000E+00  0.93016273262E+03  0.93016273262E+03  0.00000000000E+00 0.  1.
         21   -1    0    0  501  503 -0.00000000000E+00 -0.00000000000E+00 -0.11255458625E+03  0.11255458625E+03  0.00000000000E+00 0.  1.
          6    2    1    2  501    0  0.27308836227E+03  0.34014774122E+02  0.38265307778E+03  0.50126859985E+03  0.17062406865E+03 0.  0.
         24    2    3    3    0    0  0.18028773310E+03  0.31250214198E+02  0.14761874481E+03  0.24851807613E+03  0.80558660335E+02 0.  0.
         -6    2    1    2    0  502 -0.27308836227E+03 -0.34014774122E+02  0.43495506860E+03  0.54144871902E+03  0.16806708532E+03 0.  0.
        -24    2    5    5    0    0 -0.19313731351E+03  0.34918534367E+02  0.33146479832E+03  0.39354233897E+03  0.80531572242E+02 0.  0.
          5    1    3    3  501    0  0.92800629169E+02  0.27645599242E+01  0.23503433297E+03  0.25275052372E+03  0.47000000000E+01 0. -1.
        -13    1    4    4    0    0  0.37669549132E+02 -0.75803282673E+01  0.74018150104E+02  0.83397499083E+02  0.00000000000E+00 0.  1.
         14    1    4    4    0    0  0.14261818396E+03  0.38830542465E+02  0.73600594703E+02  0.16512057705E+03  0.00000000000E+00 0. -1.
         -5    1    5    5    0  502 -0.79951048757E+02 -0.68933308489E+02  0.10349027028E+03  0.14790638005E+03  0.47000000000E+01 0.  1.
         13    1    6    6    0    0 -0.10755295025E+01 -0.36099653565E+01 -0.37329119864E+01  0.53031354390E+01  0.00000000000E+00 0. -1.
        -14    1    6    6    0    0 -0.19206178401E+03  0.38528499723E+02  0.33519771031E+03  0.38823920353E+03  0.00000000000E+00 0.  1.
</event>
<event>
12    1  0.8500177E-002  0.1981422E+03  0.7818608E-02  0.1151677E+00
         21   -1    0    0  503  502  0.00000000000E+00  0.00000000000E+00  0.22927135296E+04  0.22927135296E+04  0.00000000000E+00 0.  1.
         21   -1    0    0  501  503 -0.00000000000E+00 -0.00000000000E+00 -0.31877200464E+02  0.31877200464E+02  0.00000000000E+00 0.  1.
          6    2    1    2  501    0 -0.60401617258E+02  0.77222977599E+02  0.33839375429E+03  0.39213604714E+03  0.17218769668E+03 0.  0.
         24    2    3    3    0    0 -0.12562925924E+02  0.95952674688E+02  0.14605065294E+03  0.19299463864E+03  0.80940684656E+02 0.  0.
         -6    2    1    2    0  502  0.60401617258E+02 -0.77222977599E+02  0.19224425748E+04  0.19324546829E+04  0.17024659861E+03 0.  0.
        -24    2    5    5    0    0  0.61211457830E+02 -0.37886074083E+02  0.18226504321E+04  0.18250833200E+04  0.60764546825E+02 0.  0.
          5    1    3    3  501    0 -0.47838691334E+02 -0.18729697090E+02  0.19234310135E+03  0.19914140849E+03  0.47000000000E+01 0. -1.
        -13    1    4    4    0    0 -0.40130159395E+02  0.41414030981E+02  0.38637675203E+02  0.69414851438E+02  0.00000000000E+00 0.  1.
         14    1    4    4    0    0  0.27567233470E+02  0.54538643708E+02  0.10741297774E+03  0.12357978721E+03  0.00000000000E+00 0. -1.
         -5    1    5    5    0  502 -0.80984057196E+00 -0.39336903515E+02  0.99792142668E+02  0.10737136284E+03  0.47000000000E+01 0.  1.
         11    1    6    6    0    0  0.39935721328E+02  0.95065933613E+01  0.66280650554E+03  0.66407657761E+03  0.00000000000E+00 0. -1.
        -12    1    6    6    0    0  0.21275736502E+02 -0.47392667445E+02  0.11598439266E+04  0.11610067424E+04  0.00000000000E+00 0.  1.
</event>
<event>
12    1  0.8500177E-002  0.1834988E+03  0.7818608E-02  0.1165210E+00
         21   -1    0    0  503  502  0.00000000000E+00  0.00000000000E+00  0.19516569989E+03  0.19516569989E+03  0.00000000000E+00 0. -1.
         21   -1    0    0  501  503 -0.00000000000E+00 -0.00000000000E+00 -0.54240386514E+03  0.54240386514E+03  0.00000000000E+00 0. -1.
          6    2    1    2  501    0  0.61000169820E+02 -0.19932426183E+02 -0.47889409282E+03  0.51172650567E+03  0.16854121790E+03 0.  0.
         24    2    3    3    0    0  0.71483819716E+02  0.40017849133E+02 -0.37360325449E+03  0.39002115220E+03  0.76326552848E+02 0.  0.
         -6    2    1    2    0  502 -0.61000169820E+02  0.19932426183E+02  0.13165592757E+03  0.22584305936E+03  0.17191126160E+03 0.  0.
        -24    2    5    5    0    0  0.21618472218E+00 -0.44925266517E+02  0.82821610145E+02  0.12405483350E+03  0.80696073634E+02 0.  0.
          5    1    3    3  501    0 -0.10483649896E+02 -0.59950275316E+02 -0.10529083833E+03  0.12170535346E+03  0.47000000000E+01 0. -1.
        -13    1    4    4    0    0  0.65225134357E+02 -0.56023095367E+01 -0.23638902173E+03  0.24528651333E+03  0.00000000000E+00 0.  1.
         14    1    4    4    0    0  0.62586853583E+01  0.45620158670E+02 -0.13721423276E+03  0.14473463887E+03  0.00000000000E+00 0. -1.
         -5    1    5    5    0  502 -0.61216354542E+02  0.64857692700E+02  0.48834317426E+02  0.10178822586E+03  0.47000000000E+01 0.  1.
         11    1    6    6    0    0 -0.35266507796E+02 -0.36345629747E+02  0.67689565693E+02  0.84537616938E+02  0.00000000000E+00 0. -1.
        -12    1    6    6    0    0  0.35482692518E+02 -0.85796367703E+01  0.15132044452E+02  0.39517216561E+02  0.00000000000E+00 0.  1.
</event>
<event>
12    1  0.8500177E-002  0.2240172E+03  0.7818608E-02  0.1131317E+00
         21   -1    0    0  503  502  0.00000000000E+00  0.00000000000E+00  0.28882516031E+04  0.28882516031E+04  0.00000000000E+00 0. -1.
         21   -1    0    0  501  503 -0.00000000000E+00 -0.00000000000E+00 -0.18741195533E+02  0.18741195533E+02  0.00000000000E+00 0. -1.
          6    2    1    2  501    0 -0.91270894765E+02  0.10819421938E+03  0.10254622706E+04  0.10496459233E+04  0.17362986660E+03 0.  0.
         24    2    3    3    0    0  0.14826587926E+02  0.76075654258E+02  0.45817255926E+03  0.47160787556E+03  0.80526774148E+02 0.  0.
         -6    2    1    2    0  502  0.91270894765E+02 -0.10819421938E+03  0.18440481370E+04  0.18573468753E+04  0.17084354964E+03 0.  0.
        -24    2    5    5    0    0  0.12008223507E+03 -0.81586185003E+02  0.11104013618E+04  0.11226375712E+04  0.79043552841E+02 0.  0.
          5    1    3    3  501    0 -0.10609748269E+03  0.32118565123E+02  0.56728971136E+03  0.57803804777E+03  0.47000000000E+01 0. -1.
        -13    1    4    4    0    0  0.65566666715E+01  0.72673462608E+02  0.19376311543E+03  0.20704725776E+03  0.00000000000E+00 0.  1.
         14    1    4    4    0    0  0.82699212541E+01  0.34021916503E+01  0.26440944383E+03  0.26456061780E+03  0.00000000000E+00 0. -1.
         -5    1    5    5    0  502 -0.28811340308E+02 -0.26608034378E+02  0.73364677515E+03  0.73470930409E+03  0.47000000000E+01 0.  1.
         13    1    6    6    0    0  0.96295585865E+02 -0.18762222222E+02  0.65120386961E+03  0.65855245853E+03  0.00000000000E+00 0. -1.
        -14    1    6    6    0    0  0.23786649207E+02 -0.62823962781E+02  0.45919749220E+03  0.46408511270E+03  0.00000000000E+00 0.  1.
</event>
<event>
12    1  0.8500177E-002  0.1825483E+03  0.7818608E-02  0.1165719E+00
         21   -1    0    0  503  502  0.00000000000E+00  0.00000000000E+00  0.60007576796E+03  0.60007576796E+03  0.00000000000E+00 0.  1.
         21   -1    0    0  501  503 -0.00000000000E+00 -0.00000000000E+00 -0.56747234486E+02  0.56747234486E+02  0.00000000000E+00 0.  1.
          6    2    1    2  501    0 -0.39928752000E+02 -0.45263529431E+02  0.32693587072E+03  0.37371584242E+03  0.17068501688E+03 0.  0.
         24    2    3    3    0    0 -0.67051239388E+02  0.95855612697E+01  0.27101514617E+03  0.29069012649E+03  0.80397689625E+02 0.  0.
         -6    2    1    2    0  502  0.39928752000E+02  0.45263529431E+02  0.21639266276E+03  0.28310716002E+03  0.17228112847E+03 0.  0.
        -24    2    5    5    0    0 -0.28590829651E+02 -0.19570866720E+02  0.12000379658E+03  0.14815777871E+03  0.79682882937E+02 0.  0.
          5    1    3    3  501    0  0.27122487388E+02 -0.54849090701E+02  0.55920724548E+02  0.83025715936E+02  0.47000000000E+01 0. -1.
        -11    1    4    4    0    0  0.43513755230E-01 -0.25984474011E+02  0.41755383266E+02  0.49180349884E+02  0.00000000000E+00 0.  1.
         12    1    4    4    0    0 -0.67094753143E+02  0.35570035281E+02  0.22925976290E+03  0.24150977660E+03  0.00000000000E+00 0. -1.
         -5    1    5    5    0  502  0.68519581650E+02  0.64834396151E+02  0.96388866170E+02  0.13494938131E+03  0.47000000000E+01 0.  1.
         13    1    6    6    0    0 -0.26399116189E+02  0.12929518543E+02  0.11032808072E+03  0.11417692928E+03  0.00000000000E+00 0. -1.
        -14    1    6    6    0    0 -0.21917134622E+01 -0.32500385263E+02  0.96757158636E+01  0.33980849425E+02  0.00000000000E+00 0.  1.
</event>
<event>
12    1  0.8500177E-002  0.1913504E+03  0.7818608E-02  0.1157578E+00
         21   -1    0    0  503  502  0.00000000000E+00  0.00000000000E+00  0.87022703535E+02  0.87022703535E+02  0.00000000000E+00 0. -1.
         21   -1    0    0  501  503 -0.00000000000E+00 -0.00000000000E+00 -0.46010161445E+03  0.46010161445E+03  0.00000000000E+00 0. -1.
          6    2    1    2  501    0  0.65214116124E+02  0.45451024570E+02 -0.26909548096E+03  0.32934571380E+03  0.17244577336E+03 0.  0.
         24    2    3    3    0    0  0.12416836312E+02  0.86054853949E+02 -0.14726450614E+03  0.19041731447E+03  0.83739495867E+02 0.  0.
         -6    2    1    2    0  502 -0.65214116124E+02 -0.45451024570E+02 -0.10398342995E+03  0.21777860418E+03  0.17405829529E+03 0.  0.
        -24    2    5    5    0    0 -0.49547118161E+02  0.39154827726E+02 -0.55736895715E+02  0.11901918370E+03  0.84088923720E+02 0.  0.
          5    1    3    3  501    0  0.52797279813E+02 -0.40603829378E+02 -0.12183097483E+03  0.13892839934E+03  0.47000000000E+01 0. -1.
        -13    1    4    4    0    0 -0.57490494550E+01  0.71357230258E+00  0.94301892592E+01  0.11067485014E+02  0.00000000000E+00 0.  1.
         14    1    4    4    0    0  0.18165885767E+02  0.85341281646E+02 -0.15669469540E+03  0.17934982945E+03  0.00000000000E+00 0. -1.
         -5    1    5    5    0  502 -0.15666997963E+02 -0.84605852296E+02 -0.48246534234E+02  0.98759420480E+02  0.47000000000E+01 0.  1.
         13    1    6    6    0    0  0.94200351921E+01 -0.19674233733E+02 -0.13129787098E+02  0.25459847707E+02  0.00000000000E+00 0. -1.
        -14    1    6    6    0    0 -0.58967153353E+02  0.58829061459E+02 -0.42607108617E+02  0.93559335993E+02  0.00000000000E+00 0.  1.
</event>
<event>
12    1  0.8500177E-002  0.1943183E+03  0.7818608E-02  0.1154992E+00
         21   -1    0    0  503  502  0.00000000000E+00  0.00000000000E+00  0.38838853834E+03  0.38838853834E+03  0.00000000000E+00 0.  1.
         21   -1    0    0  501  503 -0.00000000000E+00 -0.00000000000E+00 -0.16685989396E+03  0.16685989396E+03  0.00000000000E+00 0.  1.
          6    2    1    2  501    0  0.15646197095E+02 -0.84781082824E+02 -0.69939714551E+02  0.20494371842E+03  0.17227225127E+03 0.  0.
         24    2    3    3    0    0  0.51652695846E+02 -0.11002131014E+03 -0.39974354335E+02  0.15152509020E+03  0.81173975403E+02 0.  0.
         -6    2    1    2    0  502 -0.15646197095E+02  0.84781082824E+02  0.29146835893E+03  0.35030471389E+03  0.17414635462E+03 0.  0.
        -24    2    5    5    0    0 -0.10864620686E+02 -0.16163693774E+02  0.86470900921E+02  0.12170296589E+03  0.83397183540E+02 0.  0.
          5    1    3    3  501    0 -0.36006498751E+02  0.25240227320E+02 -0.29965360215E+02  0.53418628214E+02  0.47000000000E+01 0. -1.
        -13    1    4    4    0    0  0.67471261739E+02 -0.69338799191E+02 -0.46581508082E+02  0.10737819671E+03  0.00000000000E+00 0.  1.
         14    1    4    4    0    0 -0.15818565893E+02 -0.40682510953E+02  0.66071537469E+01  0.44146893492E+02  0.00000000000E+00 0. -1.
         -5    1    5    5    0  502 -0.47815764089E+01  0.10094477660E+03  0.20499745801E+03  0.22860174800E+03  0.47000000000E+01 0.  1.
         11    1    6    6    0    0  0.30354867800E+02 -0.29160108824E+02  0.47999253573E+02  0.63840882585E+02  0.00000000000E+00 0. -1.
        -12    1    6    6    0    0 -0.41219488486E+02  0.12996415049E+02  0.38471647348E+02  0.57862083309E+02  0.00000000000E+00 0.  1.
</event>
<event>
12    1  0.8500177E-002  0.1732164E+03  0.7818608E-02  0.1174835E+00
         21   -1    0    0  503  502  0.00000000000E+00  0.00000000000E+00  0.15815898890E+03  0.15815898890E+03  0.00000000000E+00 0.  1.
         21   -1    0    0  501  503 -0.00000000000E+00 -0.00000000000E+00 -0.30254811345E+03  0.30254811345E+03  0.00000000000E+00 0.  1.
          6    2    1    2  501    0  0.60868900592E+01 -0.10109444630E+02 -0.21382653758E+03  0.27518305852E+03  0.17281399371E+03 0.  0.
         24    2    3    3    0    0 -0.11420482092E+02 -0.25267950108E+02 -0.23116125059E+03  0.24587656363E+03  0.79062406068E+02 0.  0.
         -6    2    1    2    0  502 -0.60868900592E+01  0.10109444630E+02  0.69437413033E+02  0.18552404382E+03  0.17163439459E+03 0.  0.
        -24    2    5    5    0    0  0.23991509237E+02  0.10262801284E+00 -0.23830968696E+02  0.86903926637E+02  0.80054820891E+02 0.  0.
          5    1    3    3  501    0  0.17507372151E+02  0.15158505478E+02  0.17334713007E+02  0.29306494894E+02  0.47000000000E+01 0. -1.
        -11    1    4    4    0    0  0.33607580081E+02 -0.10298850211E+02 -0.11921240643E+03  0.12428649806E+03  0.00000000000E+00 0.  1.
         12    1    4    4    0    0 -0.45028062173E+02 -0.14969099897E+02 -0.11194884416E+03  0.12159006557E+03  0.00000000000E+00 0. -1.
         -5    1    5    5    0  502 -0.30078399296E+02  0.10006816617E+02  0.93268381730E+02  0.98620117185E+02  0.47000000000E+01 0.  1.
         13    1    6    6    0    0  0.32564747987E+02  0.34071246770E+02 -0.21469962642E+02  0.51790655178E+02  0.00000000000E+00 0. -1.
        -14    1    6    6    0    0 -0.85732387503E+01 -0.33968618757E+02 -0.23610060543E+01  0.35113271459E+02  0.00000000000E+00 0.  1.
</event>
<event>
12    1  0.8500177E-002  0.1952377E+03  0.7818608E-02  0.1154003E+00
         21   -1    0    0  501  502  0.00000000000E+00  0.00000000000E+00  0.45307389325E+03  0.45307389325E+03  0.00000000000E+00 0. -1.
         21   -1    0    0  502  503 -0.00000000000E+00 -0.00000000000E+00 -0.37121693722E+03  0.37121693722E+03  0.00000000000E+00 0.  1.
         -6    2    1    2    0  503  0.76703069737E+02  0.50451095253E+02 -0.32176376787E+03  0.37592997480E+03  0.17135562354E+03 0.  0.
        -24    2    3    3    0    0 -0.16108870993E+02 -0.77716296116E+01 -0.13070522145E+03  0.15563607976E+03  0.82576270542E+02 0.  0.
          6    2    1    2  501    0 -0.76703069737E+02 -0.50451095253E+02  0.40362072389E+03  0.44836085567E+03  0.17230523562E+03 0.  0.
         24    2    5    5    0    0 -0.51879120793E+02  0.75160179708E+01  0.35807365279E+03  0.37043114155E+03  0.79085751604E+02 0.  0.
          5    1    5    5  501    0 -0.24823948944E+02 -0.57967113224E+02  0.45547071098E+02  0.77929714116E+02  0.47000000000E+01 0. -1.
        -13    1    6    6    0    0 -0.60264667375E+01  0.23198438340E+02  0.28168669464E+02  0.36985940330E+02  0.00000000000E+00 0.  1.
         14    1    6    6    0    0 -0.45852654055E+02 -0.15682420369E+02  0.32990498333E+03  0.33344520122E+03  0.00000000000E+00 0. -1.
         -5    1    3    3    0  503  0.92811940730E+02  0.58222724865E+02 -0.19105854642E+03  0.22029389504E+03  0.47000000000E+01 0.  1.
         13    1    4    4    0    0 -0.35219691928E+01 -0.13819673700E+02  0.79174762655E+01  0.16311777297E+02  0.00000000000E+00 0. -1.
        -14    1    4    4    0    0 -0.12586901800E+02  0.60480440889E+01 -0.13862269771E+03  0.13932430246E+03  0.00000000000E+00 0.  1.
</event>
<event>
12    1  0.8500177E-002  0.1887424E+03  0.7818608E-02  0.1160008E+00
         21   -1    0    0  503  502  0.00000000000E+00  0.00000000000E+00  0.32212580730E+03  0.32212580730E+03  0.00000000000E+00 0.  1.
         21   -1    0    0  501  503 -0.00000000000E+00 -0.00000000000E+00 -0.10972351938E+03  0.10972351938E+03  0.00000000000E+00 0.  1.
          6    2    1    2  501    0 -0.51834790925E+02  0.53208503727E+02  0.11435833938E+03  0.21916105712E+03  0.17156849581E+03 0.  0.
         24    2    3    3    0    0 -0.36877718791E+02 -0.18737983566E+02  0.11422064591E+03  0.14552601112E+03  0.80127309888E+02 0.  0.
         -6    2    1    2    0  502  0.51834790925E+02 -0.53208503727E+02  0.98043948535E+02  0.21268826955E+03  0.17350992404E+03 0.  0.
        -24    2    5    5    0    0  0.69621219064E+02 -0.98038306330E+01  0.31177727993E+01  0.10670057445E+03  0.80200142406E+02 0.  0.
          5    1    3    3  501    0 -0.14957072134E+02  0.71946487293E+02  0.13769347662E+00  0.73635046005E+02  0.47000000000E+01 0. -1.
        -13    1    4    4    0    0 -0.47803594066E+02 -0.11499416107E+02  0.24647793632E+02  0.54999399155E+02  0.00000000000E+00 0.  1.
         14    1    4    4    0    0  0.10925875275E+02 -0.72385674596E+01  0.89572852274E+02  0.90526611966E+02  0.00000000000E+00 0. -1.
         -5    1    5    5    0  502 -0.17786428139E+02 -0.43404673094E+02  0.94926175735E+02  0.10598769510E+03  0.47000000000E+01 0.  1.
         13    1    6    6    0    0  0.20894100593E+02  0.34263673704E+02 -0.52409797288E+01  0.40472591266E+02  0.00000000000E+00 0. -1.
        -14    1    6    6    0    0  0.48727118471E+02 -0.44067504337E+02  0.83587525281E+01  0.66227983185E+02  0.00000000000E+00 0.  1.
</event>
<event>
12    1  0.8500177E-002  0.1834007E+03  0.7818608E-02  0.1165635E+00
         21   -1    0    0  501  502  0.00000000000E+00  0.00000000000E+00  0.30927953259E+03  0.30927953259E+03  0.00000000000E+00 0.  1.
         21   -1    0    0  502  503 -0.00000000000E+00 -0.00000000000E+00 -0.13835399984E+03  0.13835399984E+03  0.00000000000E+00 0.  1.
         -6    2    1    2    0  503 -0.41008541853E+02  0.74767783110E+01 -0.21798999028E+02  0.18469165423E+03  0.17860069447E+03 0.  0.
        -24    2    3    3    0    0 -0.77995125197E+01 -0.39473241631E+02  0.43798098005E+02  0.97329115688E+02  0.77043586179E+02 0.  0.
          6    2    1    2  501    0  0.41008541853E+02 -0.74767783110E+01  0.19272453177E+03  0.26294187819E+03  0.17394850802E+03 0.  0.
         24    2    5    5    0    0 -0.32598936048E+02 -0.43071026465E+02  0.12040053487E+03  0.15368135544E+03  0.78764625688E+02 0.  0.
          5    1    5    5  501    0  0.73607477900E+02  0.35594248154E+02  0.72323996899E+02  0.10926052275E+03  0.47000000000E+01 0. -1.
        -13    1    6    6    0    0 -0.27830336666E+02  0.18148018906E+02  0.52535350557E+02  0.62159804434E+02  0.00000000000E+00 0.  1.
         14    1    6    6    0    0 -0.47685993820E+01 -0.61219045370E+02  0.67865184318E+02  0.91521551006E+02  0.00000000000E+00 0. -1.
         -5    1    3    3    0  503 -0.33209029333E+02  0.46950019942E+02 -0.65597097032E+02  0.87362538544E+02  0.47000000000E+01 0.  1.
         11    1    4    4    0    0  0.18879992320E+02 -0.68713473816E+01  0.50795802956E+02  0.54624931329E+02  0.00000000000E+00 0. -1.
        -12    1    4    4    0    0 -0.26679504840E+02 -0.32601894250E+02 -0.69977049507E+01  0.42704184359E+02  0.00000000000E+00 0.  1.
</event>
<event>
12    1  0.8500177E-002  0.2020637E+03  0.7818608E-02  0.1148380E+00
         21   -1    0    0  503  502  0.00000000000E+00  0.00000000000E+00  0.37031968270E+03  0.37031968270E+03  0.00000000000E+00 0. -1.
         21   -1    0    0  501  503 -0.00000000000E+00 -0.00000000000E+00 -0.14947368756E+03  0.14947368756E+03  0.00000000000E+00 0. -1.
          6    2    1    2  501    0  0.16026345845E+02 -0.10128179620E+03 -0.24683323244E+02  0.20180849369E+03  0.17205393246E+03 0.  0.
         24    2    3    3    0    0  0.72675944734E+02 -0.59084969093E+02  0.90779776339E+01  0.12337594490E+03  0.79789645864E+02 0.  0.
         -6    2    1    2    0  502 -0.16026345845E+02  0.10128179620E+03  0.24552931839E+03  0.31798487657E+03  0.17411171568E+03 0.  0.
        -24    2    5    5    0    0 -0.14386355196E+02 -0.59804004497E+01  0.71590550767E+02  0.11357192864E+03  0.86779281003E+02 0.  0.
          5    1    3    3  501    0 -0.56649598890E+02 -0.42196827102E+02 -0.33761300878E+02  0.78432548784E+02  0.47000000000E+01 0. -1.
        -11    1    4    4    0    0 -0.41952945433E+01 -0.24812151173E+02  0.27439141552E+02  0.37231033175E+02  0.00000000000E+00 0.  1.
         12    1    4    4    0    0  0.76871239278E+02 -0.34272817920E+02 -0.18361163918E+02  0.86144911728E+02  0.00000000000E+00 0. -1.
         -5    1    5    5    0  502 -0.16399906486E+01  0.10726219665E+03  0.17393876762E+03  0.20441294792E+03  0.47000000000E+01 0.  1.
         13    1    6    6    0    0 -0.25582978226E+02  0.32399604293E+02  0.58309528630E+02  0.71443853916E+02  0.00000000000E+00 0. -1.
        -14    1    6    6    0    0  0.11196623030E+02 -0.38380004743E+02  0.13281022137E+02  0.42128074729E+02  0.00000000000E+00 0.  1.
</event>
<event>
12    1  0.8500177E-002  0.1846696E+03  0.7818608E-02  0.1164118E+00
         21   -1    0    0  503  502  0.00000000000E+00  0.00000000000E+00  0.22019716823E+03  0.22019716823E+03  0.00000000000E+00 0.  1.
         21   -1    0    0  501  503 -0.00000000000E+00 -0.00000000000E+00 -0.18354168684E+03  0.18354168684E+03  0.00000000000E+00 0.  1.
          6    2    1    2  501    0  0.62584631628E+02 -0.23087006870E+02 -0.65233951754E+02  0.19282575743E+03  0.16874969115E+03 0.  0.
         24    2    3    3    0    0  0.19413684317E+02  0.16986743490E+02  0.24182136727E+02  0.85648506863E+02  0.78009296869E+02 0.  0.
         -6    2    1    2    0  502 -0.62584631628E+02  0.23087006870E+02  0.10188943315E+03  0.21091309765E+03  0.17220055798E+03 0.  0.
        -24    2    5    5    0    0 -0.50464682030E+02  0.14866228946E+01 -0.11899616178E+02  0.94364792158E+02  0.78830317479E+02 0.  0.
          5    1    3    3  501    0  0.43170947311E+02 -0.40073750360E+02 -0.89416088481E+02  0.10717725057E+03  0.47000000000E+01 0. -1.
        -13    1    4    4    0    0  0.45224528935E+02 -0.48897938329E+01  0.26955881498E+01  0.45567908627E+02  0.00000000000E+00 0.  1.
         14    1    4    4    0    0 -0.25810844619E+02  0.21876537323E+02  0.21486548577E+02  0.40080598236E+02  0.00000000000E+00 0. -1.
         -5    1    5    5    0  502 -0.12119949598E+02  0.21600383976E+02  0.11378904933E+03  0.11654830549E+03  0.47000000000E+01 0.  1.
         13    1    6    6    0    0 -0.41106989096E+02 -0.31731786255E+02 -0.24766144341E+02  0.57533057602E+02  0.00000000000E+00 0. -1.
        -14    1    6    6    0    0 -0.93576929338E+01  0.33218409150E+02  0.12866528163E+02  0.36831734556E+02  0.00000000000E+00 0.  1.
</event>
<event>
12    1  0.8500177E-002  0.2258994E+03  0.7818608E-02  0.1130220E+00
         21   -1    0    0  501  502  0.00000000000E+00  0.00000000000E+00  0.14725367524E+04  0.14725367524E+04  0.00000000000E+00 0. -1.
         21   -1    0    0  502  503 -0.00000000000E+00 -0.00000000000E+00 -0.66648401690E+02  0.66648401690E+02  0.00000000000E+00 0.  1.
         -6    2    1    2    0  503 -0.11262787618E+03  0.88136086969E+02  0.16221611242E+03  0.27516332435E+03  0.17014047025E+03 0.  0.
        -24    2    3    3    0    0 -0.13272359202E+03  0.38347551623E+02  0.15156581370E+03  0.22022467757E+03  0.80253511657E+02 0.  0.
          6    2    1    2  501    0  0.11262787618E+03 -0.88136086969E+02  0.12436722382E+04  0.12640218297E+04  0.17486435160E+03 0.  0.
         24    2    5    5    0    0  0.80272089137E+02 -0.12135107288E+03  0.11106285522E+04  0.11230507524E+04  0.81101912918E+02 0.  0.
          5    1    5    5  501    0  0.32355787044E+02  0.33214985910E+02  0.13304368605E+03  0.14097107732E+03  0.47000000000E+01 0. -1.
        -13    1    6    6    0    0 -0.11151052231E+02 -0.44046430129E+02  0.24442272484E+03  0.24860994025E+03  0.00000000000E+00 0.  1.
         14    1    6    6    0    0  0.91423141367E+02 -0.77304642750E+02  0.86620582735E+03  0.87444081212E+03  0.00000000000E+00 0. -1.
         -5    1    3    3    0  503  0.20095715838E+02  0.49788535345E+02  0.10650298720E+02  0.54938646777E+02  0.47000000000E+01 0.  1.
         13    1    4    4    0    0 -0.30672152392E+02 -0.21902778974E+02  0.18334380346E+02  0.41912553750E+02  0.00000000000E+00 0. -1.
        -14    1    4    4    0    0 -0.10205143963E+03  0.60250330597E+02  0.13323143335E+03  0.17831212382E+03  0.00000000000E+00 0.  1.
</event>
<event>
12    1  0.8500177E-002  0.1758331E+03  0.7818608E-02  0.1172754E+00
         21   -1    0    0  501  502  0.00000000000E+00  0.00000000000E+00  0.24411201131E+03  0.24411201131E+03  0.00000000000E+00 0. -1.
         21   -1    0    0  502  503 -0.00000000000E+00 -0.00000000000E+00 -0.12683723902E+03  0.12683723902E+03  0.00000000000E+00 0. -1.
         -6    2    1    2    0  503  0.15168706069E+02 -0.29569059055E+01  0.32539724319E+02  0.17881868661E+03  0.17515266508E+03 0.  0.
        -24    2    3    3    0    0  0.14872511126E+01 -0.55220797351E+02 -0.23322374344E+02  0.10096394606E+03  0.81229532092E+02 0.  0.
          6    2    1    2  501    0 -0.15168706069E+02  0.29569059055E+01  0.84735047969E+02  0.19213056372E+03  0.17174193496E+03 0.  0.
         24    2    5    5    0    0 -0.25179217359E+01 -0.55879736233E+02  0.86918610028E+02  0.13172650139E+03  0.81658689363E+02 0.  0.
          5    1    5    5  501    0 -0.12650784333E+02  0.58836642139E+02 -0.21835620596E+01  0.60404062327E+02  0.47000000000E+01 0. -1.
        -13    1    6    6    0    0  0.13125193543E+01  0.82419415600E+01 -0.11494377034E+02  0.14204682718E+02  0.00000000000E+00 0.  1.
         14    1    6    6    0    0 -0.38304410902E+01 -0.64121677793E+02  0.98412987062E+02  0.11752181867E+03  0.00000000000E+00 0. -1.
         -5    1    3    3    0  503  0.13681454957E+02  0.52263891445E+02  0.55862098662E+02  0.77854740547E+02  0.47000000000E+01 0.  1.
         11    1    4    4    0    0 -0.22496586244E+02  0.61961421187E+01 -0.26051322279E+02  0.34973703869E+02  0.00000000000E+00 0. -1.
        -12    1    4    4    0    0  0.23983837357E+02 -0.61416939469E+02  0.27289479354E+01  0.65990242195E+02  0.00000000000E+00 0.  1.
</event>
<event>
12    1  0.8500177E-002  0.1955303E+03  0.7818608E-02  0.1153675E+00
         21   -1    0    0  503  502  0.00000000000E+00  0.00000000000E+00  0.85983629023E+03  0.85983629023E+03  0.00000000000E+00 0.  1.
         21   -1    0    0  501  503 -0.00000000000E+00 -0.00000000000E+00 -0.45983886277E+02  0.45983886277E+02  0.00000000000E+00 0. -1.
          6    2    1    2  501    0 -0.83762612656E+02 -0.38972521082E+02  0.32107211562E+03  0.37566501782E+03  0.17176108263E+03 0.  0.
         24    2    3    3    0    0 -0.68743607906E+02  0.18906552298E+02  0.10367005716E+03  0.15014051214E+03  0.81924058043E+02 0.  0.
         -6    2    1    2    0  502  0.83762612656E+02  0.38972521082E+02  0.49278028833E+03  0.53015515869E+03  0.17232831176E+03 0.  0.
        -24    2    5    5    0    0  0.60498035770E+02 -0.42145909276E+02  0.23692665974E+03  0.26070273330E+03  0.79971138891E+02 0.  0.
          5    1    3    3  501    0 -0.15019004750E+02 -0.57879073380E+02  0.21740205846E+03  0.22552450568E+03  0.47000000000E+01 0. -1.
        -11    1    4    4    0    0 -0.34686781991E+02 -0.30061816334E+02  0.62998343276E+02  0.77946628547E+02  0.00000000000E+00 0.  1.
         12    1    4    4    0    0 -0.34056825915E+02  0.48968368633E+02  0.40671713881E+02  0.72193883591E+02  0.00000000000E+00 0. -1.
         -5    1    5    5    0  502  0.23264576886E+02  0.81118430357E+02  0.25585362859E+03  0.26945242538E+03  0.47000000000E+01 0.  1.
         13    1    6    6    0    0  0.46404202623E+02 -0.88782393411E+01  0.21102057021E+03  0.21624489405E+03  0.00000000000E+00 0. -1.
        -14    1    6    6    0    0  0.14093833147E+02 -0.33267669935E+02  0.25906089533E+02  0.44457839248E+02  0.00000000000E+00 0.  1.
</event>
<event>
12    1  0.8500177E-002  0.2094864E+03  0.7818608E-02  0.1142068E+00
         21   -1    0    0  503  502  0.00000000000E+00  0.00000000000E+00  0.31614784909E+02  0.31614784909E+02  0.00000000000E+00 0. -1.
         21   -1    0    0  501  503 -0.00000000000E+00 -0.00000000000E+00 -0.16534736836E+04  0.16534736836E+04  0.00000000000E+00 0. -1.
          6    2    1    2  501    0 -0.11408268305E+03 -0.34764636978E+02 -0.11496903660E+04  0.11685348124E+04  0.17164565658E+03 0.  0.
         24    2    3    3    0    0 -0.18462918760E+02 -0.27442527943E+02 -0.26740291355E+03  0.28103833835E+03  0.79901550272E+02 0.  0.
         -6    2    1    2    0  502  0.11408268305E+03  0.34764636978E+02 -0.47216853264E+03  0.51655365611E+03  0.17222403397E+03 0.  0.
        -24    2    5    5    0    0  0.12065583543E+03 -0.26817950486E+02 -0.32462313118E+03  0.35646818862E+03  0.80077207182E+02 0.  0.
          5    1    3    3  501    0 -0.95619764288E+02 -0.73221090345E+01 -0.88228745247E+03  0.88749647401E+03  0.47000000000E+01 0. -1.
        -13    1    4    4    0    0  0.24149703264E+01 -0.43216721451E+01 -0.23847434023E+03  0.23852572163E+03  0.00000000000E+00 0.  1.
         14    1    4    4    0    0 -0.20877889087E+02 -0.23120855798E+02 -0.28928573322E+02  0.42512616716E+02  0.00000000000E+00 0. -1.
         -5    1    5    5    0  502 -0.65731523838E+01  0.61582587464E+02 -0.14754540145E+03  0.16008546749E+03  0.47000000000E+01 0.  1.
         11    1    6    6    0    0  0.88016606913E+02 -0.52284738580E+02 -0.26307363526E+03  0.28229125837E+03  0.00000000000E+00 0. -1.
        -12    1    6    6    0    0  0.32639228519E+02  0.25466788094E+02 -0.61549495919E+02  0.74176930255E+02  0.00000000000E+00 0.  1.
</event>
<event>
12    1  0.8500177E-002  0.4255774E+03  0.7818608E-02  0.1035415E+00
         21   -1    0    0  503  502  0.00000000000E+00  0.00000000000E+00  0.71549070810E+03  0.71549070810E+03  0.00000000000E+00 0.  1.
         21   -1    0    0  501  503 -0.00000000000E+00 -0.00000000000E+00 -0.37328031479E+03  0.37328031479E+03  0.00000000000E+00 0.  1.
          6    2    1    2  501    0 -0.15779949061E+03 -0.35339560820E+03 -0.13889933516E+03  0.44767077038E+03  0.17699423216E+03 0.  0.
         24    2    3    3    0    0 -0.70334210320E+02 -0.23933942569E+03 -0.22091396649E+02  0.26240023165E+03  0.78330006592E+02 0.  0.
         -6    2    1    2    0  502  0.15779949061E+03  0.35339560820E+03  0.48110972846E+03  0.64110025251E+03  0.17249297903E+03 0.  0.
        -24    2    5    5    0    0  0.13168225869E+03  0.23262802556E+03  0.42018350535E+03  0.50325608875E+03  0.72501704576E+02 0.  0.
          5    1    3    3  501    0 -0.87465280288E+02 -0.11405618251E+03 -0.11680793851E+03  0.18527053873E+03  0.47000000000E+01 0. -1.
        -13    1    4    4    0    0 -0.38664403987E+02 -0.14087720556E+03  0.25922860299E+02  0.14836885747E+03  0.00000000000E+00 0.  1.
         14    1    4    4    0    0 -0.31669806333E+02 -0.98462220132E+02 -0.48014256947E+02  0.11403137418E+03  0.00000000000E+00 0. -1.
         -5    1    5    5    0  502  0.26117231916E+02  0.12076758263E+03  0.60926223111E+02  0.13784416375E+03  0.47000000000E+01 0.  1.
         13    1    6    6    0    0 -0.42642026742E+01  0.24025105400E+02  0.18338559090E+02  0.30523627953E+02  0.00000000000E+00 0. -1.
        -14    1    6    6    0    0  0.13594646137E+03  0.20860292016E+03  0.40184494626E+03  0.47273246080E+03  0.00000000000E+00 0.  1.
</event>
<event>
12    1  0.8500177E-002  0.2602060E+03  0.7818608E-02  0.1107236E+00
         21   -1    0    0  501  502  0.00000000000E+00  0.00000000000E+00  0.89578441173E+02  0.89578441173E+02  0.00000000000E+00 0.  1.
         21   -1    0    0  502  503 -0.00000000000E+00 -0.00000000000E+00 -0.75318114293E+03  0.75318114293E+03  0.00000000000E+00 0.  1.
         -6    2    1    2    0  503  0.16550855782E+03 -0.10469887916E+03 -0.31199572806E+03  0.40534144074E+03  0.16913134318E+03 0.  0.
        -24    2    3    3    0    0  0.94434587643E+02 -0.82921058788E+02 -0.99317899829E+02  0.17999785571E+03  0.82105965061E+02 0.  0.
          6    2    1    2  501    0 -0.16550855782E+03  0.10469887916E+03 -0.35160697370E+03  0.43741814336E+03  0.17132492574E+03 0.  0.
         24    2    5    5    0    0 -0.15974379168E+03  0.22949162046E+02 -0.23389491871E+03  0.29391041999E+03  0.75045046219E+02 0.  0.
          5    1    5    5  501    0 -0.57647661394E+01  0.81749717116E+02 -0.11771205499E+03  0.14350772337E+03  0.47000000000E+01 0. -1.
        -11    1    6    6    0    0 -0.74845843200E+02  0.31616603419E+02 -0.62719047029E+02  0.10264106740E+03  0.00000000000E+00 0.  1.
         12    1    6    6    0    0 -0.84897948480E+02 -0.86674413726E+01 -0.17117587168E+03  0.19126935260E+03  0.00000000000E+00 0. -1.
         -5    1    3    3    0  503  0.71073970177E+02 -0.21777820374E+02 -0.21267782823E+03  0.22534358503E+03  0.47000000000E+01 0.  1.
         13    1    4    4    0    0 -0.46548740596E+01 -0.18631636459E+01 -0.37500564098E+02  0.37834264087E+02  0.00000000000E+00 0. -1.
        -14    1    4    4    0    0  0.99089461702E+02 -0.81057895142E+02 -0.61817335731E+02  0.14216359162E+03  0.00000000000E+00 0.  1.
</event>
<event>
12    1  0.8500177E-002  0.2086863E+03  0.7818608E-02  0.1142766E+00
         21   -1    0    0  501  502  0.00000000000E+00  0.00000000000E+00  0.18810183699E+03  0.18810183699E+03  0.00000000000E+00 0.  1.
         21   -1    0    0  502  503 -0.00000000000E+00 -0.00000000000E+00 -0.23070132343E+03  0.23070132343E+03  0.00000000000E+00 0.  1.
         -6    2    1    2    0  503 -0.51203901192E+01 -0.11756039807E+03 -0.18555856787E+02  0.20950963416E+03  0.17234645744E+03 0.  0.
        -24    2    3    3    0    0  0.30726800419E+02 -0.49327476341E+02  0.46113846052E+02  0.10878717816E+03  0.79566495132E+02 0.  0.
          6    2    1    2  501    0  0.51203901192E+01  0.11756039807E+03 -0.24043629651E+02  0.20929352627E+03  0.17140308755E+03 0.  0.
         24    2    5    5    0    0 -0.43492395428E+02  0.11408228261E+03  0.15219312052E+02  0.14653232171E+03  0.79584786125E+02 0.  0.
          5    1    5    5  501    0  0.48612785548E+02  0.34781154610E+01 -0.39262941703E+02  0.62761204554E+02  0.47000000000E+01 0. -1.
        -11    1    6    6    0    0 -0.16473616595E+02  0.44647158820E+02  0.45749254980E+02  0.66013204479E+02  0.00000000000E+00 0.  1.
         12    1    6    6    0    0 -0.27018778833E+02  0.69435123788E+02 -0.30529942928E+02  0.80519117235E+02  0.00000000000E+00 0. -1.
         -5    1    3    3    0  503 -0.35847190539E+02 -0.68232921728E+02 -0.64669702839E+02  0.10072245600E+03  0.47000000000E+01 0.  1.
         13    1    4    4    0    0  0.70595416370E+01 -0.12616290617E+02  0.60962526194E+02  0.62653312099E+02  0.00000000000E+00 0. -1.
        -14    1    4    4    0    0  0.23667258782E+02 -0.36711185724E+02 -0.14848680142E+02  0.46133866059E+02  0.00000000000E+00 0.  1.
</event>
<event>
12    1  0.8500177E-002  0.2320499E+03  0.7818608E-02  0.1125228E+00
         21   -1    0    0  503  502  0.00000000000E+00  0.00000000000E+00  0.15296971664E+04  0.15296971664E+04  0.00000000000E+00 0. -1.
         21   -1    0    0  501  503 -0.00000000000E+00 -0.00000000000E+00 -0.35383740795E+02  0.35383740795E+02  0.00000000000E+00 0. -1.
          6    2    1    2  501    0 -0.91605911400E+02  0.12595256215E+03  0.80609565859E+03  0.83879525467E+03  0.17184754156E+03 0.  0.
         24    2    3    3    0    0 -0.75239760999E+02  0.67620973511E+02  0.73087511904E+03  0.74209652312E+03  0.79342247917E+02 0.  0.
         -6    2    1    2    0  502  0.91605911400E+02 -0.12595256215E+03  0.68821776704E+03  0.72628565255E+03  0.17202169432E+03 0.  0.
        -24    2    5    5    0    0 -0.36434227999E+01 -0.11451976554E+03  0.43315383194E+03  0.45373685786E+03  0.71601974972E+02 0.  0.
          5    1    3    3  501    0 -0.16366150401E+02  0.58331588641E+02  0.75220539546E+02  0.96698731542E+02  0.47000000000E+01 0. -1.
        -11    1    4    4    0    0 -0.86487698951E+02  0.40513699772E+02  0.47218718548E+03  0.48174912566E+03  0.00000000000E+00 0.  1.
         12    1    4    4    0    0  0.11247937952E+02  0.27107273739E+02  0.25868793356E+03  0.26034739747E+03  0.00000000000E+00 0. -1.
         -5    1    5    5    0  502  0.95249334200E+02 -0.11432796614E+02  0.25506393510E+03  0.27254879470E+03  0.47000000000E+01 0.  1.
         13    1    6    6    0    0  0.12175437987E+02 -0.10121464995E+03  0.41092891233E+03  0.42338542446E+03  0.00000000000E+00 0. -1.
        -14    1    6    6    0    0 -0.15818860787E+02 -0.13305115592E+02  0.22224919615E+02  0.30351433400E+02  0.00000000000E+00 0.  1.
</event>
<event>
12    1  0.8500177E-002  0.1860871E+03  0.7818608E-02  0.1162922E+00
         21   -1    0    0  501  502  0.00000000000E+00  0.00000000000E+00  0.15560510909E+03  0.15560510909E+03  0.00000000000E+00 0. -1.
         21   -1    0    0  502  503 -0.00000000000E+00 -0.00000000000E+00 -0.44432508541E+03  0.44432508541E+03  0.00000000000E+00 0. -1.
         -6    2    1    2    0  503 -0.53163592603E+02 -0.27777249025E+02 -0.35768982541E+03  0.40147303223E+03  0.17216457611E+03 0.  0.
        -24    2    3    3    0    0  0.35369523943E+02 -0.27430929392E+02 -0.15130213724E+03  0.17684845546E+03  0.79872275248E+02 0.  0.
          6    2    1    2  501    0  0.53163592603E+02  0.27777249025E+02  0.68969849086E+02  0.19845716226E+03  0.17615465372E+03 0.  0.
         24    2    5    5    0    0  0.57323837186E+02  0.30069530687E+02  0.11385609058E+03  0.15307625366E+03  0.79239706514E+02 0.  0.
          5    1    5    5  501    0 -0.41602445833E+01 -0.22922816621E+01 -0.44886241491E+02  0.45380908600E+02  0.47000000000E+01 0. -1.
        -11    1    6    6    0    0 -0.14971037847E+02 -0.69944931398E+01  0.50363494069E+01  0.17274829198E+02  0.00000000000E+00 0.  1.
         12    1    6    6    0    0  0.72294875033E+02  0.37064023827E+02  0.10881974117E+03  0.13580142446E+03  0.00000000000E+00 0. -1.
         -5    1    3    3    0  503 -0.88533116546E+02 -0.34631963243E+00 -0.20638768817E+03  0.22462457677E+03  0.47000000000E+01 0.  1.
         11    1    4    4    0    0 -0.18573247333E+02 -0.31510276967E+02 -0.73355322749E+02  0.81968691869E+02  0.00000000000E+00 0. -1.
        -12    1    4    4    0    0  0.53942771275E+02  0.40793475750E+01 -0.77946814491E+02  0.94879763589E+02  0.00000000000E+00 0.  1.
</event>
<event>
12    1  0.8500177E-002  0.1880578E+03  0.7818608E-02  0.1163498E+00
         21   -1    0    0  501  502  0.00000000000E+00  0.00000000000E+00  0.12820721646E+03  0.12820721646E+03  0.00000000000E+00 0.  1.
         21   -1    0    0  502  503 -0.00000000000E+00 -0.00000000000E+00 -0.25937297145E+03  0.25937297145E+03  0.00000000000E+00 0.  1.
         -6    2    1    2    0  503  0.10741191645E+02 -0.27818480905E+02 -0.85070124249E+02  0.19395539228E+03  0.17173388447E+03 0.  0.
        -24    2    3    3    0    0  0.56690239526E+02 -0.41711118884E+02 -0.96777795098E+02  0.14432193634E+03  0.80680102813E+02 0.  0.
          6    2    1    2  501    0 -0.10741191645E+02  0.27818480905E+02 -0.46095630742E+02  0.19362479563E+03  0.18567852119E+03 0.  0.
         24    2    5    5    0    0 -0.47798869505E+02 -0.27159579055E+02  0.21965385688E+02  0.98491990969E+02  0.78713527784E+02 0.  0.
          5    1    5    5  501    0  0.37057677860E+02  0.54978059960E+02 -0.68061016430E+02  0.95132804661E+02  0.47000000000E+01 0. -1.
        -13    1    6    6    0    0 -0.24061321475E+01  0.25723775519E+02  0.10375721735E+02  0.27841654053E+02  0.00000000000E+00 0.  1.
         14    1    6    6    0    0 -0.45392737358E+02 -0.52883354574E+02  0.11589663953E+02  0.70650336916E+02  0.00000000000E+00 0. -1.
         -5    1    3    3    0  503 -0.45949047881E+02  0.13892637979E+02  0.11707670849E+02  0.49633455933E+02  0.47000000000E+01 0.  1.
         13    1    4    4    0    0 -0.18843664788E+02 -0.13476240126E+02 -0.82959910524E+01  0.24607239140E+02  0.00000000000E+00 0. -1.
        -14    1    4    4    0    0  0.75533904314E+02 -0.28234878758E+02 -0.88481804046E+02  0.11971469720E+03  0.00000000000E+00 0.  1.
</event>
<event>
12    1  0.8500177E-002  0.1876371E+03  0.7818608E-02  0.1160824E+00
         21   -1    0    0  501  502  0.00000000000E+00  0.00000000000E+00  0.22343205036E+03  0.22343205036E+03  0.00000000000E+00 0.  1.
         21   -1    0    0  502  503 -0.00000000000E+00 -0.00000000000E+00 -0.34396076207E+03  0.34396076207E+03  0.00000000000E+00 0.  1.
         -6    2    1    2    0  503  0.61464443400E+02  0.37454450602E+02 -0.26960503421E+03  0.32847307676E+03  0.17328293052E+03 0.  0.
        -24    2    3    3    0    0  0.43925038700E+02  0.91042139038E+02 -0.20795116687E+03  0.24479177403E+03  0.80381868109E+02 0.  0.
          6    2    1    2  501    0 -0.61464443400E+02 -0.37454450602E+02  0.14907632250E+03  0.23891973567E+03  0.17227355133E+03 0.  0.
         24    2    5    5    0    0 -0.89486121472E+02 -0.33442436432E+02  0.45969867424E+02  0.13189477700E+03  0.78465540198E+02 0.  0.
          5    1    5    5  501    0  0.28021678071E+02 -0.40120141700E+01  0.10310645507E+03  0.10702495867E+03  0.47000000000E+01 0. -1.
        -13    1    6    6    0    0 -0.73862721894E+02  0.11521290879E+02  0.37172521173E+02  0.83487952181E+02  0.00000000000E+00 0.  1.
         14    1    6    6    0    0 -0.15623399578E+02 -0.44963727311E+02  0.87973462506E+01  0.48406824820E+02  0.00000000000E+00 0. -1.
         -5    1    3    3    0  503  0.17539404701E+02 -0.53587688436E+02 -0.61653867338E+02  0.83681302732E+02  0.47000000000E+01 0.  1.
         13    1    4    4    0    0  0.10062752680E+02 -0.12862140368E+02 -0.50933802728E+02  0.53487810823E+02  0.00000000000E+00 0. -1.
        -14    1    4    4    0    0  0.33862286020E+02  0.10390427941E+03 -0.15701736415E+03  0.19130396320E+03  0.00000000000E+00 0.  1.
</event>
<event>
12    1  0.8500177E-002  0.2485866E+03  0.7818608E-02  0.1114303E+00
         21   -1    0    0  503  502  0.00000000000E+00  0.00000000000E+00  0.37116144266E+02  0.37116144266E+02  0.00000000000E+00 0. -1.
         21   -1    0    0  501  503 -0.00000000000E+00 -0.00000000000E+00 -0.19493442002E+04  0.19493442002E+04  0.00000000000E+00 0.  1.
          6    2    1    2  501    0 -0.16923566100E+03  0.56717472819E+02 -0.13393764130E+04  0.13622497913E+04  0.17302525118E+03 0.  0.
         24    2    3    3    0    0 -0.18944429962E+03  0.74381043378E+02 -0.11318407301E+04  0.11529329490E+04  0.82275538847E+02 0.  0.
         -6    2    1    2    0  502  0.16923566100E+03 -0.56717472819E+02 -0.57285164294E+03  0.62421055316E+03  0.17211109547E+03 0.  0.
        -24    2    5    5    0    0  0.20107129875E+02 -0.52568383047E+02 -0.25125473655E+03  0.26966409085E+03  0.80137679562E+02 0.  0.
          5    1    3    3  501    0  0.20208638622E+02 -0.17663570559E+02 -0.20753568285E+03  0.20931684227E+03  0.47000000000E+01 0. -1.
        -11    1    4    4    0    0 -0.82029926109E+02 -0.48385726533E+00 -0.58002325031E+03  0.58579528318E+03  0.00000000000E+00 0.  1.
         12    1    4    4    0    0 -0.10741437351E+03  0.74864900644E+02 -0.55181747982E+03  0.56713766585E+03  0.00000000000E+00 0. -1.
         -5    1    5    5    0  502  0.14912853112E+03 -0.41490897721E+01 -0.32159690639E+03  0.35454646231E+03  0.47000000000E+01 0.  1.
         11    1    6    6    0    0  0.34640306834E+02 -0.58753032347E+02 -0.12475246749E+03  0.14217963220E+03  0.00000000000E+00 0. -1.
        -12    1    6    6    0    0 -0.14533176959E+02  0.61846492999E+01 -0.12650226906E+03  0.12748445865E+03  0.00000000000E+00 0.  1.
</event>
<event>
12    1  0.8500177E-002  0.2771735E+03  0.7818608E-02  0.1097524E+00
         21   -1    0    0  501  502  0.00000000000E+00  0.00000000000E+00  0.54921622920E+03  0.54921622920E+03  0.00000000000E+00 0. -1.
         21   -1    0    0  502  503 -0.00000000000E+00 -0.00000000000E+00 -0.21981963502E+03  0.21981963502E+03  0.00000000000E+00 0.  1.
         -6    2    1    2    0  503 -0.16284180133E+02  0.21682379109E+03 -0.68273332869E+02  0.28545819158E+03  0.17189357246E+03 0.  0.
        -24    2    3    3    0    0 -0.52363341145E+02  0.60844765240E+02 -0.53709187855E+02  0.12463105865E+03  0.78766864660E+02 0.  0.
          6    2    1    2  501    0  0.16284180133E+02 -0.21682379109E+03  0.39766992704E+03  0.48357767264E+03  0.16860683171E+03 0.  0.
         24    2    5    5    0    0  0.66756726069E+02 -0.85856887917E+02  0.19961831052E+03  0.24078899822E+03  0.79397771320E+02 0.  0.
          5    1    5    5  501    0 -0.50472545936E+02 -0.13096690317E+03  0.19805161652E+03  0.24278867442E+03  0.47000000000E+01 0. -1.
        -11    1    6    6    0    0  0.17305574146E+02  0.10851880695E+02  0.63147977540E+02  0.66369520705E+02  0.00000000000E+00 0.  1.
         12    1    6    6    0    0  0.49451151923E+02 -0.96708768613E+02  0.13647033298E+03  0.17441947752E+03  0.00000000000E+00 0. -1.
         -5    1    3    3    0  503  0.36079161012E+02  0.15597902585E+03 -0.14564145014E+02  0.16082713292E+03  0.47000000000E+01 0.  1.
         13    1    4    4    0    0  0.80905190100E+01 -0.13712741205E+02 -0.34852963490E+01  0.16298560054E+02  0.00000000000E+00 0. -1.
        -14    1    4    4    0    0 -0.60453860155E+02  0.74557506445E+02 -0.50223891506E+02  0.10833249860E+03  0.00000000000E+00 0.  1.
</event>
<event>
12    1  0.8500177E-002  0.1857191E+03  0.7818608E-02  0.1162404E+00
         21   -1    0    0  503  502  0.00000000000E+00  0.00000000000E+00  0.85603428831E+02  0.85603428831E+02  0.00000000000E+00 0.  1.
         21   -1    0    0  501  503 -0.00000000000E+00 -0.00000000000E+00 -0.46280943716E+03  0.46280943716E+03  0.00000000000E+00 0. -1.
          6    2    1    2  501    0 -0.67745789222E+02 -0.15822630157E+02 -0.89825257469E+02  0.20630112970E+03  0.17219678178E+03 0.  0.
         24    2    3    3    0    0  0.11885711218E+02 -0.29418228513E+02 -0.23119956287E+02  0.10143119425E+03  0.93525678227E+02 0.  0.
         -6    2    1    2    0  502  0.67745789222E+02  0.15822630157E+02 -0.28738075086E+03  0.34211173628E+03  0.17208398112E+03 0.  0.
        -24    2    5    5    0    0  0.42032370194E+02 -0.30971668815E+01 -0.49156986527E+02  0.10171250473E+03  0.78439223019E+02 0.  0.
          5    1    3    3  501    0 -0.79631500440E+02  0.13595598356E+02 -0.66705301182E+02  0.10486993546E+03  0.47000000000E+01 0. -1.
        -11    1    4    4    0    0  0.16378069721E+02  0.19993983200E+02  0.22321674617E+02  0.34150515219E+02  0.00000000000E+00 0.  1.
         12    1    4    4    0    0 -0.44923585038E+01 -0.49412211714E+02 -0.45441630904E+02  0.67280679029E+02  0.00000000000E+00 0. -1.
         -5    1    5    5    0  502  0.25713419028E+02  0.18919797039E+02 -0.23822376433E+03  0.24039923155E+03  0.47000000000E+01 0.  1.
         11    1    6    6    0    0  0.19054349412E+02  0.29502638217E+02 -0.50841792683E+02  0.61792894223E+02  0.00000000000E+00 0. -1.
        -12    1    6    6    0    0  0.22978020782E+02 -0.32599805098E+02  0.16848061557E+01  0.39919610510E+02  0.00000000000E+00 0.  1.
</event>
<event>
12    1  0.8500177E-002  0.2161441E+03  0.7818608E-02  0.1136865E+00
         21   -1    0    0  501  502  0.00000000000E+00  0.00000000000E+00  0.14244385018E+03  0.14244385018E+03  0.00000000000E+00 0.  1.
         21   -1    0    0  502  503 -0.00000000000E+00 -0.00000000000E+00 -0.50412285187E+03  0.50412285187E+03  0.00000000000E+00 0.  1.
         -6    2    1    2    0  503 -0.97041205884E+02 -0.87128101749E+02 -0.37236272605E+03  0.43054880946E+03  0.17236581976E+03 0.  0.
        -24    2    3    3    0    0 -0.29746906623E+02 -0.30116772679E+02 -0.31003132535E+03  0.32244650667E+03  0.77848754087E+02 0.  0.
          6    2    1    2  501    0  0.97041205884E+02  0.87128101749E+02  0.10683724362E+02  0.21601789259E+03  0.17187578713E+03 0.  0.
         24    2    5    5    0    0  0.76553032958E+02  0.41664978150E+02  0.70580853621E+02  0.13793833746E+03  0.80305608666E+02 0.  0.
          5    1    5    5  501    0  0.20488172926E+02  0.45463123599E+02 -0.59897129258E+02  0.78079555138E+02  0.47000000000E+01 0. -1.
        -11    1    6    6    0    0  0.76147356877E+02  0.28321782622E+02  0.17371747902E+02  0.83080207965E+02  0.00000000000E+00 0.  1.
         12    1    6    6    0    0  0.40567608046E+00  0.13343195528E+02  0.53209105719E+02  0.54858129492E+02  0.00000000000E+00 0. -1.
         -5    1    3    3    0  503 -0.67294299261E+02 -0.57011329070E+02 -0.62331400698E+02  0.10810230279E+03  0.47000000000E+01 0.  1.
         11    1    4    4    0    0 -0.39386259752E+02  0.15147463122E+02 -0.13898513897E+03  0.14525010138E+03  0.00000000000E+00 0. -1.
        -12    1    4    4    0    0  0.96393531295E+01 -0.45264235801E+02 -0.17104618638E+03  0.17719640529E+03  0.00000000000E+00 0.  1.
</event>
<event>
12    1  0.8500177E-002  0.2225517E+03  0.7818608E-02  0.1133190E+00
         21   -1    0    0  501  502  0.00000000000E+00  0.00000000000E+00  0.57382290234E+02  0.57382290234E+02  0.00000000000E+00 0. -1.
         21   -1    0    0  502  503 -0.00000000000E+00 -0.00000000000E+00 -0.85154560792E+03  0.85154560792E+03  0.00000000000E+00 0. -1.
         -6    2    1    2    0  503 -0.10807695414E+03  0.72248433043E+02 -0.44768934281E+03  0.49713491573E+03  0.17267574432E+03 0.  0.
        -24    2    3    3    0    0 -0.41603231451E+02  0.58527222172E+02 -0.40074421765E+03  0.41447318206E+03  0.77690579019E+02 0.  0.
          6    2    1    2  501    0  0.10807695414E+03 -0.72248433043E+02 -0.34647397487E+03  0.41179298242E+03  0.18063438491E+03 0.  0.
         24    2    5    5    0    0  0.12179839212E+03 -0.58829742673E+02 -0.35667256686E+03  0.38955696682E+03  0.79015969896E+02 0.  0.
          5    1    5    5  501    0 -0.13721437972E+02 -0.13418690370E+02  0.10198591992E+02  0.22236015602E+02  0.47000000000E+01 0. -1.
        -13    1    6    6    0    0  0.80576392988E+02  0.28896393293E+01 -0.21498708009E+03  0.22960912379E+03  0.00000000000E+00 0.  1.
         14    1    6    6    0    0  0.41221999127E+02 -0.61719382002E+02 -0.14168548678E+03  0.15994784303E+03  0.00000000000E+00 0. -1.
         -5    1    3    3    0  503 -0.66473722692E+02  0.13721210870E+02 -0.46945125161E+02  0.82661733666E+02  0.47000000000E+01 0.  1.
         13    1    4    4    0    0 -0.47355178200E+02  0.70768133137E+02 -0.27191098566E+03  0.28493196678E+03  0.00000000000E+00 0. -1.
        -14    1    4    4    0    0  0.57519467490E+01 -0.12240910965E+02 -0.12883323198E+03  0.12954121528E+03  0.00000000000E+00 0.  1.
</event>
<event>
12    1  0.8500177E-002  0.2663058E+03  0.7818608E-02  0.1103774E+00
         21   -1    0    0  501  502  0.00000000000E+00  0.00000000000E+00  0.26215323409E+03  0.26215323409E+03  0.00000000000E+00 0.  1.
         21   -1    0    0  502  503 -0.00000000000E+00 -0.00000000000E+00 -0.32588814389E+03  0.32588814389E+03  0.00000000000E+00 0.  1.
         -6    2    1    2    0  503 -0.20079918927E+03  0.41702443920E+01 -0.15564214023E+03  0.30632215776E+03  0.17108793988E+03 0.  0.
        -24    2    3    3    0    0 -0.13659511221E+03 -0.49034451631E+02 -0.52115758680E+02  0.17330823042E+03  0.79101759167E+02 0.  0.
          6    2    1    2  501    0  0.20079918927E+03 -0.41702443920E+01  0.91907230424E+02  0.28171922022E+03  0.17487445407E+03 0.  0.
         24    2    5    5    0    0  0.59695496161E+02 -0.43431038419E+02  0.53386075207E+02  0.13020146035E+03  0.93019029723E+02 0.  0.
          5    1    5    5  501    0  0.14110369311E+03  0.39260794027E+02  0.38521155217E+02  0.15151775987E+03  0.47000000000E+01 0. -1.
        -11    1    6    6    0    0  0.76391287920E+02 -0.23921977703E+02  0.63928305080E+02  0.10244373128E+03  0.00000000000E+00 0.  1.
         12    1    6    6    0    0 -0.16695791759E+02 -0.19509060717E+02 -0.10542229874E+02  0.27757729072E+02  0.00000000000E+00 0. -1.
         -5    1    3    3    0  503 -0.64204077060E+02  0.53204696023E+02 -0.10352638155E+03  0.13301392734E+03  0.47000000000E+01 0.  1.
         13    1    4    4    0    0 -0.74741784414E+02 -0.51853061166E+02 -0.62713817963E+02  0.11049025863E+03  0.00000000000E+00 0. -1.
        -14    1    4    4    0    0 -0.61853327795E+02  0.28186095357E+01  0.10598059282E+02  0.62817971788E+02  0.00000000000E+00 0.  1.
</event>
<event>
12    1  0.8500177E-002  0.1743144E+03  0.7818608E-02  0.1173659E+00
         21   -1    0    0  501  502  0.00000000000E+00  0.00000000000E+00  0.32169174563E+03  0.32169174563E+03  0.00000000000E+00 0.  1.
         21   -1    0    0  502  503 -0.00000000000E+00 -0.00000000000E+00 -0.14471916262E+03  0.14471916262E+03  0.00000000000E+00 0.  1.
         -6    2    1    2    0  503  0.26441280164E+01  0.20174876140E+02 -0.49486505967E+02  0.18120275147E+03  0.17312280563E+03 0.  0.
        -24    2    3    3    0    0  0.38106337697E+02  0.49608602584E+02  0.20182843064E+02  0.97537819977E+02  0.72063671490E+02 0.  0.
          6    2    1    2  501    0 -0.26441280164E+01 -0.20174876140E+02  0.22645908898E+03  0.28520815678E+03  0.17218001240E+03 0.  0.
         24    2    5    5    0    0  0.40066040755E+02 -0.18943303972E+02  0.55874432597E+02  0.10929087429E+03  0.82815497323E+02 0.  0.
          5    1    5    5  501    0 -0.42710168772E+02 -0.12315721678E+01  0.17058465638E+03  0.17591728249E+03  0.47000000000E+01 0. -1.
        -13    1    6    6    0    0  0.15336436743E+02 -0.20334106330E+02  0.74219759239E+02  0.78468177204E+02  0.00000000000E+00 0.  1.
         14    1    6    6    0    0  0.24729604012E+02  0.13908023576E+01 -0.18345326641E+02  0.30822697082E+02  0.00000000000E+00 0. -1.
         -5    1    3    3    0  503 -0.35462209681E+02 -0.29433726444E+02 -0.69669349031E+02  0.83664931496E+02  0.47000000000E+01 0.  1.
         13    1    4    4    0    0  0.21119003415E+02 -0.60811799482E+01  0.31317780483E+02  0.38259592643E+02  0.00000000000E+00 0. -1.
        -14    1    4    4    0    0  0.16987334282E+02  0.55689782532E+02 -0.11134937419E+02  0.59278227334E+02  0.00000000000E+00 0.  1.
</event>
<event>
12    1  0.8500177E-002  0.2265488E+03  0.7818608E-02  0.1129314E+00
         21   -1    0    0  503  502  0.00000000000E+00  0.00000000000E+00  0.11687173021E+04  0.11687173021E+04  0.00000000000E+00 0. -1.
         21   -1    0    0  501  503 -0.00000000000E+00 -0.00000000000E+00 -0.48847801942E+02  0.48847801942E+02  0.00000000000E+00 0. -1.
          6    2    1    2  501    0 -0.30222377737E+02 -0.14367478467E+03  0.36322760561E+03  0.42808722194E+03  0.17253562023E+03 0.  0.
         24    2    3    3    0    0 -0.51129435083E+02 -0.13592833548E+03  0.36913469590E+03  0.40454797307E+03  0.79422334894E+02 0.  0.
         -6    2    1    2    0  502  0.30222377737E+02  0.14367478467E+03  0.75664189456E+03  0.78947788211E+03  0.17091674542E+03 0.  0.
        -24    2    5    5    0    0  0.60506188488E+01  0.16918144521E+03  0.58996378667E+03  0.61907088310E+03  0.80823989844E+02 0.  0.
          5    1    3    3  501    0  0.20907057346E+02 -0.77464491943E+01 -0.59070902900E+01  0.23539248877E+02  0.47000000000E+01 0. -1.
        -13    1    4    4    0    0 -0.45731775686E+01  0.79719127307E+01  0.54907848603E+01  0.10705795815E+02  0.00000000000E+00 0.  1.
         14    1    4    4    0    0 -0.46556257514E+02 -0.14390024821E+03  0.36364391103E+03  0.39384217725E+03  0.00000000000E+00 0. -1.
         -5    1    5    5    0  502  0.24171758889E+02 -0.25506660532E+02  0.16667810789E+03  0.17040699900E+03  0.47000000000E+01 0.  1.
         13    1    6    6    0    0 -0.29922970169E+02  0.64267583854E+02  0.15943463779E+03  0.17448527217E+03  0.00000000000E+00 0. -1.
        -14    1    6    6    0    0  0.35973589018E+02  0.10491386135E+03  0.43052914888E+03  0.44458561093E+03  0.00000000000E+00 0.  1.
</event>
<event>
12    1  0.8500177E-002  0.2179884E+03  0.7818608E-02  0.1136558E+00
         21   -1    0    0  503  502  0.00000000000E+00  0.00000000000E+00  0.12260182641E+04  0.12260182641E+04  0.00000000000E+00 0. -1.
         21   -1    0    0  501  503 -0.00000000000E+00 -0.00000000000E+00 -0.15190230392E+03  0.15190230392E+03  0.00000000000E+00 0. -1.
          6    2    1    2  501    0  0.97457120291E+01  0.12428898311E+03 -0.62236992951E+02  0.22084798233E+03  0.17134076510E+03 0.  0.
         24    2    3    3    0    0  0.42941930442E+02  0.12140934293E+03 -0.91354767938E+02  0.17634836363E+03  0.78541796451E+02 0.  0.
         -6    2    1    2    0  502 -0.97457120291E+01 -0.12428898311E+03  0.11363529531E+04  0.11570725857E+04  0.17881891463E+03 0.  0.
        -24    2    5    5    0    0  0.16995492008E+02 -0.13289445318E+03  0.10962428011E+04  0.11078784762E+04  0.87730591680E+02 0.  0.
          5    1    3    3  501    0 -0.33196218413E+02  0.28796401777E+01  0.29117774986E+02  0.44499618702E+02  0.47000000000E+01 0. -1.
        -11    1    4    4    0    0  0.56015750000E+02  0.91842215265E+02 -0.38244863276E+02  0.11417279150E+03  0.00000000000E+00 0.  1.
         12    1    4    4    0    0 -0.13073819558E+02  0.29567127665E+02 -0.53109904661E+02  0.62175572127E+02  0.00000000000E+00 0. -1.
         -5    1    5    5    0  502 -0.26741204037E+02  0.86054700744E+01  0.40110152054E+02  0.49194109468E+02  0.47000000000E+01 0.  1.
         11    1    6    6    0    0 -0.42322529516E+01 -0.13110110643E+03  0.78288937177E+03  0.79380172619E+03  0.00000000000E+00 0. -1.
        -12    1    6    6    0    0  0.21227744959E+02 -0.17933467505E+01  0.31335342932E+03  0.31407675004E+03  0.00000000000E+00 0.  1.
</event>
<event>
12    1  0.8500177E-002  0.1796275E+03  0.7818608E-02  0.1168397E+00
         21   -1    0    0  501  502  0.00000000000E+00  0.00000000000E+00  0.69714166191E+03  0.69714166191E+03  0.00000000000E+00 0. -1.
         21   -1    0    0  502  503 -0.00000000000E+00 -0.00000000000E+00 -0.47570104402E+02  0.47570104402E+02  0.00000000000E+00 0. -1.
         -6    2    1    2    0  503  0.29868432574E+02 -0.40827883003E+02  0.39079294346E+03  0.42969998624E+03  0.17135902143E+03 0.  0.
        -24    2    3    3    0    0 -0.17646678243E+02  0.19937532487E+02  0.11426736510E+03  0.14257874537E+03  0.81010847727E+02 0.  0.
          6    2    1    2  501    0 -0.29868432574E+02  0.40827883003E+02  0.25877861406E+03  0.31501178007E+03  0.17235721974E+03 0.  0.
         24    2    5    5    0    0  0.88972261764E+01 -0.24471347240E+02  0.20755764527E+03  0.22329240692E+03  0.78110917337E+02 0.  0.
          5    1    5    5  501    0 -0.38765658750E+02  0.65299230243E+02  0.51220968782E+02  0.91719373154E+02  0.47000000000E+01 0. -1.
        -11    1    6    6    0    0 -0.20351492898E+02  0.17494170681E+02  0.10894924087E+03  0.11220591053E+03  0.00000000000E+00 0.  1.
         12    1    6    6    0    0  0.29248719075E+02 -0.41965517921E+02  0.98608404405E+02  0.11108649639E+03  0.00000000000E+00 0. -1.
         -5    1    3    3    0  503  0.47515110817E+02 -0.60765415490E+02  0.27652557835E+03  0.28712124087E+03  0.47000000000E+01 0.  1.
         11    1    4    4    0    0  0.24559212926E+02  0.46828454674E+01  0.85952456209E+02  0.89514851894E+02  0.00000000000E+00 0. -1.
        -12    1    4    4    0    0 -0.42205891168E+02  0.15254687020E+02  0.28314908895E+02  0.53063893479E+02  0.00000000000E+00 0.  1.
</event>
<event>
12    1  0.8500177E-002  0.1992345E+03  0.7818608E-02  0.1151066E+00
         21   -1    0    0  501  502  0.00000000000E+00  0.00000000000E+00  0.12017573703E+03  0.12017573703E+03  0.00000000000E+00 0. -1.
         21   -1    0    0  502  503 -0.00000000000E+00 -0.00000000000E+00 -0.35097426717E+03  0.35097426717E+03  0.00000000000E+00 0. -1.
         -6    2    1    2    0  503 -0.37527398328E+02  0.90101480396E+02 -0.52243230459E+02  0.20597026155E+03  0.17368883418E+03 0.  0.
        -24    2    3    3    0    0 -0.80012851056E+02  0.39582947802E+02  0.37276394984E+01  0.11929867386E+03  0.79053223831E+02 0.  0.
          6    2    1    2  501    0  0.37527398328E+02 -0.90101480396E+02 -0.17855529968E+03  0.26517974265E+03  0.17003446260E+03 0.  0.
         24    2    5    5    0    0  0.69677021308E+02 -0.14508352407E+02 -0.73517722825E+02  0.13175222746E+03  0.82996471519E+02 0.  0.
          5    1    5    5  501    0 -0.32149622979E+02 -0.75593127988E+02 -0.10503757685E+03  0.13342751518E+03  0.47000000000E+01 0. -1.
        -13    1    6    6    0    0  0.66705559143E+02 -0.39974140121E+02 -0.34524580317E+02  0.85085310983E+02  0.00000000000E+00 0.  1.
         14    1    6    6    0    0  0.29714621649E+01  0.25465787714E+02 -0.38993142508E+02  0.46666916482E+02  0.00000000000E+00 0. -1.
         -5    1    3    3    0  503  0.42485452728E+02  0.50518532593E+02 -0.55970869957E+02  0.86671587690E+02  0.47000000000E+01 0.  1.
         11    1    4    4    0    0 -0.20806053925E+02  0.51351109965E+02  0.16060294260E+02  0.57686752607E+02  0.00000000000E+00 0. -1.
        -12    1    4    4    0    0 -0.59206797132E+02 -0.11768162163E+02 -0.12332654761E+02  0.61611921255E+02  0.00000000000E+00 0.  1.
</event>
<event>
12    1  0.8500177E-002  0.1790951E+03  0.7818608E-02  0.1169291E+00
         21   -1    0    0  501  502  0.00000000000E+00  0.00000000000E+00  0.64803418127E+02  0.64803418127E+02  0.00000000000E+00 0. -1.
         21   -1    0    0  502  503 -0.00000000000E+00 -0.00000000000E+00 -0.14078925822E+04  0.14078925822E+04  0.00000000000E+00 0. -1.
         -6    2    1    2    0  503 -0.33335861333E+02 -0.25849711034E+02 -0.12683282980E+04  0.12809105006E+04  0.17405617436E+03 0.  0.
        -24    2    3    3    0    0 -0.45222089388E+02 -0.74132207686E+02 -0.10700417337E+04  0.10764303464E+04  0.78564350069E+02 0.  0.
          6    2    1    2  501    0  0.33335861333E+02  0.25849711034E+02 -0.74760866101E+02  0.19178549975E+03  0.17150219708E+03 0.  0.
         24    2    5    5    0    0  0.64320853837E+02  0.36181333727E+02 -0.10276335840E+03  0.14850684725E+03  0.77767054086E+02 0.  0.
          5    1    5    5  501    0 -0.30984992504E+02 -0.10331622693E+02  0.28002492297E+02  0.43278652507E+02  0.47000000000E+01 0. -1.
        -13    1    6    6    0    0  0.41956717461E+02 -0.19958025873E+01 -0.64233147694E+01  0.42492450396E+02  0.00000000000E+00 0.  1.
         14    1    6    6    0    0  0.22364136376E+02  0.38177136315E+02 -0.96340043629E+02  0.10601439685E+03  0.00000000000E+00 0. -1.
         -5    1    3    3    0  503  0.11886228055E+02  0.48282496652E+02 -0.19828656428E+03  0.20448015423E+03  0.47000000000E+01 0.  1.
         11    1    4    4    0    0  0.15828127598E+02 -0.33529001534E+02 -0.20821700871E+03  0.21149242607E+03  0.00000000000E+00 0. -1.
        -12    1    4    4    0    0 -0.61050216986E+02 -0.40603206152E+02 -0.86182472500E+03  0.86493792030E+03  0.00000000000E+00 0.  1.
</event>
<event>
12    1  0.8500177E-002  0.1977442E+03  0.7818608E-02  0.1152239E+00
         21   -1    0    0  503  502  0.00000000000E+00  0.00000000000E+00  0.12227872246E+03  0.12227872246E+03  0.00000000000E+00 0. -1.
         21   -1    0    0  501  503 -0.00000000000E+00 -0.00000000000E+00 -0.33838124522E+03  0.33838124522E+03  0.00000000000E+00 0. -1.
          6    2    1    2  501    0  0.84027836039E+02  0.38981674388E+02 -0.48758411646E+02  0.20366674605E+03  0.17470693339E+03 0.  0.
         24    2    3    3    0    0  0.93863563025E+02 -0.32045530444E+02 -0.29967515375E+02  0.12939162818E+03  0.77503915908E+02 0.  0.
         -6    2    1    2    0  502 -0.84027836039E+02 -0.38981674388E+02 -0.16734411111E+03  0.25699322163E+03  0.17164269945E+03 0.  0.
        -24    2    5    5    0    0 -0.96781904900E+01 -0.74682606280E+02 -0.11927074474E+03  0.16141307262E+03  0.78469805721E+02 0.  0.
          5    1    3    3  501    0 -0.98357269861E+01  0.71027204832E+02 -0.18790896271E+02  0.74275117868E+02  0.47000000000E+01 0. -1.
        -11    1    4    4    0    0  0.37149590166E+02  0.23494970301E+02 -0.23254526003E+02  0.49728047001E+02  0.00000000000E+00 0.  1.
         12    1    4    4    0    0  0.56713972859E+02 -0.55540500745E+02 -0.67129893727E+01  0.79663581183E+02  0.00000000000E+00 0. -1.
         -5    1    5    5    0  502 -0.74349645549E+02  0.35700931892E+02 -0.48073366368E+02  0.95580149012E+02  0.47000000000E+01 0.  1.
         13    1    6    6    0    0 -0.41373011229E+02 -0.20947850034E+02 -0.50827245771E+02  0.68803687342E+02  0.00000000000E+00 0. -1.
        -14    1    6    6    0    0  0.31694820739E+02 -0.53734756245E+02 -0.68443498966E+02  0.92609385276E+02  0.00000000000E+00 0.  1.
</event>
<event>
12    1  0.8500177E-002  0.2114925E+03  0.7818608E-02  0.1140530E+00
         21   -1    0    0  503  502  0.00000000000E+00  0.00000000000E+00  0.33878949443E+03  0.33878949443E+03  0.00000000000E+00 0.  1.
         21   -1    0    0  501  503 -0.00000000000E+00 -0.00000000000E+00 -0.15621831990E+03  0.15621831990E+03  0.00000000000E+00 0.  1.
          6    2    1    2  501    0  0.11381665897E+03  0.42720323760E+02 -0.71386220533E+01  0.21089715140E+03  0.17218417646E+03 0.  0.
         24    2    3    3    0    0  0.10867438195E+03  0.72749953061E+02 -0.45928702889E+02  0.16134937627E+03  0.82592363527E+02 0.  0.
         -6    2    1    2    0  502 -0.11381665897E+03 -0.42720323760E+02  0.18970979658E+03  0.28411066293E+03  0.17306011658E+03 0.  0.
        -24    2    5    5    0    0 -0.61473233987E+02  0.22214984904E+02  0.16147990136E+03  0.19593217670E+03  0.89672711963E+02 0.  0.
          5    1    3    3  501    0  0.51422770246E+01 -0.30029629301E+02  0.38790080836E+02  0.49547775128E+02  0.47000000000E+01 0. -1.
        -11    1    4    4    0    0  0.10249346490E+02 -0.16966057319E+02 -0.14371417665E+02  0.24483338215E+02  0.00000000000E+00 0.  1.
         12    1    4    4    0    0  0.98425035458E+02  0.89716010380E+02 -0.31557285224E+02  0.13686603806E+03  0.00000000000E+00 0. -1.
         -5    1    5    5    0  502 -0.52343424985E+02 -0.64935308665E+02  0.28229895215E+02  0.88178486233E+02  0.47000000000E+01 0.  1.
         11    1    6    6    0    0  0.27991453799E+01  0.14699814560E+02  0.11570428979E+03  0.11666791521E+03  0.00000000000E+00 0. -1.
        -12    1    6    6    0    0 -0.64272379367E+02  0.75151703446E+01  0.45775611569E+02  0.79264261489E+02  0.00000000000E+00 0.  1.
</event>
<event>
12    1  0.8500177E-002  0.2016539E+03  0.7818608E-02  0.1148537E+00
         21   -1    0    0  501  502  0.00000000000E+00  0.00000000000E+00  0.48536130641E+03  0.48536130641E+03  0.00000000000E+00 0. -1.
         21   -1    0    0  502  503 -0.00000000000E+00 -0.00000000000E+00 -0.52684548216E+03  0.52684548216E+03  0.00000000000E+00 0.  1.
         -6    2    1    2    0  503  0.64196296634E+02  0.80154596711E+02 -0.48506338642E+03  0.52531018743E+03  0.17354647878E+03 0.  0.
        -24    2    3    3    0    0  0.18674008538E+02  0.10235788015E+03 -0.43548801017E+03  0.45428151407E+03  0.76785628870E+02 0.  0.
          6    2    1    2  501    0 -0.64196296634E+02 -0.80154596711E+02  0.44357921067E+03  0.48689660114E+03  0.17251046399E+03 0.  0.
         24    2    5    5    0    0 -0.29060639558E+02 -0.48000964061E+02  0.99004216431E+02  0.13901388075E+03  0.79839907615E+02 0.  0.
          5    1    5    5  501    0 -0.35135657077E+02 -0.32153632650E+02  0.34457499424E+03  0.34788272039E+03  0.47000000000E+01 0. -1.
        -13    1    6    6    0    0 -0.20979410828E+02  0.16529676181E+02  0.94391425032E+01  0.28327782909E+02  0.00000000000E+00 0.  1.
         14    1    6    6    0    0 -0.80812287301E+01 -0.64530640241E+02  0.89565073928E+02  0.11068609784E+03  0.00000000000E+00 0. -1.
         -5    1    3    3    0  503  0.45522288096E+02 -0.22203283434E+02 -0.49575376247E+02  0.71028673357E+02  0.47000000000E+01 0.  1.
         11    1    4    4    0    0  0.34333469331E+02  0.10700053208E+02 -0.10668789207E+03  0.11258589862E+03  0.00000000000E+00 0. -1.
        -12    1    4    4    0    0 -0.15659460793E+02  0.91657826938E+02 -0.32880011811E+03  0.34169561545E+03  0.00000000000E+00 0.  1.
</event>
<event>
12    1  0.8500177E-002  0.1916192E+03  0.7818608E-02  0.1157980E+00
         21   -1    0    0  501  502  0.00000000000E+00  0.00000000000E+00  0.38079238137E+03  0.38079238137E+03  0.00000000000E+00 0. -1.
         21   -1    0    0  502  503 -0.00000000000E+00 -0.00000000000E+00 -0.94274768821E+02  0.94274768821E+02  0.00000000000E+00 0.  1.
         -6    2    1    2    0  503  0.45315511334E+02  0.67807920139E+02  0.14616805425E+03  0.24100421317E+03  0.17339700424E+03 0.  0.
        -24    2    3    3    0    0  0.66284533372E+02  0.92988985952E+02  0.15318497884E+03  0.20716469202E+03  0.80068601863E+02 0.  0.
          6    2    1    2  501    0 -0.45315511334E+02 -0.67807920139E+02  0.14034955830E+03  0.23406293702E+03  0.16862992134E+03 0.  0.
         24    2    5    5    0    0  0.30225055325E+01  0.13190511146E+01  0.11811061399E+03  0.14670297667E+03  0.86952692827E+02 0.  0.
          5    1    5    5  501    0 -0.48338016867E+02 -0.69126971254E+02  0.22238944308E+02  0.87359960355E+02  0.47000000000E+01 0. -1.
        -11    1    6    6    0    0  0.11644677799E+02 -0.57979875063E+01 -0.11044745622E+02  0.17064629677E+02  0.00000000000E+00 0.  1.
         12    1    6    6    0    0 -0.86221722661E+01  0.71170386210E+01  0.12915535961E+03  0.12963834699E+03  0.00000000000E+00 0. -1.
         -5    1    3    3    0  503 -0.20969022038E+02 -0.25181065813E+02 -0.70169245938E+01  0.33839521147E+02  0.47000000000E+01 0.  1.
         13    1    4    4    0    0  0.20316786068E+01 -0.12772109965E+02  0.29461956112E+02  0.32175477757E+02  0.00000000000E+00 0. -1.
        -14    1    4    4    0    0  0.64252854766E+02  0.10576109592E+03  0.12372302273E+03  0.17498921426E+03  0.00000000000E+00 0.  1.
</event>
<event>
12    1  0.8500177E-002  0.2030454E+03  0.7818608E-02  0.1147311E+00
         21   -1    0    0  501  502  0.00000000000E+00  0.00000000000E+00  0.17159934441E+03  0.17159934441E+03  0.00000000000E+00 0.  1.
         21   -1    0    0  502  503 -0.00000000000E+00 -0.00000000000E+00 -0.29421657488E+03  0.29421657488E+03  0.00000000000E+00 0.  1.
         -6    2    1    2    0  503  0.10417377167E+03 -0.39641785445E+02  0.38978420874E+02  0.20675284534E+03  0.16971675198E+03 0.  0.
        -24    2    3    3    0    0  0.12960606966E+03 -0.65517490765E+02  0.37289411195E+02  0.17012912815E+03  0.80393688618E+02 0.  0.
          6    2    1    2  501    0 -0.10417377167E+03  0.39641785445E+02 -0.16159565134E+03  0.25906307395E+03  0.16904696357E+03 0.  0.
         24    2    5    5    0    0 -0.18449001832E+02  0.38805455466E+02 -0.14555087217E+03  0.17171915286E+03  0.80350370431E+02 0.  0.
          5    1    5    5  501    0 -0.85724769842E+02  0.83632997936E+00 -0.16044779174E+02  0.87343921088E+02  0.47000000000E+01 0. -1.
        -13    1    6    6    0    0 -0.31515475130E+02 -0.14288911776E+01 -0.15873457877E+02  0.35316194127E+02  0.00000000000E+00 0.  1.
         14    1    6    6    0    0  0.13066473298E+02  0.40234346644E+02 -0.12967741429E+03  0.13640295873E+03  0.00000000000E+00 0. -1.
         -5    1    3    3    0  503 -0.25432297989E+02  0.25875705320E+02  0.16890096790E+01  0.36623717186E+02  0.47000000000E+01 0.  1.
         13    1    4    4    0    0  0.47632459911E+02 -0.18408777189E+02 -0.25052020822E+02  0.56880032191E+02  0.00000000000E+00 0. -1.
        -14    1    4    4    0    0  0.81973609752E+02 -0.47108713576E+02  0.62341432017E+02  0.11324909596E+03  0.00000000000E+00 0.  1.
</event>
<event>
12    1  0.8500177E-002  0.2942996E+03  0.7818608E-02  0.1088700E+00
         21   -1    0    0  501  502  0.00000000000E+00  0.00000000000E+00  0.36991888661E+03  0.36991888661E+03  0.00000000000E+00 0. -1.
         21   -1    0    0  502  503 -0.00000000000E+00 -0.00000000000E+00 -0.35529830376E+03  0.35529830376E+03  0.00000000000E+00 0. -1.
         -6    2    1    2    0  503 -0.11889318081E+03  0.19909195333E+03 -0.20753021966E+03  0.35648523818E+03  0.17389576947E+03 0.  0.
        -24    2    3    3    0    0 -0.27590434865E+01  0.78229412561E+02 -0.45610021944E+02  0.12338626340E+03  0.83764208244E+02 0.  0.
          6    2    1    2  501    0  0.11889318081E+03 -0.19909195333E+03  0.22215080251E+03  0.36873195220E+03  0.18121556000E+03 0.  0.
         24    2    5    5    0    0  0.41653007188E+02 -0.18232837122E+03  0.20398171852E+03  0.28749607515E+03  0.77889946559E+02 0.  0.
          5    1    5    5  501    0  0.77240173621E+02 -0.16763582111E+02  0.18169083990E+02  0.81235877045E+02  0.47000000000E+01 0. -1.
        -11    1    6    6    0    0  0.17854687056E+02 -0.70156182410E+02  0.13632896920E+03  0.15435759658E+03  0.00000000000E+00 0.  1.
         12    1    6    6    0    0  0.23798320132E+02 -0.11217218881E+03  0.67652749325E+02  0.13313847857E+03  0.00000000000E+00 0. -1.
         -5    1    3    3    0  503 -0.11613413732E+03  0.12086254077E+03 -0.16192019772E+03  0.23309897478E+03  0.47000000000E+01 0.  1.
         11    1    4    4    0    0 -0.19182369657E+02  0.46601110952E+02 -0.65445573878E+02  0.82599939394E+02  0.00000000000E+00 0. -1.
        -12    1    4    4    0    0  0.16423326170E+02  0.31628301609E+02  0.19835551934E+02  0.40786324003E+02  0.00000000000E+00 0.  1.
</event>
<event>
12    1  0.8500177E-002  0.2398523E+03  0.7818608E-02  0.1120003E+00
         21   -1    0    0  503  502  0.00000000000E+00  0.00000000000E+00  0.11344099682E+03  0.11344099682E+03  0.00000000000E+00 0.  1.
         21   -1    0    0  501  503 -0.00000000000E+00 -0.00000000000E+00 -0.50793247638E+03  0.50793247638E+03  0.00000000000E+00 0.  1.
          6    2    1    2  501    0 -0.10264861727E+03  0.13161113473E+03 -0.21752224904E+03  0.32330093280E+03  0.17131647588E+03 0.  0.
         24    2    3    3    0    0 -0.23368185564E+02  0.11490974105E+02 -0.13074675108E+03  0.15517503686E+03  0.79413251808E+02 0.  0.
         -6    2    1    2    0  502  0.10264861727E+03 -0.13161113473E+03 -0.17696923052E+03  0.29807254041E+03  0.17225243505E+03 0.  0.
        -24    2    5    5    0    0  0.98572877271E+02 -0.69484524309E+02 -0.41937989678E+02  0.14930475699E+03  0.77384780348E+02 0.  0.
          5    1    3    3  501    0 -0.79280431703E+02  0.12012016062E+03 -0.86775497959E+02  0.16812589594E+03  0.47000000000E+01 0. -1.
        -13    1    4    4    0    0 -0.37196890524E+02  0.38310011626E+02 -0.83002509141E+02  0.98694894392E+02  0.00000000000E+00 0.  1.
         14    1    4    4    0    0  0.13828704959E+02 -0.26819037520E+02 -0.47744241942E+02  0.56480142466E+02  0.00000000000E+00 0. -1.
         -5    1    5    5    0  502  0.40757399971E+01 -0.62126610421E+02 -0.13503124084E+03  0.14876778342E+03  0.47000000000E+01 0.  1.
         11    1    6    6    0    0  0.96217428627E+01 -0.37237673478E+01  0.20015045408E+02  0.22517691304E+02  0.00000000000E+00 0. -1.
        -12    1    6    6    0    0  0.88951134408E+02 -0.65760756961E+02 -0.61953035087E+02  0.12678706568E+03  0.00000000000E+00 0.  1.
</event>
<event>
12    1  0.8500177E-002  0.1850900E+03  0.7818608E-02  0.1163742E+00
         21   -1    0    0  503  502  0.00000000000E+00  0.00000000000E+00  0.95489167329E+02  0.95489167329E+02  0.00000000000E+00 0. -1.
         21   -1    0    0  501  503 -0.00000000000E+00 -0.00000000000E+00 -0.35421529252E+03  0.35421529252E+03  0.00000000000E+00 0. -1.
          6    2    1    2  501    0 -0.56132617725E+02 -0.35567247253E+02 -0.11214151828E+03  0.21359992884E+03  0.16921379857E+03 0.  0.
         24    2    3    3    0    0 -0.26654903941E+02  0.31314220427E+02 -0.10713700695E+03  0.14018874806E+03  0.80520075258E+02 0.  0.
         -6    2    1    2    0  502  0.56132617725E+02  0.35567247253E+02 -0.14658460692E+03  0.23610453102E+03  0.17274953757E+03 0.  0.
        -24    2    5    5    0    0  0.50901333952E+02  0.28935019570E+02 -0.17770791297E+03  0.20351460998E+03  0.80061932191E+02 0.  0.
          5    1    3    3  501    0 -0.29477713784E+02 -0.66881467680E+02 -0.50045113235E+01  0.73411180773E+02  0.47000000000E+01 0. -1.
        -11    1    4    4    0    0 -0.48740800325E+02 -0.32603478281E+01 -0.50577768342E+02  0.70316471290E+02  0.00000000000E+00 0.  1.
         12    1    4    4    0    0  0.22085896384E+02  0.34574568255E+02 -0.56559238612E+02  0.69872276773E+02  0.00000000000E+00 0. -1.
         -5    1    5    5    0  502  0.52312837730E+01  0.66322276833E+01  0.31123306051E+02  0.32589921042E+02  0.47000000000E+01 0.  1.
         13    1    6    6    0    0  0.66220252206E+02  0.35807389248E+02 -0.10692664963E+03  0.13076925987E+03  0.00000000000E+00 0. -1.
        -14    1    6    6    0    0 -0.15318918254E+02 -0.68723696788E+01 -0.70781263341E+02  0.72745350103E+02  0.00000000000E+00 0.  1.
</event>
<event>
12    1  0.8500177E-002  0.3089179E+03  0.7818608E-02  0.1080969E+00
         21   -1    0    0  503  502  0.00000000000E+00  0.00000000000E+00  0.18041711649E+03  0.18041711649E+03  0.00000000000E+00 0. -1.
         21   -1    0    0  501  503 -0.00000000000E+00 -0.00000000000E+00 -0.53734692985E+03  0.53734692985E+03  0.00000000000E+00 0.  1.
          6    2    1    2  501    0 -0.91512783231E+02  0.23898458955E+03 -0.12959083686E+03  0.33421054252E+03  0.17150707914E+03 0.  0.
         24    2    3    3    0    0  0.95268041375E+01  0.51162210208E+02 -0.38553642001E+02  0.10227066832E+03  0.79149065286E+02 0.  0.
         -6    2    1    2    0  502  0.91512783231E+02 -0.23898458955E+03 -0.22733897650E+03  0.38355350382E+03  0.17303773149E+03 0.  0.
        -24    2    5    5    0    0  0.11914850547E+03 -0.18693139756E+03 -0.22282492803E+03  0.32425987369E+03  0.79710748257E+02 0.  0.
          5    1    3    3  501    0 -0.10103958737E+03  0.18782237934E+03 -0.91037194862E+02  0.23193987420E+03  0.47000000000E+01 0. -1.
        -11    1    4    4    0    0 -0.23092620206E+02  0.48220001967E+02 -0.43782729517E+02  0.69104016538E+02  0.00000000000E+00 0.  1.
         12    1    4    4    0    0  0.32619424344E+02  0.29422082403E+01  0.52290875160E+01  0.33166651777E+02  0.00000000000E+00 0. -1.
         -5    1    5    5    0  502 -0.27635722240E+02 -0.52053191985E+02 -0.45140484708E+01  0.59293630123E+02  0.47000000000E+01 0.  1.
         13    1    6    6    0    0  0.98840906533E+02 -0.16634090934E+03 -0.14666846750E+03  0.24279716284E+03  0.00000000000E+00 0. -1.
        -14    1    6    6    0    0  0.20307598938E+02 -0.20590488222E+02 -0.76156460527E+02  0.81462710855E+02  0.00000000000E+00 0.  1.
</event>
<event>
12    1  0.8500177E-002  0.1753843E+03  0.7818608E-02  0.1172503E+00
         21   -1    0    0  501  502  0.00000000000E+00  0.00000000000E+00  0.53255039830E+02  0.53255039830E+02  0.00000000000E+00 0.  1.
         21   -1    0    0  502  503 -0.00000000000E+00 -0.00000000000E+00 -0.60578888021E+03  0.60578888021E+03  0.00000000000E+00 0.  1.
         -6    2    1    2    0  503 -0.16675158442E+02  0.36496787388E+02 -0.34944315493E+03  0.39070552180E+03  0.17008882926E+03 0.  0.
        -24    2    3    3    0    0 -0.38506190513E+02 -0.28110012032E+02 -0.10929342389E+03  0.14101648358E+03  0.75284106223E+02 0.  0.
          6    2    1    2  501    0  0.16675158442E+02 -0.36496787388E+02 -0.20309068545E+03  0.26833839824E+03  0.17073251903E+03 0.  0.
         24    2    5    5    0    0  0.29301267731E+02 -0.72356324063E+02 -0.70249764340E+02  0.13008455443E+03  0.76765617233E+02 0.  0.
          5    1    5    5  501    0 -0.12626109290E+02  0.35859536675E+02 -0.13284092111E+03  0.13825384381E+03  0.47000000000E+01 0. -1.
        -13    1    6    6    0    0  0.13039425236E+02 -0.50042974767E+02  0.30030888014E+01  0.51801008449E+02  0.00000000000E+00 0.  1.
         14    1    6    6    0    0  0.16261842495E+02 -0.22313349296E+02 -0.73252853141E+02  0.78283545982E+02  0.00000000000E+00 0. -1.
         -5    1    3    3    0  503  0.21831032072E+02  0.64606799421E+02 -0.24014973104E+03  0.24968903822E+03  0.47000000000E+01 0.  1.
         11    1    4    4    0    0  0.60537678414E+01 -0.41152099761E+02 -0.40761634746E+02  0.58237911080E+02  0.00000000000E+00 0. -1.
        -12    1    4    4    0    0 -0.44559958355E+02  0.13042087728E+02 -0.68531789149E+02  0.82778572498E+02  0.00000000000E+00 0.  1.
</event>
<event>
12    1  0.8500177E-002  0.2162325E+03  0.7818608E-02  0.1136885E+00
         21   -1    0    0  501  502  0.00000000000E+00  0.00000000000E+00  0.33855411398E+03  0.33855411398E+03  0.00000000000E+00 0.  1.
         21   -1    0    0  502  503 -0.00000000000E+00 -0.00000000000E+00 -0.14303356417E+03  0.14303356417E+03  0.00000000000E+00 0. -1.
         -6    2    1    2    0  503 -0.88911866181E+02 -0.93959697138E+02  0.50863415692E+02  0.22213411328E+03  0.17327069168E+03 0.  0.
        -24    2    3    3    0    0 -0.12022131524E+02 -0.11046108983E+03  0.41101407131E+02  0.14275077707E+03  0.79638399496E+02 0.  0.
          6    2    1    2  501    0  0.88911866181E+02  0.93959697138E+02  0.14465713412E+03  0.25945356486E+03  0.17221126918E+03 0.  0.
         24    2    5    5    0    0  0.12443953056E+03  0.89937057515E+02  0.14102551626E+03  0.22320890714E+03  0.79750541761E+02 0.  0.
          5    1    5    5  501    0 -0.35527664374E+02  0.40226396234E+01  0.36316178686E+01  0.36244657727E+02  0.47000000000E+01 0. -1.
        -13    1    6    6    0    0  0.28479966524E+02 -0.24759697787E+01  0.62094123292E+02  0.68358752672E+02  0.00000000000E+00 0.  1.
         14    1    6    6    0    0  0.95959564031E+02  0.92413027294E+02  0.78931392964E+02  0.15485015447E+03  0.00000000000E+00 0. -1.
         -5    1    3    3    0  503 -0.76889734657E+02  0.16501392692E+02  0.97620085608E+01  0.79383336208E+02  0.47000000000E+01 0.  1.
         11    1    4    4    0    0 -0.23281851154E+02 -0.48043414612E+02 -0.17716793692E+02  0.56250324973E+02  0.00000000000E+00 0. -1.
        -12    1    4    4    0    0  0.11259719630E+02 -0.62417675218E+02  0.58818200824E+02  0.86500452102E+02  0.00000000000E+00 0.  1.
</event>
<event>
12    1  0.8500177E-002  0.1776722E+03  0.7818608E-02  0.1170181E+00
         21   -1    0    0  501  502  0.00000000000E+00  0.00000000000E+00  0.17142439355E+03  0.17142439355E+03  0.00000000000E+00 0. -1.
         21   -1    0    0  502  503 -0.00000000000E+00 -0.00000000000E+00 -0.24079649669E+03  0.24079649669E+03  0.00000000000E+00 0. -1.
         -6    2    1    2    0  503  0.44484606106E+02 -0.10407941447E+02 -0.13507909070E+03  0.22318996703E+03  0.17169797674E+03 0.  0.
        -24    2    3    3    0    0  0.36011841317E+02  0.41070193944E+02 -0.14020978126E+03  0.17055727613E+03  0.80295629609E+02 0.  0.
          6    2    1    2  501    0 -0.44484606106E+02  0.10407941447E+02  0.65706987555E+02  0.18903092321E+03  0.17125441977E+03 0.  0.
         24    2    5    5    0    0  0.11794905053E+02 -0.33554956299E+02  0.75899056188E+02  0.11673923616E+03  0.81254708484E+02 0.  0.
          5    1    5    5  501    0 -0.56279511159E+02  0.43962897747E+02 -0.10192068633E+02  0.72291687057E+02  0.47000000000E+01 0. -1.
        -13    1    6    6    0    0  0.13022078427E+02 -0.45030776278E+01 -0.15551338853E+02  0.20777304320E+02  0.00000000000E+00 0.  1.
         14    1    6    6    0    0 -0.12271733742E+01 -0.29051878671E+02  0.91450395041E+02  0.95961931838E+02  0.00000000000E+00 0. -1.
         -5    1    3    3    0  503  0.84727647893E+01 -0.51478135392E+02  0.51306905611E+01  0.52632690908E+02  0.47000000000E+01 0.  1.
         13    1    4    4    0    0  0.55076387643E+02  0.47049366539E+02 -0.12818972188E+03  0.14724013096E+03  0.00000000000E+00 0. -1.
        -14    1    4    4    0    0 -0.19064546327E+02 -0.59791725949E+01 -0.12020059373E+02  0.23317145170E+02  0.00000000000E+00 0.  1.
</event>
<event>
12    1  0.8500177E-002  0.1875919E+03  0.7818608E-02  0.1160959E+00
         21   -1    0    0  503  502  0.00000000000E+00  0.00000000000E+00  0.39709031410E+03  0.39709031410E+03  0.00000000000E+00 0.  1.
         21   -1    0    0  501  503 -0.00000000000E+00 -0.00000000000E+00 -0.50111058632E+03  0.50111058632E+03  0.00000000000E+00 0.  1.
          6    2    1    2  501    0 -0.70172003022E+02  0.21474007154E+02 -0.45974652835E+03  0.49604185927E+03  0.17118823798E+03 0.  0.
         24    2    3    3    0    0  0.23013597165E+02 -0.27246256977E+01 -0.27240399657E+03  0.28535620687E+03  0.81775168653E+02 0.  0.
         -6    2    1    2    0  502  0.70172003022E+02 -0.21474007154E+02  0.35572625614E+03  0.40215904115E+03  0.17264264271E+03 0.  0.
        -24    2    5    5    0    0  0.49321801987E+01  0.46464666008E+02  0.18691670114E+03  0.20879241101E+03  0.80455740272E+02 0.  0.
          5    1    3    3  501    0 -0.93185600187E+02  0.24198632851E+02 -0.18734253178E+03  0.21068565240E+03  0.47000000000E+01 0. -1.
        -13    1    4    4    0    0 -0.60674335187E+01 -0.38350175858E+02 -0.11549397316E+03  0.12184583528E+03  0.00000000000E+00 0.  1.
         14    1    4    4    0    0  0.29081030684E+02  0.35625550160E+02 -0.15691002341E+03  0.16351037159E+03  0.00000000000E+00 0. -1.
         -5    1    5    5    0  502  0.65239822823E+02 -0.67938673162E+02  0.16880955500E+03  0.19336663014E+03  0.47000000000E+01 0.  1.
         13    1    6    6    0    0  0.39789975013E+02  0.88968914789E+01  0.67740610647E+02  0.79064449156E+02  0.00000000000E+00 0. -1.
        -14    1    6    6    0    0 -0.34857794814E+02  0.37567774529E+02  0.11917609049E+03  0.12972796186E+03  0.00000000000E+00 0.  1.
</event>
<event>
12    1  0.8500177E-002  0.2120260E+03  0.7818608E-02  0.1140482E+00
         21   -1    0    0  503  502  0.00000000000E+00  0.00000000000E+00  0.10006286943E+03  0.10006286943E+03  0.00000000000E+00 0.  1.
         21   -1    0    0  501  503 -0.00000000000E+00 -0.00000000000E+00 -0.50020496621E+03  0.50020496621E+03  0.00000000000E+00 0.  1.
          6    2    1    2  501    0  0.66941242747E+02 -0.98466846430E+02 -0.30196229039E+03  0.36896646503E+03  0.17543710459E+03 0.  0.
         24    2    3    3    0    0  0.84916908371E+02 -0.28385966013E+02 -0.10544525794E+03  0.15950169854E+03  0.79406832335E+02 0.  0.
         -6    2    1    2    0  502 -0.66941242747E+02  0.98466846430E+02 -0.98179806393E+02  0.23130137061E+03  0.17229103238E+03 0.  0.
        -24    2    5    5    0    0 -0.21036614282E+02  0.12562545212E+03 -0.94565869674E+02  0.17763596913E+03  0.79922089958E+02 0.  0.
          5    1    3    3  501    0 -0.17975665624E+02 -0.70080880417E+02 -0.19651703245E+03  0.20946476649E+03  0.47000000000E+01 0. -1.
        -13    1    4    4    0    0  0.57445274065E+02 -0.53344910566E+02 -0.89849637442E+02  0.11924175587E+03  0.00000000000E+00 0.  1.
         14    1    4    4    0    0  0.27471634306E+02  0.24958944553E+02 -0.15595620496E+02  0.40259942664E+02  0.00000000000E+00 0. -1.
         -5    1    5    5    0  502 -0.45904628465E+02 -0.27158605686E+02 -0.36139367186E+01  0.53665401479E+02  0.47000000000E+01 0.  1.
         11    1    6    6    0    0 -0.36853770252E+02  0.62517785848E+02 -0.85179435152E+02  0.11190268139E+03  0.00000000000E+00 0. -1.
        -12    1    6    6    0    0  0.15817155970E+02  0.63107666268E+02 -0.93864345218E+01  0.65733287746E+02  0.00000000000E+00 0.  1.
</event>
<event>
12    1  0.8500177E-002  0.2457828E+03  0.7818608E-02  0.1116164E+00
         21   -1    0    0  503  502  0.00000000000E+00  0.00000000000E+00  0.42666930887E+03  0.42666930887E+03  0.00000000000E+00 0. -1.
         21   -1    0    0  501  503 -0.00000000000E+00 -0.00000000000E+00 -0.19718371990E+03  0.19718371990E+03  0.00000000000E+00 0.  1.
          6    2    1    2  501    0  0.36777746878E+02  0.16316434874E+03 -0.51594488647E+02  0.25113979718E+03  0.18009441720E+03 0.  0.
         24    2    3    3    0    0  0.75401813154E+02  0.36805427223E+02 -0.32340844602E+02  0.11753145781E+03  0.75681176292E+02 0.  0.
         -6    2    1    2    0  502 -0.36777746878E+02 -0.16316434874E+03  0.28108007762E+03  0.37271323159E+03  0.17870068718E+03 0.  0.
        -24    2    5    5    0    0 -0.12751584044E+02 -0.18190601834E+03  0.18448539551E+03  0.27131732786E+03  0.79535079297E+02 0.  0.
          5    1    3    3  501    0 -0.38624066276E+02  0.12635892151E+03 -0.19253644045E+02  0.13360833938E+03  0.47000000000E+01 0. -1.
        -11    1    4    4    0    0  0.54668680636E+02  0.50269435158E+02  0.30861880053E+01  0.74331724788E+02  0.00000000000E+00 0.  1.
         12    1    4    4    0    0  0.20733132518E+02 -0.13464007935E+02 -0.35427032607E+02  0.43199733020E+02  0.00000000000E+00 0. -1.
         -5    1    5    5    0  502 -0.24026162834E+02  0.18741669600E+02  0.96594682114E+02  0.10139590373E+03  0.47000000000E+01 0.  1.
         13    1    6    6    0    0 -0.20943225255E+02 -0.47788379012E+02  0.13576867465E+02  0.53913627060E+02  0.00000000000E+00 0. -1.
        -14    1    6    6    0    0  0.81916412107E+01 -0.13411763932E+03  0.17090852804E+03  0.21740370080E+03  0.00000000000E+00 0.  1.
</event>
<event>
12    1  0.8500177E-002  0.2067335E+03  0.7818608E-02  0.1144269E+00
         21   -1    0    0  501  502  0.00000000000E+00  0.00000000000E+00  0.14893319727E+03  0.14893319727E+03  0.00000000000E+00 0.  1.
         21   -1    0    0  502  503 -0.00000000000E+00 -0.00000000000E+00 -0.30489330040E+03  0.30489330040E+03  0.00000000000E+00 0.  1.
         -6    2    1    2    0  503  0.10012065166E+03  0.54370153169E+02 -0.13401752470E+03  0.24637254000E+03  0.17250644363E+03 0.  0.
        -24    2    3    3    0    0  0.10847071936E+03  0.87489282542E+02 -0.73400036072E+02  0.17663610555E+03  0.79952967251E+02 0.  0.
          6    2    1    2  501    0 -0.10012065166E+03 -0.54370153169E+02 -0.21942578431E+02  0.20745395767E+03  0.17197502540E+03 0.  0.
         24    2    5    5    0    0 -0.85824442874E+02 -0.80887226339E+02  0.38644915057E+02  0.13962718477E+03  0.63982363884E+02 0.  0.
          5    1    5    5  501    0 -0.14296208781E+02  0.26517073170E+02 -0.60587493488E+02  0.67826772901E+02  0.47000000000E+01 0. -1.
        -11    1    6    6    0    0 -0.47664617442E+02 -0.87066474646E+01 -0.18522277171E+01  0.48488681292E+02  0.00000000000E+00 0.  1.
         12    1    6    6    0    0 -0.38159825432E+02 -0.72180578874E+02  0.40497142774E+02  0.91138503480E+02  0.00000000000E+00 0. -1.
         -5    1    3    3    0  503 -0.83500677034E+01 -0.33119129373E+02 -0.60617488633E+02  0.69736434446E+02  0.47000000000E+01 0.  1.
         13    1    4    4    0    0  0.61207629738E+02  0.92760645025E+02 -0.38373752224E+02  0.11757319449E+03  0.00000000000E+00 0. -1.
        -14    1    4    4    0    0  0.47263089621E+02 -0.52713624822E+01 -0.35026283848E+02  0.59062911062E+02  0.00000000000E+00 0.  1.
</event>
<event>
12    1  0.8500177E-002  0.1909795E+03  0.7818608E-02  0.1157703E+00
         21   -1    0    0  501  502  0.00000000000E+00  0.00000000000E+00  0.17164343865E+03  0.17164343865E+03  0.00000000000E+00 0. -1.
         21   -1    0    0  502  503 -0.00000000000E+00 -0.00000000000E+00 -0.40646947087E+03  0.40646947087E+03  0.00000000000E+00 0. -1.
         -6    2    1    2    0  503 -0.81947773926E+02  0.16160013456E+02 -0.31749505809E+03  0.37050815103E+03  0.17174572595E+03 0.  0.
        -24    2    3    3    0    0 -0.63499323018E+02 -0.52641949314E+02 -0.23023214393E+03  0.25776525055E+03  0.81441668932E+02 0.  0.
          6    2    1    2  501    0  0.81947773926E+02 -0.16160013456E+02  0.82669025861E+02  0.20760475849E+03  0.17114024724E+03 0.  0.
         24    2    5    5    0    0  0.15895218812E+02 -0.43063398031E+02  0.99692160238E+02  0.13412952972E+03  0.77104407787E+02 0.  0.
          5    1    5    5  501    0  0.66052555114E+02  0.26903384574E+02 -0.17023134377E+02  0.73475228769E+02  0.47000000000E+01 0. -1.
        -13    1    6    6    0    0  0.10009334986E+01 -0.63986305531E+02  0.73277248616E+02  0.97287225925E+02  0.00000000000E+00 0.  1.
         14    1    6    6    0    0  0.14894285313E+02  0.20922907501E+02  0.26414911622E+02  0.36842303800E+02  0.00000000000E+00 0. -1.
         -5    1    3    3    0  503 -0.18448450908E+02  0.68801962770E+02 -0.87262914152E+02  0.11274290048E+03  0.47000000000E+01 0.  1.
         13    1    4    4    0    0 -0.59497311370E+01  0.20554364498E+02 -0.60477763213E+02  0.64151703358E+02  0.00000000000E+00 0. -1.
        -14    1    4    4    0    0 -0.57549591881E+02 -0.73196313813E+02 -0.16975438072E+03  0.19361354719E+03  0.00000000000E+00 0.  1.
</event>
<event>
12    1  0.8500177E-002  0.2405440E+03  0.7818608E-02  0.1119540E+00
         21   -1    0    0  503  502  0.00000000000E+00  0.00000000000E+00  0.94781709587E+03  0.94781709587E+03  0.00000000000E+00 0.  1.
         21   -1    0    0  501  503 -0.00000000000E+00 -0.00000000000E+00 -0.73204194555E+02  0.73204194555E+02  0.00000000000E+00 0.  1.
          6    2    1    2  501    0 -0.74579263322E+02 -0.15196878399E+03  0.22834608241E+03  0.33166749272E+03  0.17089416183E+03 0.  0.
         24    2    3    3    0    0  0.16926346676E+02 -0.17102886133E+02  0.86381466359E+02  0.11547746224E+03  0.72761780008E+02 0.  0.
         -6    2    1    2    0  502  0.74579263322E+02  0.15196878399E+03  0.64626681890E+03  0.68935379771E+03  0.16997434915E+03 0.  0.
        -24    2    5    5    0    0  0.11844957595E+03  0.11640626493E+03  0.47495939181E+03  0.50891649095E+03  0.76346907832E+02 0.  0.
          5    1    3    3  501    0 -0.91505609998E+02 -0.13486589786E+03  0.14196461606E+03  0.21619003048E+03  0.47000000000E+01 0. -1.
        -13    1    4    4    0    0  0.36058399907E+01 -0.22875729390E+02  0.95543816179E+02  0.98310334591E+02  0.00000000000E+00 0.  1.
         14    1    4    4    0    0  0.13320506685E+02  0.57728432573E+01 -0.91623498202E+01  0.17167127653E+02  0.00000000000E+00 0. -1.
         -5    1    5    5    0  502 -0.43870312625E+02  0.35562519063E+02  0.17130742709E+03  0.18043730676E+03  0.47000000000E+01 0.  1.
         11    1    6    6    0    0  0.96209936691E+02  0.55080118341E+02  0.22854928147E+03  0.25401760848E+03  0.00000000000E+00 0. -1.
        -12    1    6    6    0    0  0.22239639256E+02  0.61326146588E+02  0.24641011034E+03  0.25489888247E+03  0.00000000000E+00 0.  1.
</event>
<event>
12    1  0.8500177E-002  0.2037987E+03  0.7818608E-02  0.1147088E+00
         21   -1    0    0  501  502  0.00000000000E+00  0.00000000000E+00  0.11856539786E+03  0.11856539786E+03  0.00000000000E+00 0.  1.
         21   -1    0    0  502  503 -0.00000000000E+00 -0.00000000000E+00 -0.46693565537E+03  0.46693565537E+03  0.00000000000E+00 0.  1.
         -6    2    1    2    0  503  0.10595681436E+03  0.26236525056E+02 -0.32235129203E+03  0.38004814821E+03  0.16914797582E+03 0.  0.
        -24    2    3    3    0    0  0.12227264683E+03 -0.12661804751E+01 -0.17111534913E+03  0.22539690953E+03  0.81062326273E+02 0.  0.
          6    2    1    2  501    0 -0.10595681436E+03 -0.26236525056E+02 -0.26018965483E+02  0.20545290502E+03  0.17210086537E+03 0.  0.
         24    2    5    5    0    0 -0.33279147108E+02  0.33121474232E+02  0.28878931252E+02  0.96635238890E+02  0.79371550556E+02 0.  0.
          5    1    5    5  501    0 -0.72677667251E+02 -0.59357999288E+02 -0.54897896735E+02  0.10881766613E+03  0.47000000000E+01 0. -1.
        -13    1    6    6    0    0  0.43385364762E+00  0.28953066038E+01  0.47562822702E+02  0.47652839713E+02  0.00000000000E+00 0.  1.
         14    1    6    6    0    0 -0.33713000755E+02  0.30226167628E+02 -0.18683891450E+02  0.48982399177E+02  0.00000000000E+00 0. -1.
         -5    1    3    3    0  503 -0.16315832469E+02  0.27502705531E+02 -0.15123594290E+03  0.15465123868E+03  0.47000000000E+01 0.  1.
         13    1    4    4    0    0  0.62292919698E+01  0.18368761331E+02 -0.21963936323E+01  0.19520236071E+02  0.00000000000E+00 0. -1.
        -14    1    4    4    0    0  0.11604335486E+03 -0.19634941806E+02 -0.16891895550E+03  0.20587667346E+03  0.00000000000E+00 0.  1.
</event>
<event>
12    1  0.8500177E-002  0.1867337E+03  0.7818608E-02  0.1161539E+00
         21   -1    0    0  503  502  0.00000000000E+00  0.00000000000E+00  0.92826247502E+02  0.92826247502E+02  0.00000000000E+00 0. -1.
         21   -1    0    0  501  503 -0.00000000000E+00 -0.00000000000E+00 -0.72374263348E+03  0.72374263348E+03  0.00000000000E+00 0.  1.
          6    2    1    2  501    0 -0.64352590036E+02  0.35647542352E+02 -0.59914711293E+03  0.62757211023E+03  0.17163183704E+03 0.  0.
         24    2    3    3    0    0 -0.28988328453E+02 -0.30597825801E+02 -0.17872903270E+03  0.20047430880E+03  0.80432152958E+02 0.  0.
         -6    2    1    2    0  502  0.64352590036E+02 -0.35647542352E+02 -0.31769273047E+02  0.18899677075E+03  0.17116801548E+03 0.  0.
        -24    2    5    5    0    0  0.77429540865E+02 -0.28943392704E+02 -0.73408213979E+02  0.14459132438E+03  0.93192442974E+02 0.  0.
          5    1    3    3  501    0 -0.35364261583E+02  0.66245368153E+02 -0.42041808023E+03  0.42709780143E+03  0.47000000000E+01 0. -1.
        -13    1    4    4    0    0 -0.46493498256E+02 -0.24138228216E+02 -0.17329534074E+03  0.18104025675E+03  0.00000000000E+00 0.  1.
         14    1    4    4    0    0  0.17505169803E+02 -0.64595975850E+01 -0.54336919565E+01  0.19434052050E+02  0.00000000000E+00 0. -1.
         -5    1    5    5    0  502 -0.13076950829E+02 -0.67041496487E+01  0.41638940931E+02  0.44405446370E+02  0.47000000000E+01 0.  1.
         13    1    6    6    0    0  0.64877457355E+02 -0.61595184633E+02 -0.49773245507E+02  0.10237395768E+03  0.00000000000E+00 0. -1.
        -14    1    6    6    0    0  0.12552083510E+02  0.32651791929E+02 -0.23634968472E+02  0.42217366702E+02  0.00000000000E+00 0.  1.
</event>
<event>
12    1  0.8500177E-002  0.1795332E+03  0.7818608E-02  0.1168518E+00
         21   -1    0    0  503  502  0.00000000000E+00  0.00000000000E+00  0.19598401036E+03  0.19598401036E+03  0.00000000000E+00 0. -1.
         21   -1    0    0  501  503 -0.00000000000E+00 -0.00000000000E+00 -0.18501806393E+03  0.18501806393E+03  0.00000000000E+00 0.  1.
          6    2    1    2  501    0  0.10740598052E+02  0.49793085447E+02 -0.59532001874E+02  0.18812353062E+03  0.17103125949E+03 0.  0.
         24    2    3    3    0    0 -0.91502880494E+01 -0.34142746957E+02 -0.40055783790E+01  0.85429105179E+02  0.77670022611E+02 0.  0.
         -6    2    1    2    0  502 -0.10740598052E+02 -0.49793085447E+02  0.70497948300E+02  0.19287854366E+03  0.17215533708E+03 0.  0.
        -24    2    5    5    0    0 -0.18705357627E+02 -0.85885278397E+02  0.92137318886E+02  0.14979216361E+03  0.78881146650E+02 0.  0.
          5    1    3    3  501    0  0.19890886101E+02  0.83935832404E+02 -0.55526423495E+02  0.10269442544E+03  0.47000000000E+01 0. -1.
        -11    1    4    4    0    0  0.23883812970E+02 -0.41721115840E+02 -0.14041069769E+02  0.50082328911E+02  0.00000000000E+00 0.  1.
         12    1    4    4    0    0 -0.33034101020E+02  0.75783688826E+01  0.10035491390E+02  0.35346776268E+02  0.00000000000E+00 0. -1.
         -5    1    5    5    0  502  0.79647595749E+01  0.36092192950E+02 -0.21639370586E+02  0.43086380057E+02  0.47000000000E+01 0.  1.
         11    1    6    6    0    0 -0.34770115151E+02 -0.40938598649E+02  0.97681042153E+01  0.54592541862E+02  0.00000000000E+00 0. -1.
        -12    1    6    6    0    0  0.16064757524E+02 -0.44946679748E+02  0.82369214670E+02  0.95199621743E+02  0.00000000000E+00 0.  1.
</event>
<event>
12    1  0.8500177E-002  0.1929753E+03  0.7818608E-02  0.1156103E+00
         21   -1    0    0  501  502  0.00000000000E+00  0.00000000000E+00  0.64989249973E+03  0.64989249973E+03  0.00000000000E+00 0.  1.
         21   -1    0    0  502  503 -0.00000000000E+00 -0.00000000000E+00 -0.68901487347E+02  0.68901487347E+02  0.00000000000E+00 0.  1.
         -6    2    1    2    0  503  0.57884178141E+02  0.57878789268E+02  0.13967700968E+03  0.23713276778E+03  0.17326785679E+03 0.  0.
        -24    2    3    3    0    0  0.14794531005E+02 -0.61228855973E+01  0.56525229428E+01  0.82415008232E+02  0.80646851709E+02 0.  0.
          6    2    1    2  501    0 -0.57884178141E+02 -0.57878789268E+02  0.44131400270E+03  0.48166121929E+03  0.17475396665E+03 0.  0.
         24    2    5    5    0    0 -0.75037068440E+02 -0.87177804932E+02  0.41521695891E+03  0.43858222604E+03  0.81967766357E+02 0.  0.
          5    1    5    5  501    0  0.17152890299E+02  0.29299015664E+02  0.26097043792E+02  0.43078993247E+02  0.47000000000E+01 0. -1.
        -11    1    6    6    0    0 -0.45218556020E+02 -0.82432693937E+02  0.38323295769E+03  0.39459772769E+03  0.00000000000E+00 0.  1.
         12    1    6    6    0    0 -0.29818512419E+02 -0.47451109950E+01  0.31984001217E+02  0.43984498350E+02  0.00000000000E+00 0. -1.
         -5    1    3    3    0  503  0.43089647136E+02  0.64001674865E+02  0.13402448673E+03  0.15471775955E+03  0.47000000000E+01 0.  1.
         11    1    4    4    0    0  0.28777637775E+02 -0.37740813952E+02  0.60206261529E+01  0.47841084990E+02  0.00000000000E+00 0. -1.
        -12    1    4    4    0    0 -0.13983106770E+02  0.31617928355E+02 -0.36810321013E+00  0.34573923243E+02  0.00000000000E+00 0.  1.
</event>
<event>
12    1  0.8500177E-002  0.1845596E+03  0.7818608E-02  0.1163747E+00
         21   -1    0    0  503  502  0.00000000000E+00  0.00000000000E+00  0.57637678642E+02  0.57637678642E+02  0.00000000000E+00 0.  1.
         21   -1    0    0  501  503 -0.00000000000E+00 -0.00000000000E+00 -0.65746816270E+03  0.65746816270E+03  0.00000000000E+00 0.  1.
          6    2    1    2  501    0 -0.35273100604E+02  0.53233733907E+02 -0.41601356481E+03  0.45462375385E+03  0.17186462523E+03 0.  0.
         24    2    3    3    0    0 -0.63724255767E+02 -0.37027811153E+01 -0.13756955763E+03  0.16895893258E+03  0.74479838564E+02 0.  0.
         -6    2    1    2    0  502  0.35273100604E+02 -0.53233733907E+02 -0.18381691925E+03  0.26048208750E+03  0.17315956818E+03 0.  0.
        -24    2    5    5    0    0  0.78230036788E+01 -0.48305279139E+01 -0.18806554023E+03  0.20447745419E+03  0.79736117672E+02 0.  0.
          5    1    3    3  501    0  0.28451155164E+02  0.56936515022E+02 -0.27844400718E+03  0.28566482127E+03  0.47000000000E+01 0. -1.
        -11    1    4    4    0    0 -0.69314253255E+02  0.13105612440E+02 -0.13318127069E+03  0.15070989896E+03  0.00000000000E+00 0.  1.
         12    1    4    4    0    0  0.55899974881E+01 -0.16808393556E+02 -0.43882869335E+01  0.18249033620E+02  0.00000000000E+00 0. -1.
         -5    1    5    5    0  502  0.27450096925E+02 -0.48403205993E+02  0.42486209841E+01  0.56004633307E+02  0.47000000000E+01 0.  1.
         13    1    6    6    0    0  0.12326355984E+02 -0.13238286770E+02 -0.20349677882E+01  0.18202537800E+02  0.00000000000E+00 0. -1.
        -14    1    6    6    0    0 -0.45033523056E+01  0.84077588562E+01 -0.18603057245E+03  0.18627491639E+03  0.00000000000E+00 0.  1.
</event>
<event>
12    1  0.8500177E-002  0.1852770E+03  0.7818608E-02  0.1164121E+00
         21   -1    0    0  501  502  0.00000000000E+00  0.00000000000E+00  0.34454975502E+02  0.34454975502E+02  0.00000000000E+00 0.  1.
         21   -1    0    0  502  503 -0.00000000000E+00 -0.00000000000E+00 -0.97778458080E+03  0.97778458080E+03  0.00000000000E+00 0.  1.
         -6    2    1    2    0  503 -0.46662555079E+02 -0.25521778122E+02 -0.53358484869E+03  0.56483657610E+03  0.17747904592E+03 0.  0.
        -24    2    3    3    0    0 -0.60938650330E+02  0.24566769007E+02 -0.17885691314E+03  0.20627463207E+03  0.79008754022E+02 0.  0.
          6    2    1    2  501    0  0.46662555079E+02  0.25521778122E+02 -0.40974475661E+03  0.44740298021E+03  0.17160974892E+03 0.  0.
         24    2    5    5    0    0 -0.23675232420E+00  0.62988631018E+02 -0.33976338116E+03  0.35508400593E+03  0.81718250126E+02 0.  0.
          5    1    5    5  501    0  0.46899307403E+02 -0.37466852896E+02 -0.69981375451E+02  0.92318974273E+02  0.47000000000E+01 0. -1.
        -11    1    6    6    0    0 -0.39850202056E+02  0.34857094157E+02 -0.14537429876E+03  0.15471503597E+03  0.00000000000E+00 0.  1.
         12    1    6    6    0    0  0.39613449732E+02  0.28131536861E+02 -0.19438908240E+03  0.20036896996E+03  0.00000000000E+00 0. -1.
         -5    1    3    3    0  503  0.14276095251E+02 -0.50088547129E+02 -0.35472793555E+03  0.35856194403E+03  0.47000000000E+01 0.  1.
         11    1    4    4    0    0 -0.47853745934E+02  0.43013956374E+02 -0.17037404434E+03  0.18211945647E+03  0.00000000000E+00 0. -1.
        -12    1    4    4    0    0 -0.13084904396E+02 -0.18447187367E+02 -0.84828688083E+01  0.24155175595E+02  0.00000000000E+00 0.  1.
</event>
<event>
12    1  0.8500177E-002  0.2212103E+03  0.7818608E-02  0.1133101E+00
         21   -1    0    0  501  502  0.00000000000E+00  0.00000000000E+00  0.66180562301E+02  0.66180562301E+02  0.00000000000E+00 0. -1.
         21   -1    0    0  502  503 -0.00000000000E+00 -0.00000000000E+00 -0.80973117523E+03  0.80973117523E+03  0.00000000000E+00 0. -1.
         -6    2    1    2    0  503 -0.13188994982E+03 -0.43080624671E+02 -0.24126263965E+03  0.32732500577E+03  0.17228783773E+03 0.  0.
        -24    2    3    3    0    0 -0.11486061179E+03 -0.62542649655E+01 -0.24784363875E+03  0.28595377577E+03  0.84326844126E+02 0.  0.
          6    2    1    2  501    0  0.13188994982E+03  0.43080624671E+02 -0.50228797328E+03  0.54858673175E+03  0.17147389034E+03 0.  0.
         24    2    5    5    0    0  0.10721756566E+03 -0.31572032507E+02 -0.34157432366E+03  0.36960988146E+03  0.86290476146E+02 0.  0.
          5    1    5    5  501    0  0.24672384160E+02  0.74652657178E+02 -0.16071364962E+03  0.17897685029E+03  0.47000000000E+01 0. -1.
        -13    1    6    6    0    0 -0.12663874432E+02 -0.48993675982E+00 -0.11678235881E+02  0.17233541335E+02  0.00000000000E+00 0.  1.
         14    1    6    6    0    0  0.11988144009E+03 -0.31082095747E+02 -0.32989608777E+03  0.35237634013E+03  0.00000000000E+00 0. -1.
         -5    1    3    3    0  503 -0.17029338030E+02 -0.36826359706E+02  0.65809990979E+01  0.41371230004E+02  0.47000000000E+01 0.  1.
         13    1    4    4    0    0 -0.22057754897E+02 -0.35717174629E+02 -0.10500952704E+03  0.11308961882E+03  0.00000000000E+00 0. -1.
        -14    1    4    4    0    0 -0.92802856893E+02  0.29462909664E+02 -0.14283411170E+03  0.17286415695E+03  0.00000000000E+00 0.  1.
</event>
<event>
12    1  0.8500177E-002  0.3229358E+03  0.7818608E-02  0.1074326E+00
         21   -1    0    0  503  502  0.00000000000E+00  0.00000000000E+00  0.20826543636E+03  0.20826543636E+03  0.00000000000E+00 0.  1.
         21   -1    0    0  501  503 -0.00000000000E+00 -0.00000000000E+00 -0.53785801738E+03  0.53785801738E+03  0.00000000000E+00 0. -1.
          6    2    1    2  501    0  0.20634984772E+03  0.17832174967E+03 -0.26319946059E+03  0.41660710797E+03  0.17294108910E+03 0.  0.
         24    2    3    3    0    0  0.17502689115E+03  0.20467623076E+03 -0.22248482488E+03  0.35868079407E+03  0.81398050755E+02 0.  0.
         -6    2    1    2    0  502 -0.20634984772E+03 -0.17832174967E+03 -0.66393120425E+02  0.32951634577E+03  0.17260958730E+03 0.  0.
        -24    2    5    5    0    0 -0.28705514473E+02 -0.66451367582E+02 -0.50128048579E+02  0.11890026355E+03  0.79904071262E+02 0.  0.
          5    1    3    3  501    0  0.31322956574E+02 -0.26354481089E+02 -0.40714635705E+02  0.57926313905E+02  0.47000000000E+01 0. -1.
        -13    1    4    4    0    0  0.52363524087E+02  0.81720195673E+02 -0.35158885260E+02  0.10322924125E+03  0.00000000000E+00 0.  1.
         14    1    4    4    0    0  0.12266336706E+03  0.12295603509E+03 -0.18732593962E+03  0.25545155282E+03  0.00000000000E+00 0. -1.
         -5    1    5    5    0  502 -0.17764433325E+03 -0.11187038209E+03 -0.16265071846E+02  0.21061608221E+03  0.47000000000E+01 0.  1.
         11    1    6    6    0    0 -0.16304869161E+02 -0.60045756698E+02  0.46292944276E+01  0.62392083013E+02  0.00000000000E+00 0. -1.
        -12    1    6    6    0    0 -0.12400645312E+02 -0.64056108841E+01 -0.54757343007E+02  0.56508180542E+02  0.00000000000E+00 0.  1.
</event>
<event>
12    1  0.8500177E-002  0.3170666E+03  0.7818608E-02  0.1077447E+00
         21   -1    0    0  501  502  0.00000000000E+00  0.00000000000E+00  0.31330216719E+03  0.31330216719E+03  0.00000000000E+00 0.  1.
         21   -1    0    0  502  503 -0.00000000000E+00 -0.00000000000E+00 -0.57811780286E+03  0.57811780286E+03  0.00000000000E+00 0. -1.
         -6    2    1    2    0  503 -0.14774724740E+03  0.22096594413E+03 -0.43233245971E+03  0.53613675083E+03  0.17284693314E+03 0.  0.
        -24    2    3    3    0    0 -0.14448011003E+03  0.20744389269E+03 -0.44425854892E+03  0.51722004748E+03  0.79015494831E+02 0.  0.
          6    2    1    2  501    0  0.14774724740E+03 -0.22096594413E+03  0.16751682403E+03  0.35528321922E+03  0.16585862036E+03 0.  0.
         24    2    5    5    0    0  0.28025000577E+02 -0.47071013913E+02  0.80629724351E+02  0.12693190823E+03  0.81298683079E+02 0.  0.
          5    1    5    5  501    0  0.11972224682E+03 -0.17389493022E+03  0.86887099682E+02  0.22835131099E+03  0.47000000000E+01 0. -1.
        -13    1    6    6    0    0  0.34818881626E+02 -0.67760088451E+02  0.64734618749E+02  0.99971770861E+02  0.00000000000E+00 0.  1.
         14    1    6    6    0    0 -0.67938810490E+01  0.20689074538E+02  0.15895105602E+02  0.26960137371E+02  0.00000000000E+00 0. -1.
         -5    1    3    3    0  503 -0.32671373700E+01  0.13522051441E+02  0.11926089211E+02  0.18916703350E+02  0.47000000000E+01 0.  1.
         13    1    4    4    0    0 -0.10493505474E+03  0.14457773141E+03 -0.23514218512E+03  0.29530650748E+03  0.00000000000E+00 0. -1.
        -14    1    4    4    0    0 -0.39545055281E+02  0.62866161285E+02 -0.20911636379E+03  0.22191354000E+03  0.00000000000E+00 0.  1.
</event>
<event>
12    1  0.8500177E-002  0.2204087E+03  0.7818608E-02  0.1133818E+00
         21   -1    0    0  501  502  0.00000000000E+00  0.00000000000E+00  0.10755217826E+03  0.10755217826E+03  0.00000000000E+00 0.  1.
         21   -1    0    0  502  503 -0.00000000000E+00 -0.00000000000E+00 -0.49816208610E+03  0.49816208610E+03  0.00000000000E+00 0. -1.
         -6    2    1    2    0  503  0.13129467915E+03  0.41767690822E+02 -0.28987044064E+03  0.36337471542E+03  0.17039213210E+03 0.  0.
        -24    2    3    3    0    0  0.14356385503E+03  0.49498690902E+01 -0.16677932358E+03  0.23422519830E+03  0.80068839559E+02 0.  0.
          6    2    1    2  501    0 -0.13129467915E+03 -0.41767690822E+02 -0.10073946719E+03  0.24233954894E+03  0.17203832120E+03 0.  0.
         24    2    5    5    0    0 -0.93848126600E+02 -0.49315294936E+02  0.20439847552E+01  0.13258646871E+03  0.79596008887E+02 0.  0.
          5    1    5    5  501    0 -0.37446552546E+02  0.75476041135E+01 -0.10278345195E+03  0.10975308023E+03  0.47000000000E+01 0. -1.
        -13    1    6    6    0    0 -0.44510453259E+01  0.16600359304E+02  0.12163759804E+02  0.21055659241E+02  0.00000000000E+00 0.  1.
         14    1    6    6    0    0 -0.89397081274E+02 -0.65915654239E+02 -0.10119775049E+02  0.11153080947E+03  0.00000000000E+00 0. -1.
         -5    1    3    3    0  503 -0.12269175885E+02  0.36817821732E+02 -0.12309111706E+03  0.12914951712E+03  0.47000000000E+01 0.  1.
         11    1    4    4    0    0 -0.49178072320E+01  0.14133887474E+02 -0.94507867466E+01  0.17699406014E+02  0.00000000000E+00 0. -1.
        -12    1    4    4    0    0  0.14848166226E+03 -0.91840183839E+01 -0.15732853684E+03  0.21652579229E+03  0.00000000000E+00 0.  1.
</event>
<event>
12    1  0.8500177E-002  0.2601844E+03  0.7818608E-02  0.1107073E+00
         21   -1    0    0  503  502  0.00000000000E+00  0.00000000000E+00  0.24625086339E+03  0.24625086339E+03  0.00000000000E+00 0.  1.
         21   -1    0    0  501  503 -0.00000000000E+00 -0.00000000000E+00 -0.37739237775E+03  0.37739237775E+03  0.00000000000E+00 0. -1.
          6    2    1    2  501    0  0.33055835696E+02 -0.19210597224E+03 -0.22831851389E+03  0.34615786538E+03  0.17233261774E+03 0.  0.
         24    2    3    3    0    0 -0.13111877514E+02 -0.14791645413E+03 -0.21665741182E+03  0.28102536539E+03  0.99918082252E+02 0.  0.
         -6    2    1    2    0  502 -0.33055835696E+02  0.19210597224E+03  0.97176999531E+02  0.27748537576E+03  0.17192257467E+03 0.  0.
        -24    2    5    5    0    0 -0.82977050104E+02  0.15998320217E+03  0.55174531205E+02  0.20461358870E+03  0.79640918911E+02 0.  0.
          5    1    3    3  501    0  0.46167713209E+02 -0.44189518108E+02 -0.11661102071E+02  0.65132499991E+02  0.47000000000E+01 0. -1.
        -13    1    4    4    0    0 -0.97687645586E+01  0.82357405484E+01  0.13439565828E+01  0.12847661370E+02  0.00000000000E+00 0.  1.
         14    1    4    4    0    0 -0.33431129551E+01 -0.15615219468E+03 -0.21800136840E+03  0.26817770402E+03  0.00000000000E+00 0. -1.
         -5    1    5    5    0  502  0.49921214409E+02  0.32122770070E+02  0.42002468325E+02  0.72871787068E+02  0.47000000000E+01 0.  1.
         13    1    6    6    0    0 -0.10075651538E+02  0.29303681982E+02  0.44989600848E+02  0.54628643733E+02  0.00000000000E+00 0. -1.
        -14    1    6    6    0    0 -0.72901398566E+02  0.13067952019E+03  0.10184930358E+02  0.14998494496E+03  0.00000000000E+00 0.  1.
</event>
<event>
12    1  0.8500177E-002  0.2483471E+03  0.7818608E-02  0.1115259E+00
         21   -1    0    0  501  502  0.00000000000E+00  0.00000000000E+00  0.17730487193E+04  0.17730487193E+04  0.00000000000E+00 0.  1.
         21   -1    0    0  502  503 -0.00000000000E+00 -0.00000000000E+00 -0.50286698412E+02  0.50286698412E+02  0.00000000000E+00 0. -1.
         -6    2    1    2    0  503  0.35900775574E+02 -0.17610660637E+03  0.33598505355E+03  0.41449665348E+03  0.16315366083E+03 0.  0.
        -24    2    3    3    0    0  0.23770484202E+02 -0.16373457236E+03  0.17974580611E+03  0.25722935352E+03  0.80525395967E+02 0.  0.
          6    2    1    2  501    0 -0.35900775574E+02  0.17610660637E+03  0.13867769674E+04  0.14088387643E+04  0.17138816753E+03 0.  0.
         24    2    5    5    0    0  0.20423408264E+02  0.15893685278E+03  0.81918830543E+03  0.83818458415E+03  0.76196315986E+02 0.  0.
          5    1    5    5  501    0 -0.56324183839E+02  0.17169753599E+02  0.56758866195E+03  0.57065418013E+03  0.47000000000E+01 0. -1.
        -11    1    6    6    0    0  0.32850712390E+02  0.32451345442E+02  0.14684100781E+03  0.15393031118E+03  0.00000000000E+00 0.  1.
         12    1    6    6    0    0 -0.12427304125E+02  0.12648550733E+03  0.67234729762E+03  0.68425427296E+03  0.00000000000E+00 0. -1.
         -5    1    3    3    0  503  0.12130291373E+02 -0.12372034015E+02  0.15623924745E+03  0.15726729996E+03  0.47000000000E+01 0.  1.
         11    1    4    4    0    0  0.50756523144E+02 -0.13157252065E+03  0.12670119478E+03  0.18958044622E+03  0.00000000000E+00 0. -1.
        -12    1    4    4    0    0 -0.26986038942E+02 -0.32162051713E+02  0.53044611329E+02  0.67648907302E+02  0.00000000000E+00 0.  1.
</event>
<event>
12    1  0.8500177E-002  0.2354573E+03  0.7818608E-02  0.1123568E+00
         21   -1    0    0  501  502  0.00000000000E+00  0.00000000000E+00  0.10288743250E+03  0.10288743250E+03  0.00000000000E+00 0.  1.
         21   -1    0    0  502  503 -0.00000000000E+00 -0.00000000000E+00 -0.74738765378E+03  0.74738765378E+03  0.00000000000E+00 0. -1.
         -6    2    1    2    0  503  0.13296622846E+03  0.91072566414E+02 -0.55384802407E+03  0.60182038135E+03  0.17165636422E+03 0.  0.
        -24    2    3    3    0    0  0.60773207834E+02  0.19707356880E+02 -0.41786331774E+03  0.43205950330E+03  0.89352668560E+02 0.  0.
          6    2    1    2  501    0 -0.13296622846E+03 -0.91072566414E+02 -0.90652197212E+02  0.24845470493E+03  0.16594483806E+03 0.  0.
         24    2    5    5    0    0 -0.46343577671E+02 -0.11038579184E+03 -0.59039590678E+02  0.15412585888E+03  0.77047757105E+02 0.  0.
          5    1    5    5  501    0 -0.86622650786E+02  0.19313225430E+02 -0.31612606534E+02  0.94328846052E+02  0.47000000000E+01 0. -1.
        -11    1    6    6    0    0  0.39989739013E+01  0.84565022754E+01  0.43704431873E+01  0.10324969571E+02  0.00000000000E+00 0.  1.
         12    1    6    6    0    0 -0.50342551572E+02 -0.11884229412E+03 -0.63410033865E+02  0.14380088931E+03  0.00000000000E+00 0. -1.
         -5    1    3    3    0  503  0.72193020623E+02  0.71365209534E+02 -0.13598470634E+03  0.16976087805E+03  0.47000000000E+01 0.  1.
         11    1    4    4    0    0 -0.84656247155E+01  0.14247260750E+02 -0.24789493428E+03  0.24844828372E+03  0.00000000000E+00 0. -1.
        -12    1    4    4    0    0  0.69238832549E+02  0.54600961298E+01 -0.16996838345E+03  0.18361121958E+03  0.00000000000E+00 0.  1.
</event>
<event>
12    1  0.8500177E-002  0.2800883E+03  0.7818608E-02  0.1095659E+00
         21   -1    0    0  503  502  0.00000000000E+00  0.00000000000E+00  0.10768871409E+04  0.10768871409E+04  0.00000000000E+00 0. -1.
         21   -1    0    0  501  503 -0.00000000000E+00 -0.00000000000E+00 -0.72876485905E+02  0.72876485905E+02  0.00000000000E+00 0. -1.
          6    2    1    2  501    0  0.87457732729E+02  0.20287824218E+03  0.48529733692E+03  0.56032397971E+03  0.17216567850E+03 0.  0.
         24    2    3    3    0    0  0.70299802360E+02  0.12128371425E+03  0.16983815137E+03  0.23399799345E+03  0.79109175978E+02 0.  0.
         -6    2    1    2    0  502 -0.87457732729E+02 -0.20287824218E+03  0.51871331806E+03  0.58943964708E+03  0.17195102515E+03 0.  0.
        -24    2    5    5    0    0 -0.23797140438E+02 -0.19321040992E+03  0.44384173555E+03  0.49057619650E+03  0.75979944504E+02 0.  0.
          5    1    3    3  501    0  0.17157930369E+02  0.81594527934E+02  0.31545918555E+03  0.32632598626E+03  0.47000000000E+01 0. -1.
        -13    1    4    4    0    0 -0.52719323202E+01  0.11040751480E+02  0.59310721703E+02  0.60559501092E+02  0.00000000000E+00 0.  1.
         14    1    4    4    0    0  0.75571734680E+02  0.11024296277E+03  0.11052742967E+03  0.17343849236E+03  0.00000000000E+00 0. -1.
         -5    1    5    5    0  502 -0.63660592291E+02 -0.96678322595E+01  0.74871582517E+02  0.98863450577E+02  0.47000000000E+01 0.  1.
         13    1    6    6    0    0 -0.44897802219E+02 -0.14352243969E+03  0.27658103800E+03  0.31481990713E+03  0.00000000000E+00 0. -1.
        -14    1    6    6    0    0  0.21100661781E+02 -0.49687970229E+02  0.16726069754E+03  0.17575628938E+03  0.00000000000E+00 0.  1.
</event>
<event>
12    1  0.8500177E-002  0.2194903E+03  0.7818608E-02  0.1135074E+00
         21   -1    0    0  501  502  0.00000000000E+00  0.00000000000E+00  0.17045336891E+03  0.17045336891E+03  0.00000000000E+00 0.  1.
         21   -1    0    0  502  503 -0.00000000000E+00 -0.00000000000E+00 -0.77922528528E+03  0.77922528528E+03  0.00000000000E+00 0.  1.
         -6    2    1    2    0  503 -0.57720513807E+02  0.11668981039E+03 -0.68660603875E+03  0.72083551962E+03  0.17671396193E+03 0.  0.
        -24    2    3    3    0    0 -0.65462429450E+02  0.12493891928E+03 -0.68955076388E+03  0.70823605688E+03  0.78885949809E+02 0.  0.
          6    2    1    2  501    0  0.57720513807E+02 -0.11668981039E+03  0.77834122379E+02  0.22884313457E+03  0.17135594553E+03 0.  0.
         24    2    5    5    0    0  0.21332470022E+02 -0.84530627377E+02  0.11826594090E+03  0.16547812268E+03  0.76129331196E+02 0.  0.
          5    1    5    5  501    0  0.36388043785E+02 -0.32159183014E+02 -0.40431818519E+02  0.63365011886E+02  0.47000000000E+01 0. -1.
        -11    1    6    6    0    0 -0.10844117271E+02 -0.24965197900E+02  0.86526653069E+02  0.90706767537E+02  0.00000000000E+00 0.  1.
         12    1    6    6    0    0  0.32176587293E+02 -0.59565429477E+02  0.31739287829E+02  0.74771355147E+02  0.00000000000E+00 0. -1.
         -5    1    3    3    0  503  0.77419156430E+01 -0.82491088853E+01  0.29447251354E+01  0.12599462740E+02  0.47000000000E+01 0.  1.
         11    1    4    4    0    0 -0.22326469462E+02  0.25370311432E+02 -0.35324214080E+03  0.35485508870E+03  0.00000000000E+00 0. -1.
        -12    1    4    4    0    0 -0.43135959988E+02  0.99568607845E+02 -0.33630862309E+03  0.35338096818E+03  0.00000000000E+00 0.  1.
</event>
<event>
12    1  0.8500177E-002  0.2234916E+03  0.7818608E-02  0.1132017E+00
         21   -1    0    0  503  502  0.00000000000E+00  0.00000000000E+00  0.68024479351E+02  0.68024479351E+02  0.00000000000E+00 0. -1.
         21   -1    0    0  501  503 -0.00000000000E+00 -0.00000000000E+00 -0.73912010191E+03  0.73912010191E+03  0.00000000000E+00 0.  1.
          6    2    1    2  501    0  0.11304440472E+03  0.77390885221E+02 -0.27636503265E+03  0.35542387770E+03  0.17657892008E+03 0.  0.
         24    2    3    3    0    0  0.10496455561E+03  0.57010521401E+01 -0.10911096284E+03  0.17321320294E+03  0.83949696432E+02 0.  0.
         -6    2    1    2    0  502 -0.11304440472E+03 -0.77390885221E+02 -0.39473058991E+03  0.45172070356E+03  0.17167110665E+03 0.  0.
        -24    2    5    5    0    0 -0.29343001239E+02 -0.11416829533E+02 -0.78692000569E+02  0.11816264126E+03  0.82332394102E+02 0.  0.
          5    1    3    3  501    0  0.80798491090E+01  0.71689833081E+02 -0.16725406981E+03  0.18221067476E+03  0.47000000000E+01 0. -1.
        -11    1    4    4    0    0 -0.10378042611E+02 -0.13097139212E+02 -0.73585695387E+01  0.18258898369E+02  0.00000000000E+00 0.  1.
         12    1    4    4    0    0  0.11534259823E+03  0.18798191352E+02 -0.10175239330E+03  0.15495430457E+03  0.00000000000E+00 0. -1.
         -5    1    5    5    0  502 -0.83701403485E+02 -0.65974055689E+02 -0.31603858934E+03  0.33355806229E+03  0.47000000000E+01 0.  1.
         13    1    6    6    0    0  0.16726078395E+02 -0.32785008986E+02 -0.26587657577E+02  0.45403987139E+02  0.00000000000E+00 0. -1.
        -14    1    6    6    0    0 -0.46069079633E+02  0.21368179453E+02 -0.52104342992E+02  0.72758654125E+02  0.00000000000E+00 0.  1.
</event>
<event>
12    1  0.8500177E-002  0.1916419E+03  0.7818608E-02  0.1157218E+00
         21   -1    0    0  503  502  0.00000000000E+00  0.00000000000E+00  0.60130548030E+02  0.60130548030E+02  0.00000000000E+00 0.  1.
         21   -1    0    0  501  503 -0.00000000000E+00 -0.00000000000E+00 -0.74321759676E+03  0.74321759676E+03  0.00000000000E+00 0.  1.
          6    2    1    2  501    0  0.35160829349E+02  0.75853527134E+02 -0.51242614599E+03  0.54673216468E+03  0.17130517594E+03 0.  0.
         24    2    3    3    0    0  0.19782692202E+02  0.73406140786E+02 -0.51795040718E+03  0.52955414781E+03  0.79844566190E+02 0.  0.
         -6    2    1    2    0  502 -0.35160829349E+02 -0.75853527134E+02 -0.17066090274E+03  0.25661598011E+03  0.17244296455E+03 0.  0.
        -24    2    5    5    0    0  0.21317447924E+02 -0.59172782996E+02 -0.17146751541E+03  0.19753312598E+03  0.75248755360E+02 0.  0.
          5    1    3    3  501    0  0.15378137147E+02  0.24473863482E+01  0.55242611875E+01  0.17178016873E+02  0.47000000000E+01 0. -1.
        -13    1    4    4    0    0 -0.87639147610E+00 -0.16104897861E+02 -0.45982818665E+02  0.48729410109E+02  0.00000000000E+00 0.  1.
         14    1    4    4    0    0  0.20659083678E+02  0.89511038647E+02 -0.47196758851E+03  0.48082473770E+03  0.00000000000E+00 0. -1.
         -5    1    5    5    0  502 -0.56478277273E+02 -0.16680744138E+02  0.80661266719E+00  0.59082854135E+02  0.47000000000E+01 0.  1.
         13    1    6    6    0    0  0.12406951474E+02 -0.41027776863E+02 -0.24884056619E+02  0.49562356613E+02  0.00000000000E+00 0. -1.
        -14    1    6    6    0    0  0.89104964504E+01 -0.18145006133E+02 -0.14658345879E+03  0.14797076936E+03  0.00000000000E+00 0.  1.
</event>
<event>
12    1  0.8500177E-002  0.1833073E+03  0.7818608E-02  0.1164840E+00
         21   -1    0    0  503  502  0.00000000000E+00  0.00000000000E+00  0.12612194493E+03  0.12612194493E+03  0.00000000000E+00 0.  1.
         21   -1    0    0  501  503 -0.00000000000E+00 -0.00000000000E+00 -0.69255906946E+03  0.69255906946E+03  0.00000000000E+00 0.  1.
          6    2    1    2  501    0  0.77812268667E+01 -0.62374314515E+02 -0.60452297149E+03  0.63145892413E+03  0.17129286968E+03 0.  0.
         24    2    3    3    0    0  0.14843522479E+02  0.13295681701E+01 -0.51562814255E+03  0.52176643897E+03  0.78394754514E+02 0.  0.
         -6    2    1    2    0  502 -0.77812268667E+01  0.62374314515E+02  0.38085846964E+02  0.18722209026E+03  0.17219313790E+03 0.  0.
        -24    2    5    5    0    0 -0.20597807279E+02 -0.33789982158E+02  0.27084557445E+02  0.89472639833E+02  0.75536398297E+02 0.  0.
          5    1    3    3  501    0 -0.70622956127E+01 -0.63703882685E+02 -0.88894828937E+02  0.10969248516E+03  0.47000000000E+01 0. -1.
        -13    1    4    4    0    0 -0.12958436706E+02 -0.24886429465E+02 -0.37471177646E+03  0.37576078943E+03  0.00000000000E+00 0.  1.
         14    1    4    4    0    0  0.27801959185E+02  0.26215997635E+02 -0.14091636609E+03  0.14600564955E+03  0.00000000000E+00 0. -1.
         -5    1    5    5    0  502  0.12816580412E+02  0.96164296673E+02  0.11001289519E+02  0.97749450428E+02  0.47000000000E+01 0.  1.
         13    1    6    6    0    0 -0.28520942410E+01 -0.33346240789E+02 -0.20113452534E+02  0.39046858890E+02  0.00000000000E+00 0. -1.
        -14    1    6    6    0    0 -0.17745713038E+02 -0.44374136857E+00  0.47198009979E+02  0.50425780942E+02  0.00000000000E+00 0.  1.
</event>
<event>
12    1  0.8500177E-002  0.1972801E+03  0.7818608E-02  0.1152435E+00
         21   -1    0    0  503  502  0.00000000000E+00  0.00000000000E+00  0.30519802138E+03  0.30519802138E+03  0.00000000000E+00 0. -1.
         21   -1    0    0  501  503 -0.00000000000E+00 -0.00000000000E+00 -0.15621969626E+03  0.15621969626E+03  0.00000000000E+00 0. -1.
          6    2    1    2  501    0 -0.97670254331E+02 -0.38658013413E+01  0.17558180938E+03  0.26409920527E+03  0.17136217622E+03 0.  0.
         24    2    3    3    0    0 -0.10106601364E+03 -0.57171636909E+02  0.14658932019E+03  0.20314268210E+03  0.79344724582E+02 0.  0.
         -6    2    1    2    0  502  0.97670254331E+02  0.38658013413E+01 -0.26603484258E+02  0.19731851237E+03  0.16932934462E+03 0.  0.
        -24    2    5    5    0    0  0.11292397317E+02  0.22866190354E+02  0.33805460559E+02  0.90110865355E+02  0.79541045963E+02 0.  0.
          5    1    3    3  501    0  0.33957593117E+01  0.53305835568E+02  0.28992489190E+02  0.60956523164E+02  0.47000000000E+01 0. -1.
        -13    1    4    4    0    0 -0.95549851689E+02 -0.44956353367E+02  0.15482790826E+03  0.18741005587E+03  0.00000000000E+00 0.  1.
         14    1    4    4    0    0 -0.55161619535E+01 -0.12215283542E+02 -0.82385880730E+01  0.15732626231E+02  0.00000000000E+00 0. -1.
         -5    1    5    5    0  502  0.86377857014E+02 -0.19000389013E+02 -0.60408944817E+02  0.10720764702E+03  0.47000000000E+01 0.  1.
         13    1    6    6    0    0  0.42953939334E+02 -0.23983543840E+01  0.17750637839E+02  0.46538996033E+02  0.00000000000E+00 0. -1.
        -14    1    6    6    0    0 -0.31661542016E+02  0.25264544738E+02  0.16054822720E+02  0.43571869322E+02  0.00000000000E+00 0.  1.
</event>
<event>
12    1  0.8500177E-002  0.2199218E+03  0.7818608E-02  0.1135638E+00
         21   -1    0    0  501  502  0.00000000000E+00  0.00000000000E+00  0.20346162245E+04  0.20346162245E+04  0.00000000000E+00 0.  1.
         21   -1    0    0  502  503 -0.00000000000E+00 -0.00000000000E+00 -0.32316941594E+02  0.32316941594E+02  0.00000000000E+00 0.  1.
         -6    2    1    2    0  503  0.11307533751E+03 -0.75858141092E+02  0.45556883217E+03  0.50587403393E+03  0.17269941468E+03 0.  0.
        -24    2    3    3    0    0 -0.35436133358E+01 -0.11911598980E+01  0.17582692906E+03  0.19369978750E+03  0.81182033945E+02 0.  0.
          6    2    1    2  501    0 -0.11307533751E+03  0.75858141092E+02  0.15467304508E+04  0.15610591322E+04  0.16121425923E+03 0.  0.
         24    2    5    5    0    0 -0.40850916375E+02 -0.68508189790E+01  0.93339017121E+03  0.93794956912E+03  0.82561803521E+02 0.  0.
          5    1    5    5  501    0 -0.72224421137E+02  0.82708960071E+02  0.61334027954E+03  0.62310956307E+03  0.47000000000E+01 0. -1.
        -13    1    6    6    0    0 -0.40248581664E+02  0.24385572829E+02  0.77954649492E+03  0.78096564728E+03  0.00000000000E+00 0.  1.
         14    1    6    6    0    0 -0.60233471102E+00 -0.31236391808E+02  0.15384367629E+03  0.15698392183E+03  0.00000000000E+00 0. -1.
         -5    1    3    3    0  503  0.11661895085E+03 -0.74666981194E+02  0.27974190311E+03  0.31217424643E+03  0.47000000000E+01 0.  1.
         13    1    4    4    0    0 -0.31463233289E+02 -0.18635028184E+02  0.14145610205E+03  0.14610622209E+03  0.00000000000E+00 0. -1.
        -14    1    4    4    0    0  0.27919619954E+02  0.17443868286E+02  0.34370827009E+02  0.47593565410E+02  0.00000000000E+00 0.  1.
</event>
<event>
12    1  0.8500177E-002  0.1782698E+03  0.7818608E-02  0.1169511E+00
         21   -1    0    0  503  502  0.00000000000E+00  0.00000000000E+00  0.81887118607E+03  0.81887118607E+03  0.00000000000E+00 0.  1.
         21   -1    0    0  501  503 -0.00000000000E+00 -0.00000000000E+00 -0.39142691921E+02  0.39142691921E+02  0.00000000000E+00 0.  1.
          6    2    1    2  501    0 -0.96581146413E+01  0.51441083646E+02  0.34921044243E+03  0.39208167619E+03  0.17041315512E+03 0.  0.
         24    2    3    3    0    0  0.43151445748E+02  0.76321361725E+02  0.22956188265E+03  0.25886851706E+03  0.81407945787E+02 0.  0.
         -6    2    1    2    0  502  0.96581146413E+01 -0.51441083646E+02  0.43051805172E+03  0.46593220180E+03  0.17031605783E+03 0.  0.
        -24    2    5    5    0    0 -0.61923027133E+01  0.17023526508E+02  0.10471673210E+03  0.13260469252E+03  0.79311193604E+02 0.  0.
          5    1    3    3  501    0 -0.52809560390E+02 -0.24880278078E+02  0.11964855979E+03  0.13321315913E+03  0.47000000000E+01 0. -1.
        -13    1    4    4    0    0 -0.84989852341E+01  0.45204741490E+02  0.43609257947E+02  0.63383505598E+02  0.00000000000E+00 0.  1.
         14    1    4    4    0    0  0.51650430982E+02  0.31116620235E+02  0.18595262470E+03  0.19548501147E+03  0.00000000000E+00 0. -1.
         -5    1    5    5    0  502  0.15850417355E+02 -0.68464610154E+02  0.32580131962E+03  0.33332750928E+03  0.47000000000E+01 0.  1.
         13    1    6    6    0    0 -0.34843433649E+02  0.13601090058E+02  0.95097102712E+02  0.10218861709E+03  0.00000000000E+00 0. -1.
        -14    1    6    6    0    0  0.28651130935E+02  0.34224364506E+01  0.96196293842E+01  0.30416075431E+02  0.00000000000E+00 0.  1.
</event>
<event>
12    1  0.8500177E-002  0.1933810E+03  0.7818608E-02  0.1157770E+00
         21   -1    0    0  503  502  0.00000000000E+00  0.00000000000E+00  0.27674465210E+04  0.27674465210E+04  0.00000000000E+00 0. -1.
         21   -1    0    0  501  503 -0.00000000000E+00 -0.00000000000E+00 -0.17872344805E+02  0.17872344805E+02  0.00000000000E+00 0. -1.
          6    2    1    2  501    0  0.83143290777E+01  0.87079893436E+02  0.66035170431E+03  0.68808471407E+03  0.17246496585E+03 0.  0.
         24    2    3    3    0    0  0.69166190779E+01  0.76593429832E+02  0.66685686149E+03  0.67480591209E+03  0.68924249512E+02 0.  0.
         -6    2    1    2    0  502 -0.83143290777E+01 -0.87079893436E+02  0.20892224719E+04  0.20972341518E+04  0.16089908098E+03 0.  0.
        -24    2    5    5    0    0 -0.16740242309E+02 -0.84361304767E+02  0.20811641422E+04  0.20843728371E+04  0.77258472512E+02 0.  0.
          5    1    3    3  501    0  0.13977099998E+01  0.10486463603E+02 -0.65051571750E+01  0.13278801980E+02  0.47000000000E+01 0. -1.
        -11    1    4    4    0    0 -0.11954861191E+02  0.70980249652E+02  0.34930172553E+03  0.35664100999E+03  0.00000000000E+00 0.  1.
         12    1    4    4    0    0  0.18871480269E+02  0.56131801808E+01  0.31755513596E+03  0.31816490210E+03  0.00000000000E+00 0. -1.
         -5    1    5    5    0  502  0.84259132311E+01 -0.27185886685E+01  0.80583296751E+01  0.12861314679E+02  0.47000000000E+01 0.  1.
         13    1    6    6    0    0 -0.25407169899E+02 -0.63158380249E+01  0.21990168433E+03  0.22145465645E+03  0.00000000000E+00 0. -1.
        -14    1    6    6    0    0  0.86669275898E+01 -0.78045466743E+02  0.18612624579E+04  0.18629181806E+04  0.00000000000E+00 0.  1.
</event>
<event>
12    1  0.8500177E-002  0.2139879E+03  0.7818608E-02  0.1138497E+00
         21   -1    0    0  501  502  0.00000000000E+00  0.00000000000E+00  0.51432350148E+02  0.51432350148E+02  0.00000000000E+00 0.  1.
         21   -1    0    0  502  503 -0.00000000000E+00 -0.00000000000E+00 -0.18096787140E+04  0.18096787140E+04  0.00000000000E+00 0. -1.
         -6    2    1    2    0  503  0.26524212931E+02 -0.12472637180E+03 -0.15425137703E+04  0.15572502794E+04  0.17152113452E+03 0.  0.
        -24    2    3    3    0    0 -0.47364474872E+02 -0.78323281619E+02 -0.75069832358E+03  0.76062830095E+03  0.81421798422E+02 0.  0.
          6    2    1    2  501    0 -0.26524212931E+02  0.12472637180E+03 -0.21573259362E+03  0.30386078477E+03  0.17184476388E+03 0.  0.
         24    2    5    5    0    0 -0.16247627180E+02  0.15851451285E+03 -0.18308837822E+03  0.25553913859E+03  0.79925346053E+02 0.  0.
          5    1    5    5  501    0 -0.10276585751E+02 -0.33788141043E+02 -0.32644215403E+02  0.48321646176E+02  0.47000000000E+01 0. -1.
        -11    1    6    6    0    0  0.17464664670E+02  0.33632438399E+02 -0.95238201633E+01  0.39075037750E+02  0.00000000000E+00 0.  1.
         12    1    6    6    0    0 -0.33712291850E+02  0.12488207445E+03 -0.17356455806E+03  0.21646410084E+03  0.00000000000E+00 0. -1.
         -5    1    3    3    0  503  0.73888687803E+02 -0.46403090185E+02 -0.79181544667E+03  0.79662197845E+03  0.47000000000E+01 0.  1.
         11    1    4    4    0    0 -0.23521355328E+02 -0.50331928034E+02 -0.66574358841E+03  0.66805769410E+03  0.00000000000E+00 0. -1.
        -12    1    4    4    0    0 -0.23843119544E+02 -0.27991353585E+02 -0.84954735173E+02  0.92570606855E+02  0.00000000000E+00 0.  1.
</event>
<event>
12    1  0.8500177E-002  0.1756511E+03  0.7818608E-02  0.1172233E+00
         21   -1    0    0  503  502  0.00000000000E+00  0.00000000000E+00  0.19809037771E+02  0.19809037771E+02  0.00000000000E+00 0. -1.
         21   -1    0    0  501  503 -0.00000000000E+00 -0.00000000000E+00 -0.16068439728E+04  0.16068439728E+04  0.00000000000E+00 0. -1.
          6    2    1    2  501    0 -0.30681784978E+02 -0.52017141211E+01 -0.94499339570E+03  0.96117940279E+03  0.17287248675E+03 0.  0.
         24    2    3    3    0    0  0.46885693478E+02 -0.92000161374E+01 -0.39725476294E+03  0.40794129858E+03  0.79510048798E+02 0.  0.
         -6    2    1    2    0  502  0.30681784978E+02  0.52017141211E+01 -0.64204153935E+03  0.66547360780E+03  0.17224794533E+03 0.  0.
        -24    2    5    5    0    0 -0.48473468285E+02 -0.54627745792E+01 -0.38113069999E+03  0.39257098499E+03  0.80447801413E+02 0.  0.
          5    1    3    3  501    0 -0.77567478456E+02  0.39983020163E+01 -0.54773863276E+03  0.55323810421E+03  0.47000000000E+01 0. -1.
        -11    1    4    4    0    0  0.49135891252E+02  0.23818700396E+02 -0.30681791907E+03  0.31163905686E+03  0.00000000000E+00 0.  1.
         12    1    4    4    0    0 -0.22501977738E+01 -0.33018716534E+02 -0.90436843874E+02  0.96302241726E+02  0.00000000000E+00 0. -1.
         -5    1    5    5    0  502  0.79155253263E+02  0.10664488700E+02 -0.26091083937E+03  0.27290262281E+03  0.47000000000E+01 0.  1.
         13    1    6    6    0    0  0.81589566599E+01  0.25222047352E+02 -0.16255580903E+03  0.16470310045E+03  0.00000000000E+00 0. -1.
        -14    1    6    6    0    0 -0.56632424945E+02 -0.30684821931E+02 -0.21857489095E+03  0.22786788455E+03  0.00000000000E+00 0.  1.
</event>
<event>
12    1  0.8500177E-002  0.1978939E+03  0.7818608E-02  0.1151578E+00
         21   -1    0    0  501  502  0.00000000000E+00  0.00000000000E+00  0.43328657151E+02  0.43328657151E+02  0.00000000000E+00 0. -1.
         21   -1    0    0  502  503 -0.00000000000E+00 -0.00000000000E+00 -0.14819002623E+04  0.14819002623E+04  0.00000000000E+00 0. -1.
         -6    2    1    2    0  503  0.89924662096E+02  0.38383333731E+02 -0.24280335524E+03  0.31323386967E+03  0.17205308086E+03 0.  0.
        -24    2    3    3    0    0 -0.81190487271E+01  0.56307314763E+02 -0.10850782549E+03  0.14592810875E+03  0.79275671440E+02 0.  0.
          6    2    1    2  501    0 -0.89924662096E+02 -0.38383333731E+02 -0.11957682499E+04  0.12119950498E+04  0.17178640235E+03 0.  0.
         24    2    5    5    0    0 -0.10013223552E+01  0.17923427277E+02 -0.43173604627E+03  0.44073302564E+03  0.86760211759E+02 0.  0.
          5    1    5    5  501    0 -0.88923339741E+02 -0.56306761008E+02 -0.76403220366E+03  0.77126202416E+03  0.47000000000E+01 0. -1.
        -11    1    6    6    0    0 -0.36979106867E+02  0.11228762071E+02 -0.10379127538E+03  0.11075273489E+03  0.00000000000E+00 0.  1.
         12    1    6    6    0    0  0.35977784512E+02  0.66946652060E+01 -0.32794477089E+03  0.32998029074E+03  0.00000000000E+00 0. -1.
         -5    1    3    3    0  503  0.98043710823E+02 -0.17923981033E+02 -0.13429552975E+03  0.16730576092E+03  0.47000000000E+01 0.  1.
         11    1    4    4    0    0  0.11935399744E+02  0.19665846760E+02  0.62220457832E+01  0.23830928424E+02  0.00000000000E+00 0. -1.
        -12    1    4    4    0    0 -0.20054448471E+02  0.36641468004E+02 -0.11472987127E+03  0.12209718032E+03  0.00000000000E+00 0.  1.
</event>
<event>
12    1  0.8500177E-002  0.1903928E+03  0.7818608E-02  0.1158286E+00
         21   -1    0    0  501  502  0.00000000000E+00  0.00000000000E+00  0.23970868975E+03  0.23970868975E+03  0.00000000000E+00 0. -1.
         21   -1    0    0  502  503 -0.00000000000E+00 -0.00000000000E+00 -0.20090993040E+03  0.20090993040E+03  0.00000000000E+00 0. -1.
         -6    2    1    2    0  503  0.65926474787E+02 -0.45109036592E+02 -0.90819819296E+02  0.21094472239E+03  0.17282450945E+03 0.  0.
        -24    2    3    3    0    0  0.30571993150E+02 -0.91182789410E+02 -0.85976890948E+02  0.15247871495E+03  0.81294433306E+02 0.  0.
          6    2    1    2  501    0 -0.65926474787E+02  0.45109036592E+02  0.12961857865E+03  0.22967389777E+03  0.17195347663E+03 0.  0.
         24    2    5    5    0    0  0.12412757278E+02  0.67949446150E+02  0.88875582903E+02  0.13834591032E+03  0.80433313307E+02 0.  0.
          5    1    5    5  501    0 -0.78339232065E+02 -0.22840409558E+02  0.40742995746E+02  0.91327987450E+02  0.47000000000E+01 0. -1.
        -13    1    6    6    0    0 -0.19128032886E+02 -0.61988098906E+01  0.25682119378E+01  0.20270732565E+02  0.00000000000E+00 0.  1.
         14    1    6    6    0    0  0.31540790164E+02  0.74148256041E+02  0.86307370965E+02  0.11807517775E+03  0.00000000000E+00 0. -1.
         -5    1    3    3    0  503  0.35354481637E+02  0.46073752817E+02 -0.48429283484E+01  0.58466007435E+02  0.47000000000E+01 0.  1.
         11    1    4    4    0    0 -0.26168617173E+02 -0.24115116603E+02 -0.39231269366E+02  0.52966289936E+02  0.00000000000E+00 0. -1.
        -12    1    4    4    0    0  0.56740610323E+02 -0.67067672807E+02 -0.46745621582E+02  0.99512425016E+02  0.00000000000E+00 0.  1.
</event>
<event>
12    1  0.8500177E-002  0.2015220E+03  0.7818608E-02  0.1148501E+00
         21   -1    0    0  503  502  0.00000000000E+00  0.00000000000E+00  0.22200344758E+03  0.22200344758E+03  0.00000000000E+00 0. -1.
         21   -1    0    0  501  503 -0.00000000000E+00 -0.00000000000E+00 -0.18415432030E+03  0.18415432030E+03  0.00000000000E+00 0. -1.
          6    2    1    2  501    0 -0.62740043697E+02 -0.84609147527E+02  0.12387565581E+01  0.20152576141E+03  0.17180243615E+03 0.  0.
         24    2    3    3    0    0 -0.30979062803E+02  0.19478165451E+02 -0.22043592806E+02  0.90138659727E+02  0.79372266769E+02 0.  0.
         -6    2    1    2    0  502  0.62740043697E+02  0.84609147527E+02  0.36610370718E+02  0.20463200647E+03  0.17157773136E+03 0.  0.
        -24    2    5    5    0    0  0.27443796493E+02  0.31996208497E+02 -0.41514980182E+02  0.10393639150E+03  0.85453850554E+02 0.  0.
          5    1    3    3  501    0 -0.31760980894E+02 -0.10408731298E+03  0.23282349364E+02  0.11138710169E+03  0.47000000000E+01 0. -1.
        -13    1    4    4    0    0 -0.53916687407E+02  0.56705209379E+01  0.18623643924E+01  0.54246035706E+02  0.00000000000E+00 0.  1.
         14    1    4    4    0    0  0.22937624605E+02  0.13807644514E+02 -0.23905957198E+02  0.35892624020E+02  0.00000000000E+00 0. -1.
         -5    1    5    5    0  502  0.35296247204E+02  0.52612939031E+02  0.78125350900E+02  0.10069561497E+03  0.47000000000E+01 0.  1.
         13    1    6    6    0    0 -0.11233525929E+02  0.29784573823E+02  0.15182139020E+02  0.35267694677E+02  0.00000000000E+00 0. -1.
        -14    1    6    6    0    0  0.38677322421E+02  0.22116346740E+01 -0.56697119202E+02  0.68668696823E+02  0.00000000000E+00 0.  1.
</event>
<event>
12    1  0.8500177E-002  0.2150899E+03  0.7818608E-02  0.1139064E+00
         21   -1    0    0  501  502  0.00000000000E+00  0.00000000000E+00  0.14908167707E+03  0.14908167707E+03  0.00000000000E+00 0. -1.
         21   -1    0    0  502  503 -0.00000000000E+00 -0.00000000000E+00 -0.60098866880E+03  0.60098866880E+03  0.00000000000E+00 0. -1.
         -6    2    1    2    0  503  0.29603466792E+02 -0.12360423968E+03 -0.49351525818E+03  0.53835023520E+03  0.17352029381E+03 0.  0.
        -24    2    3    3    0    0  0.69742699471E+02 -0.12855456218E+03 -0.44419240035E+03  0.47439323404E+03  0.79697756462E+02 0.  0.
          6    2    1    2  501    0 -0.29603466792E+02  0.12360423968E+03  0.41608266455E+02  0.21172011068E+03  0.16413343387E+03 0.  0.
         24    2    5    5    0    0  0.57568224470E+02  0.63310115343E+02  0.18424130769E+02  0.10312048206E+03  0.54517098718E+02 0.  0.
          5    1    5    5  501    0 -0.87171691263E+02  0.60294124339E+02  0.23184135687E+02  0.10859962861E+03  0.47000000000E+01 0. -1.
        -11    1    6    6    0    0  0.52180212463E+02  0.17088765515E+02  0.10985199297E+02  0.55995313046E+02  0.00000000000E+00 0.  1.
         12    1    6    6    0    0  0.53880120078E+01  0.46221349828E+02  0.74389314714E+01  0.47125169016E+02  0.00000000000E+00 0. -1.
         -5    1    3    3    0  503 -0.40139232678E+02  0.49503224955E+01 -0.49322857834E+02  0.63957001163E+02  0.47000000000E+01 0.  1.
         13    1    4    4    0    0  0.50968399325E+02 -0.99668536058E+02 -0.21278226256E+03  0.24043270591E+03  0.00000000000E+00 0. -1.
        -14    1    4    4    0    0  0.18774300146E+02 -0.28886026120E+02 -0.23141013779E+03  0.23396052813E+03  0.00000000000E+00 0.  1.
</event>
<event>
12    1  0.8500177E-002  0.1693980E+03  0.7818608E-02  0.1178673E+00
         21   -1    0    0  503  502  0.00000000000E+00  0.00000000000E+00  0.14668288456E+03  0.14668288456E+03  0.00000000000E+00 0. -1.
         21   -1    0    0  501  503 -0.00000000000E+00 -0.00000000000E+00 -0.37907841525E+03  0.37907841525E+03  0.00000000000E+00 0. -1.
          6    2    1    2  501    0  0.17304679036E+01  0.65254069009E+01 -0.29963165941E+03  0.34420168501E+03  0.16926338408E+03 0.  0.
         24    2    3    3    0    0  0.50552370854E+02 -0.33266565304E+02 -0.13191810055E+03  0.16498977948E+03  0.78466779686E+02 0.  0.
         -6    2    1    2    0  502 -0.17304679036E+01 -0.65254069009E+01  0.67236128707E+02  0.18155961480E+03  0.16851593773E+03 0.  0.
        -24    2    5    5    0    0 -0.63149451870E+02 -0.12078829605E+02  0.60488906014E+02  0.11934428623E+03  0.80314379216E+02 0.  0.
          5    1    3    3  501    0 -0.48821902950E+02  0.39791972205E+02 -0.16771355886E+03  0.17921190553E+03  0.47000000000E+01 0. -1.
        -13    1    4    4    0    0 -0.66360929202E+01 -0.23446398599E+02 -0.42247903438E+01  0.24730956107E+02  0.00000000000E+00 0.  1.
         14    1    4    4    0    0  0.57188463774E+02 -0.98201667049E+01 -0.12769331020E+03  0.14025882337E+03  0.00000000000E+00 0. -1.
         -5    1    5    5    0  502  0.61418983967E+02  0.55534227040E+01  0.67472226938E+01  0.62215328572E+02  0.47000000000E+01 0.  1.
         13    1    6    6    0    0 -0.19805103403E+02  0.33877803562E+02  0.17730840762E+02  0.43061936894E+02  0.00000000000E+00 0. -1.
        -14    1    6    6    0    0 -0.43344348468E+02 -0.45956633167E+02  0.42758065251E+02  0.76282349336E+02  0.00000000000E+00 0.  1.
</event>
<event>
12    1  0.8500177E-002  0.2512788E+03  0.7818608E-02  0.1112505E+00
         21   -1    0    0  503  502  0.00000000000E+00  0.00000000000E+00  0.24477588286E+03  0.24477588286E+03  0.00000000000E+00 0. -1.
         21   -1    0    0  501  503 -0.00000000000E+00 -0.00000000000E+00 -0.34063347842E+03  0.34063347842E+03  0.00000000000E+00 0. -1.
          6    2    1    2  501    0  0.61774495114E+02 -0.17275703769E+03  0.96310222796E+02  0.26907175470E+03  0.17164751046E+03 0.  0.
         24    2    3    3    0    0  0.38318157184E+02 -0.46353198927E+02  0.98935656992E+02  0.14039730834E+03  0.79411836296E+02 0.  0.
         -6    2    1    2    0  502 -0.61774495114E+02  0.17275703769E+03 -0.19216781835E+03  0.31633760658E+03  0.17169720035E+03 0.  0.
        -24    2    5    5    0    0  0.33972069424E+02  0.79886730014E+02 -0.10405922951E+03  0.15640789672E+03  0.78096835889E+02 0.  0.
          5    1    3    3  501    0  0.23456337931E+02 -0.12640383876E+03 -0.26254341956E+01  0.12867444637E+03  0.47000000000E+01 0. -1.
        -13    1    4    4    0    0  0.93618930412E+01  0.12749385717E+02 -0.56755663408E+01  0.16804878184E+02  0.00000000000E+00 0.  1.
         14    1    4    4    0    0  0.28956264142E+02 -0.59102584644E+02  0.10461122333E+03  0.12359243016E+03  0.00000000000E+00 0. -1.
         -5    1    5    5    0  502 -0.95746564538E+02  0.92870307674E+02 -0.88108588841E+02  0.15992970986E+03  0.47000000000E+01 0.  1.
         11    1    6    6    0    0  0.50673787308E+02  0.84386918098E+02 -0.80372065673E+02  0.12707735285E+03  0.00000000000E+00 0. -1.
        -12    1    6    6    0    0 -0.16701717884E+02 -0.45001880832E+01 -0.23687163839E+02  0.29330543872E+02  0.00000000000E+00 0.  1.
</event>
<event>
12    1  0.8500177E-002  0.2810124E+03  0.7818608E-02  0.1096510E+00
         21   -1    0    0  503  502  0.00000000000E+00  0.00000000000E+00  0.74890328044E+03  0.74890328044E+03  0.00000000000E+00 0.  1.
         21   -1    0    0  501  503 -0.00000000000E+00 -0.00000000000E+00 -0.15514128676E+03  0.15514128676E+03  0.00000000000E+00 0. -1.
          6    2    1    2  501    0  0.14606469124E+03 -0.16777499894E+03  0.56549549800E+03  0.63146901865E+03  0.17171085858E+03 0.  0.
         24    2    3    3    0    0  0.11754098646E+03 -0.38355633562E+02  0.30828856971E+03  0.34208956563E+03  0.81831476661E+02 0.  0.
         -6    2    1    2    0  502 -0.14606469124E+03  0.16777499894E+03  0.28266495674E+02  0.27257554855E+03  0.15496803087E+03 0.  0.
        -24    2    5    5    0    0 -0.53415466653E+02  0.11324630149E+03 -0.28271507278E+02  0.15101941567E+03  0.79559090667E+02 0.  0.
          5    1    3    3  501    0  0.28523704778E+02 -0.12941936538E+03  0.25720692829E+03  0.28937945302E+03  0.47000000000E+01 0. -1.
        -11    1    4    4    0    0  0.92874825283E+02 -0.62614930508E+02  0.25549814423E+03  0.27897251549E+03  0.00000000000E+00 0.  1.
         12    1    4    4    0    0  0.24666161175E+02  0.24259296946E+02  0.52790425481E+02  0.63117050136E+02  0.00000000000E+00 0. -1.
         -5    1    5    5    0  502 -0.92649224583E+02  0.54528697451E+02  0.56538002953E+02  0.12155613288E+03  0.47000000000E+01 0.  1.
         13    1    6    6    0    0 -0.40582164717E+02  0.32524717169E+02 -0.43592284806E+02  0.67860567451E+02  0.00000000000E+00 0. -1.
        -14    1    6    6    0    0 -0.12833301936E+02  0.80721584320E+02  0.15320777528E+02  0.83158848223E+02  0.00000000000E+00 0.  1.
</event>
<event>
12    1  0.8500177E-002  0.2054434E+03  0.7818608E-02  0.1145284E+00
         21   -1    0    0  503  502  0.00000000000E+00  0.00000000000E+00  0.10851917279E+03  0.10851917279E+03  0.00000000000E+00 0. -1.
         21   -1    0    0  501  503 -0.00000000000E+00 -0.00000000000E+00 -0.13116201873E+04  0.13116201873E+04  0.00000000000E+00 0. -1.
          6    2    1    2  501    0 -0.75348393213E+02  0.84362857842E+02 -0.11974042322E+04  0.12149007707E+04  0.17150077366E+03 0.  0.
         24    2    3    3    0    0 -0.74272106693E+02  0.11654332476E+03 -0.77383218786E+03  0.79008068227E+03  0.79451476669E+02 0.  0.
         -6    2    1    2    0  502  0.75348393213E+02 -0.84362857842E+02 -0.56967823312E+01  0.20523858936E+03  0.17116060612E+03 0.  0.
        -24    2    5    5    0    0  0.28545051525E+02 -0.10457838102E+03 -0.46273076803E+02  0.13991060268E+03  0.75381173777E+02 0.  0.
          5    1    3    3  501    0 -0.10762865208E+01 -0.32180466916E+02 -0.42357204429E+03  0.42482008845E+03  0.47000000000E+01 0. -1.
        -11    1    4    4    0    0  0.14870596452E+02  0.10302751782E+02 -0.52282496894E+02  0.55323962390E+02  0.00000000000E+00 0.  1.
         12    1    4    4    0    0 -0.89142703145E+02  0.10624057298E+03 -0.72154969097E+03  0.73475671988E+03  0.00000000000E+00 0. -1.
         -5    1    5    5    0  502  0.46803341689E+02  0.20215523182E+02  0.40576294471E+02  0.65327986681E+02  0.47000000000E+01 0.  1.
         11    1    6    6    0    0 -0.14068456800E+02 -0.54009657474E+02  0.52793136584E+01  0.56061000079E+02  0.00000000000E+00 0. -1.
        -12    1    6    6    0    0  0.42613508325E+02 -0.50568723550E+02 -0.51552390461E+02  0.83849602596E+02  0.00000000000E+00 0.  1.
</event>
<event>
12    1  0.8500177E-002  0.1937838E+03  0.7818608E-02  0.1155322E+00
         21   -1    0    0  503  502  0.00000000000E+00  0.00000000000E+00  0.93387267603E+02  0.93387267603E+02  0.00000000000E+00 0. -1.
         21   -1    0    0  501  503 -0.00000000000E+00 -0.00000000000E+00 -0.56636094864E+03  0.56636094864E+03  0.00000000000E+00 0. -1.
          6    2    1    2  501    0 -0.84719582111E+02  0.18452340169E+02 -0.41484651400E+03  0.45743426833E+03  0.17213536305E+03 0.  0.
         24    2    3    3    0    0 -0.26156832534E+02 -0.33266989918E+02 -0.10816515103E+03  0.14092197294E+03  0.79802443900E+02 0.  0.
         -6    2    1    2    0  502  0.84719582111E+02 -0.18452340169E+02 -0.58127167033E+02  0.20231394791E+03  0.17330398011E+03 0.  0.
        -24    2    5    5    0    0  0.94734857154E+01 -0.25239726156E+02  0.28821332600E+02  0.87030925658E+02  0.77568821700E+02 0.  0.
          5    1    3    3  501    0 -0.58562749577E+02  0.51719330086E+02 -0.30668136297E+03  0.31651229539E+03  0.47000000000E+01 0. -1.
        -13    1    4    4    0    0 -0.44882427626E+02 -0.13279655195E+02 -0.10288153790E+03  0.11302828138E+03  0.00000000000E+00 0.  1.
         14    1    4    4    0    0  0.18725595092E+02 -0.19987334723E+02 -0.52836131342E+01  0.27893691556E+02  0.00000000000E+00 0. -1.
         -5    1    5    5    0  502  0.75246096395E+02  0.67873859875E+01 -0.86948499633E+02  0.11528302225E+03  0.47000000000E+01 0.  1.
         11    1    6    6    0    0  0.43105102168E+02 -0.11200486643E+02  0.86227185290E+01  0.45363553750E+02  0.00000000000E+00 0. -1.
        -12    1    6    6    0    0 -0.33631616453E+02 -0.14039239513E+02  0.20198614071E+02  0.41667371908E+02  0.00000000000E+00 0.  1.
</event>
<event>
12    1  0.8500177E-002  0.1763912E+03  0.7818608E-02  0.1172041E+00
         21   -1    0    0  503  502  0.00000000000E+00  0.00000000000E+00  0.40506005153E+03  0.40506005153E+03  0.00000000000E+00 0.  1.
         21   -1    0    0  501  503 -0.00000000000E+00 -0.00000000000E+00 -0.75681740371E+02  0.75681740371E+02  0.00000000000E+00 0.  1.
          6    2    1    2  501    0 -0.96616209821E+01 -0.17341340957E+02  0.17378159564E+03  0.24761645691E+03  0.17527064136E+03 0.  0.
         24    2    3    3    0    0 -0.28146564694E+02 -0.66091631621E+02  0.16114419267E+03  0.19376408521E+03  0.80104538014E+02 0.  0.
         -6    2    1    2    0  502  0.96616209821E+01  0.17341340957E+02  0.15559671553E+03  0.23312533500E+03  0.17246163315E+03 0.  0.
        -24    2    5    5    0    0  0.58411376476E+02  0.45180656568E+02  0.13438107605E+03  0.17292766467E+03  0.79953254954E+02 0.  0.
          5    1    3    3  501    0  0.18484943712E+02  0.48750290664E+02  0.12637402961E+02  0.53852371697E+02  0.47000000000E+01 0. -1.
        -13    1    4    4    0    0 -0.29893548588E+02 -0.20844717512E+02  0.12740781015E+02  0.38606398384E+02  0.00000000000E+00 0.  1.
         14    1    4    4    0    0  0.17469838936E+01 -0.45246914109E+02  0.14840341166E+03  0.15515768683E+03  0.00000000000E+00 0. -1.
         -5    1    5    5    0  502 -0.48749755494E+02 -0.27839315611E+02  0.21215639473E+02  0.60197670325E+02  0.47000000000E+01 0.  1.
         11    1    6    6    0    0 -0.19676353801E+02  0.61401782188E+01  0.17490059797E+02  0.27032626198E+02  0.00000000000E+00 0. -1.
        -12    1    6    6    0    0  0.78087730277E+02  0.39040478349E+02  0.11689101626E+03  0.14589503847E+03  0.00000000000E+00 0.  1.
</event>
<event>
12    1  0.8500177E-002  0.1889602E+03  0.7818608E-02  0.1159537E+00
         21   -1    0    0  503  502  0.00000000000E+00  0.00000000000E+00  0.11955755760E+04  0.11955755760E+04  0.00000000000E+00 0.  1.
         21   -1    0    0  501  503 -0.00000000000E+00 -0.00000000000E+00 -0.82665299043E+02  0.82665299043E+02  0.00000000000E+00 0.  1.
          6    2    1    2  501    0 -0.32723400406E+02  0.68670850549E+02  0.44906477707E+02  0.19364967132E+03  0.17232845619E+03 0.  0.
         24    2    3    3    0    0  0.19902942186E+02 -0.17368958590E+01  0.61233369571E+02  0.10412068111E+03  0.81807376021E+02 0.  0.
         -6    2    1    2    0  502  0.32723400406E+02 -0.68670850549E+02  0.10680037993E+04  0.10845912037E+04  0.17297241787E+03 0.  0.
        -24    2    5    5    0    0  0.33779836665E+01  0.13184050422E+02  0.25038026820E+03  0.26234324427E+03  0.77126319463E+02 0.  0.
          5    1    3    3  501    0 -0.52626342592E+02  0.70407746409E+02 -0.16326891864E+02  0.89528990203E+02  0.47000000000E+01 0. -1.
        -11    1    4    4    0    0  0.39984938826E+02  0.21976419549E+02  0.14266622942E+02  0.47804757915E+02  0.00000000000E+00 0.  1.
         12    1    4    4    0    0 -0.20081996640E+02 -0.23713315408E+02  0.46966746628E+02  0.56315923198E+02  0.00000000000E+00 0. -1.
         -5    1    5    5    0  502  0.29345416740E+02 -0.81854900971E+02  0.81762353107E+03  0.82224795948E+03  0.47000000000E+01 0.  1.
         11    1    6    6    0    0 -0.21120484716E+02 -0.17659024031E+02  0.41631768103E+02  0.49911122205E+02  0.00000000000E+00 0. -1.
        -12    1    6    6    0    0  0.24498468382E+02  0.30843074453E+02  0.20874850009E+03  0.21243212207E+03  0.00000000000E+00 0.  1.
</event>
<event>
12    1  0.8500177E-002  0.1967460E+03  0.7818608E-02  0.1152580E+00
         21   -1    0    0  503  502  0.00000000000E+00  0.00000000000E+00  0.50221476457E+03  0.50221476457E+03  0.00000000000E+00 0. -1.
         21   -1    0    0  501  503 -0.00000000000E+00 -0.00000000000E+00 -0.93847131697E+02  0.93847131697E+02  0.00000000000E+00 0.  1.
          6    2    1    2  501    0 -0.89390520763E+02  0.99014304655E+01  0.77618406025E+02  0.21121902934E+03  0.17464294395E+03 0.  0.
         24    2    3    3    0    0 -0.24365305556E+02 -0.16847496326E+02 -0.23299184378E+02  0.88132743546E+02  0.79668200965E+02 0.  0.
         -6    2    1    2    0  502  0.89390520763E+02 -0.99014304655E+01  0.33074922685E+03  0.38484286693E+03  0.17498650702E+03 0.  0.
        -24    2    5    5    0    0  0.56860359612E+01 -0.59261830120E+02  0.19878973904E+03  0.22089688115E+03  0.75721702575E+02 0.  0.
          5    1    3    3  501    0 -0.65025215207E+02  0.26748926791E+02  0.10091759040E+03  0.12308628579E+03  0.47000000000E+01 0. -1.
        -13    1    4    4    0    0 -0.36265521164E+02 -0.18816542957E+02 -0.46551639944E+02  0.61937916462E+02  0.00000000000E+00 0.  1.
         14    1    4    4    0    0  0.11900215608E+02  0.19690466317E+01  0.23252455566E+02  0.26194827084E+02  0.00000000000E+00 0. -1.
         -5    1    5    5    0  502  0.83704484802E+02  0.49360399654E+02  0.13195948780E+03  0.16394598577E+03  0.47000000000E+01 0.  1.
         13    1    6    6    0    0 -0.20523561649E+02 -0.54571247112E+02  0.17742538359E+03  0.18675921487E+03  0.00000000000E+00 0. -1.
        -14    1    6    6    0    0  0.26209597610E+02 -0.46905830082E+01  0.21364355449E+02  0.34137666288E+02  0.00000000000E+00 0.  1.
</event>
<event>
12    1  0.8500177E-002  0.1982802E+03  0.7818608E-02  0.1151203E+00
         21   -1    0    0  503  502  0.00000000000E+00  0.00000000000E+00  0.23908997439E+03  0.23908997439E+03  0.00000000000E+00 0.  1.
         21   -1    0    0  501  503 -0.00000000000E+00 -0.00000000000E+00 -0.16457271449E+03  0.16457271449E+03  0.00000000000E+00 0.  1.
          6    2    1    2  501    0  0.33181404518E+02  0.91701785632E+02  0.31070529288E+02  0.20067831566E+03  0.17261571624E+03 0.  0.
         24    2    3    3    0    0  0.42208551792E+02 -0.14250823173E+02  0.13202534508E+02  0.92748709259E+02  0.80270594531E+02 0.  0.
         -6    2    1    2    0  502 -0.33181404518E+02 -0.91701785632E+02  0.43446730617E+02  0.20298437322E+03  0.17264070863E+03 0.  0.
        -24    2    5    5    0    0 -0.82303838387E+02 -0.80736158118E+02  0.59486009014E+01  0.14004425701E+03  0.79276472102E+02 0.  0.
          5    1    3    3  501    0 -0.90271472742E+01  0.10595260881E+03  0.17867994781E+02  0.10792960640E+03  0.47000000000E+01 0. -1.
        -11    1    4    4    0    0  0.86895899808E+01  0.27137121132E+02 -0.15300533503E+02  0.32342520663E+02  0.00000000000E+00 0.  1.
         12    1    4    4    0    0  0.33518961811E+02 -0.41387944305E+02  0.28503068010E+02  0.60406188596E+02  0.00000000000E+00 0. -1.
         -5    1    5    5    0  502  0.49122433869E+02 -0.10965627514E+02  0.37498129715E+02  0.62940116207E+02  0.47000000000E+01 0.  1.
         13    1    6    6    0    0 -0.32763796031E+02 -0.16801048095E+02 -0.33747216502E+02  0.49946132674E+02  0.00000000000E+00 0. -1.
        -14    1    6    6    0    0 -0.49540042356E+02 -0.63935110024E+02  0.39695817403E+02  0.90098124340E+02  0.00000000000E+00 0.  1.
</event>
<event>
12    1  0.8500177E-002  0.1877076E+03  0.7818608E-02  0.1160957E+00
         21   -1    0    0  503  502  0.00000000000E+00  0.00000000000E+00  0.58179760631E+03  0.58179760631E+03  0.00000000000E+00 0. -1.
         21   -1    0    0  501  503 -0.00000000000E+00 -0.00000000000E+00 -0.60152132812E+02  0.60152132812E+02  0.00000000000E+00 0.  1.
          6    2    1    2  501    0 -0.48411384160E+02 -0.56109839287E+02  0.24264520098E+03  0.30568302676E+03  0.17050936370E+03 0.  0.
         24    2    3    3    0    0 -0.71053127064E+02 -0.62367637985E+02  0.25115163814E+03  0.28026142100E+03  0.80814909677E+02 0.  0.
         -6    2    1    2    0  502  0.48411384160E+02  0.56109839287E+02  0.27900027252E+03  0.33626671236E+03  0.17245919401E+03 0.  0.
        -24    2    5    5    0    0  0.47620336733E+02  0.39611240348E+02  0.29538743212E+03  0.31252943108E+03  0.81142857985E+02 0.  0.
          5    1    3    3  501    0  0.22641742904E+02  0.62577986987E+01 -0.85064371601E+01  0.25421605761E+02  0.47000000000E+01 0. -1.
        -11    1    4    4    0    0  0.11682438312E+02 -0.32122028356E+02  0.95199160973E+02  0.10114931696E+03  0.00000000000E+00 0.  1.
         12    1    4    4    0    0 -0.82735565376E+02 -0.30245609629E+02  0.15595247717E+03  0.17911210404E+03  0.00000000000E+00 0. -1.
         -5    1    5    5    0  502  0.79104742651E+00  0.16498598939E+02 -0.16387159603E+02  0.23737281285E+02  0.47000000000E+01 0.  1.
         13    1    6    6    0    0  0.58662105105E+02  0.64326221853E+01  0.12043118170E+03  0.13411297748E+03  0.00000000000E+00 0. -1.
        -14    1    6    6    0    0 -0.11041768372E+02  0.33178618162E+02  0.17495625042E+03  0.17841645360E+03  0.00000000000E+00 0.  1.
</event>
<event>
12    1  0.8500177E-002  0.2470398E+03  0.7818608E-02  0.1117070E+00
         21   -1    0    0  501  502  0.00000000000E+00  0.00000000000E+00  0.46656962483E+03  0.46656962483E+03  0.00000000000E+00 0.  1.
         21   -1    0    0  502  503 -0.00000000000E+00 -0.00000000000E+00 -0.13291272646E+03  0.13291272646E+03  0.00000000000E+00 0. -1.
         -6    2    1    2    0  503 -0.45454077836E+02  0.15422276348E+03  0.23704246470E+03  0.33422211291E+03  0.17223401730E+03 0.  0.
        -24    2    3    3    0    0 -0.54080054010E+01  0.96516551459E+02  0.50381244849E+02  0.13472726129E+03  0.79173694332E+02 0.  0.
          6    2    1    2  501    0  0.45454077836E+02 -0.15422276348E+03  0.96614433667E+02  0.26526023839E+03  0.18755775460E+03 0.  0.
         24    2    5    5    0    0  0.37226688798E+02 -0.10361004790E+03 -0.21282570603E+02  0.13660904126E+03  0.78027007862E+02 0.  0.
          5    1    5    5  501    0  0.82273890382E+01 -0.50612715575E+02  0.11789700427E+03  0.12865119713E+03  0.47000000000E+01 0. -1.
        -13    1    6    6    0    0  0.15202019670E+02 -0.14455864982E+02  0.25926784583E+02  0.33350736023E+02  0.00000000000E+00 0.  1.
         14    1    6    6    0    0  0.22024669128E+02 -0.89154182921E+02 -0.47209355186E+02  0.10325830523E+03  0.00000000000E+00 0. -1.
         -5    1    3    3    0  503 -0.40046072435E+02  0.57706212019E+02  0.18666121986E+03  0.19949485162E+03  0.47000000000E+01 0.  1.
         11    1    4    4    0    0 -0.37183671479E+02  0.49442159441E+02  0.50690427766E+01  0.62071311807E+02  0.00000000000E+00 0. -1.
        -12    1    4    4    0    0  0.31775666078E+02  0.47074392019E+02  0.45312202072E+02  0.72655949483E+02  0.00000000000E+00 0.  1.
</event>
<event>
12    1  0.8500177E-002  0.1949901E+03  0.7818608E-02  0.1154440E+00
         21   -1    0    0  501  502  0.00000000000E+00  0.00000000000E+00  0.28296953154E+03  0.28296953154E+03  0.00000000000E+00 0. -1.
         21   -1    0    0  502  503 -0.00000000000E+00 -0.00000000000E+00 -0.30701457340E+03  0.30701457340E+03  0.00000000000E+00 0. -1.
         -6    2    1    2    0  503 -0.46509658519E+02 -0.78383842789E+02 -0.23407093916E+03  0.30464793259E+03  0.17237744380E+03 0.  0.
        -24    2    3    3    0    0 -0.27859067455E+02 -0.11683041426E+03 -0.13779615412E+03  0.19921118549E+03  0.79194968277E+02 0.  0.
          6    2    1    2  501    0  0.46509658519E+02  0.78383842789E+02  0.21002589730E+03  0.28533617234E+03  0.17028998375E+03 0.  0.
         24    2    5    5    0    0  0.17050255427E+02 -0.23268356525E+02  0.11175955661E+03  0.14083914895E+03  0.80705264754E+02 0.  0.
          5    1    5    5  501    0  0.29459403092E+02  0.10165219931E+03  0.98266340689E+02  0.14449702339E+03  0.47000000000E+01 0. -1.
        -13    1    6    6    0    0  0.16115906462E+02  0.69082895942E+01 -0.65655589603E+01  0.18723073216E+02  0.00000000000E+00 0.  1.
         14    1    6    6    0    0  0.93434896491E+00 -0.30176646119E+02  0.11832511557E+03  0.12211607574E+03  0.00000000000E+00 0. -1.
         -5    1    3    3    0  503 -0.18650591064E+02  0.38446571470E+02 -0.96274785040E+02  0.10543674710E+03  0.47000000000E+01 0.  1.
         11    1    4    4    0    0 -0.18572421770E+02 -0.54096061816E+02 -0.12156213064E+02  0.58473004630E+02  0.00000000000E+00 0. -1.
        -12    1    4    4    0    0 -0.92866456844E+01 -0.62734352443E+02 -0.12563994105E+03  0.14073818086E+03  0.00000000000E+00 0.  1.
</event>
<event>
12    1  0.8500177E-002  0.1835512E+03  0.7818608E-02  0.1164711E+00
         21   -1    0    0  503  502  0.00000000000E+00  0.00000000000E+00  0.13951502810E+03  0.13951502810E+03  0.00000000000E+00 0. -1.
         21   -1    0    0  501  503 -0.00000000000E+00 -0.00000000000E+00 -0.25238214549E+03  0.25238214549E+03  0.00000000000E+00 0. -1.
          6    2    1    2  501    0  0.28677707637E+02  0.55054225575E+02 -0.10034182214E+03  0.20918773441E+03  0.17273577593E+03 0.  0.
         24    2    3    3    0    0 -0.31462816945E+02  0.40788652865E+02 -0.11128670243E+03  0.14624117242E+03  0.79675136135E+02 0.  0.
         -6    2    1    2    0  502 -0.28677707637E+02 -0.55054225575E+02 -0.12525295253E+02  0.18270943919E+03  0.17138400590E+03 0.  0.
        -24    2    5    5    0    0 -0.67247959799E+02 -0.77665975601E+01  0.28867530426E+02  0.10882276831E+03  0.80165157365E+02 0.  0.
          5    1    3    3  501    0  0.60140524582E+02  0.14265572710E+02  0.10944880295E+02  0.62946561991E+02  0.47000000000E+01 0. -1.
        -13    1    4    4    0    0 -0.55328236266E+02  0.10827353196E+02 -0.70824508430E+02  0.90523788585E+02  0.00000000000E+00 0.  1.
         14    1    4    4    0    0  0.23865419321E+02  0.29961299670E+02 -0.40462194005E+02  0.55717383831E+02  0.00000000000E+00 0. -1.
         -5    1    5    5    0  502  0.38570252162E+02 -0.47287628015E+02 -0.41392825678E+02  0.73886670873E+02  0.47000000000E+01 0.  1.
         11    1    6    6    0    0 -0.68765641796E+02 -0.31866757497E+02  0.67735896475E+01  0.76092609639E+02  0.00000000000E+00 0. -1.
        -12    1    6    6    0    0  0.15176819968E+01  0.24100159937E+02  0.22093940778E+02  0.32730158673E+02  0.00000000000E+00 0.  1.
</event>
<event>
12    1  0.8500177E-002  0.1795248E+03  0.7818608E-02  0.1168874E+00
         21   -1    0    0  503  502  0.00000000000E+00  0.00000000000E+00  0.59271012156E+03  0.59271012156E+03  0.00000000000E+00 0. -1.
         21   -1    0    0  501  503 -0.00000000000E+00 -0.00000000000E+00 -0.15730238697E+03  0.15730238697E+03  0.00000000000E+00 0. -1.
          6    2    1    2  501    0  0.13538082022E+02  0.49923381814E+02 -0.86225025102E+02  0.19915796872E+03  0.17191136622E+03 0.  0.
         24    2    3    3    0    0  0.59961654908E+01  0.31856641863E+02 -0.12714260913E+03  0.15355504907E+03  0.79769106847E+02 0.  0.
         -6    2    1    2    0  502 -0.13538082022E+02 -0.49923381814E+02  0.52163275969E+03  0.55085453981E+03  0.16930553544E+03 0.  0.
        -24    2    5    5    0    0 -0.25727348356E+02 -0.85953971605E+02  0.47714214439E+03  0.49213242759E+03  0.80496699543E+02 0.  0.
          5    1    3    3  501    0  0.75419165310E+01  0.18066739951E+02  0.40917584033E+02  0.45602919649E+02  0.47000000000E+01 0. -1.
        -13    1    4    4    0    0  0.12513416121E+02 -0.22302829381E+02 -0.17188978210E+02  0.30813353491E+02  0.00000000000E+00 0.  1.
         14    1    4    4    0    0 -0.65172506301E+01  0.54159471244E+02 -0.10995363092E+03  0.12274169558E+03  0.00000000000E+00 0. -1.
         -5    1    5    5    0  502  0.12189266334E+02  0.36030589791E+02  0.44490615294E+02  0.58722112221E+02  0.47000000000E+01 0.  1.
         11    1    6    6    0    0 -0.95565213405E+01 -0.68534258881E+01  0.44166021825E+01  0.12561963277E+02  0.00000000000E+00 0. -1.
        -12    1    6    6    0    0 -0.16170827016E+02 -0.79100545717E+02  0.47272554221E+03  0.47957046431E+03  0.00000000000E+00 0.  1.
</event>
<event>
12    1  0.8500177E-002  0.2020608E+03  0.7818608E-02  0.1148299E+00
         21   -1    0    0  501  502  0.00000000000E+00  0.00000000000E+00  0.60709455733E+02  0.60709455733E+02  0.00000000000E+00 0. -1.
         21   -1    0    0  502  503 -0.00000000000E+00 -0.00000000000E+00 -0.66951944631E+03  0.66951944631E+03  0.00000000000E+00 0.  1.
         -6    2    1    2    0  503 -0.57976786501E+02  0.86793622178E+02 -0.32103989661E+03  0.37860383417E+03  0.17140538909E+03 0.  0.
        -24    2    3    3    0    0 -0.70187616826E+02  0.83414833313E+02 -0.13429068978E+03  0.19136634636E+03  0.81870343740E+02 0.  0.
          6    2    1    2  501    0  0.57976786501E+02 -0.86793622178E+02 -0.28777009397E+03  0.35162506787E+03  0.17301479922E+03 0.  0.
         24    2    5    5    0    0  0.95450783992E+02 -0.10335062097E+03 -0.23172477321E+03  0.28204344188E+03  0.77845549448E+02 0.  0.
          5    1    5    5  501    0 -0.37473997491E+02  0.16556998791E+02 -0.56045320758E+02  0.69581625993E+02  0.47000000000E+01 0. -1.
        -13    1    6    6    0    0 -0.90330285116E+01 -0.19972396284E+02 -0.63489117143E+02  0.67166659981E+02  0.00000000000E+00 0.  1.
         14    1    6    6    0    0  0.10448381250E+03 -0.83378224685E+02 -0.16823565607E+03  0.21487678190E+03  0.00000000000E+00 0. -1.
         -5    1    3    3    0  503  0.12210830325E+02  0.33787888654E+01 -0.18674920683E+03  0.18723748781E+03  0.47000000000E+01 0.  1.
         13    1    4    4    0    0 -0.31904208367E+02  0.77996093670E+02 -0.48412899030E+02  0.97185790791E+02  0.00000000000E+00 0. -1.
        -14    1    4    4    0    0 -0.38283408459E+02  0.54187396432E+01 -0.85877790749E+02  0.94180555565E+02  0.00000000000E+00 0.  1.
</event>
<event>
12    1  0.8500177E-002  0.1929740E+03  0.7818608E-02  0.1155987E+00
         21   -1    0    0  503  502  0.00000000000E+00  0.00000000000E+00  0.46231800194E+02  0.46231800194E+02  0.00000000000E+00 0. -1.
         21   -1    0    0  501  503 -0.00000000000E+00 -0.00000000000E+00 -0.89644272293E+03  0.89644272293E+03  0.00000000000E+00 0. -1.
          6    2    1    2  501    0  0.41472224932E+02 -0.75551013452E+02 -0.57883646656E+03  0.61015622826E+03  0.17265881614E+03 0.  0.
         24    2    3    3    0    0 -0.17948366280E+02  0.64146116822E+01 -0.34919780761E+03  0.35914791356E+03  0.81760772260E+02 0.  0.
         -6    2    1    2    0  502 -0.41472224932E+02  0.75551013452E+02 -0.27137445618E+03  0.33251829486E+03  0.17174521793E+03 0.  0.
        -24    2    5    5    0    0 -0.28608926746E+02 -0.87055275772E+01 -0.21137728029E+03  0.22818047689E+03  0.80571201485E+02 0.  0.
          5    1    3    3  501    0  0.59420591212E+02 -0.81965625134E+02 -0.22963865895E+03  0.25100831470E+03  0.47000000000E+01 0. -1.
        -13    1    4    4    0    0 -0.54727930560E+01  0.28996924293E+00 -0.34440235361E+03  0.34444595616E+03  0.00000000000E+00 0.  1.
         14    1    4    4    0    0 -0.12475573224E+02  0.61246424392E+01 -0.47954540023E+01  0.14701957399E+02  0.00000000000E+00 0. -1.
         -5    1    5    5    0  502 -0.12863298186E+02  0.84256541029E+02 -0.59997175885E+02  0.10433781798E+03  0.47000000000E+01 0.  1.
         13    1    6    6    0    0  0.95659252820E+01  0.23915043062E+02 -0.27968028045E+02  0.38021662297E+02  0.00000000000E+00 0. -1.
        -14    1    6    6    0    0 -0.38174852028E+02 -0.32620570639E+02 -0.18340925225E+03  0.19015881459E+03  0.00000000000E+00 0.  1.
</event>
<event>
12    1  0.8500177E-002  0.1828167E+03  0.7818608E-02  0.1165438E+00
         21   -1    0    0  501  502  0.00000000000E+00  0.00000000000E+00  0.28205387125E+03  0.28205387125E+03  0.00000000000E+00 0.  1.
         21   -1    0    0  502  503 -0.00000000000E+00 -0.00000000000E+00 -0.12770636478E+03  0.12770636478E+03  0.00000000000E+00 0.  1.
         -6    2    1    2    0  503 -0.16822978429E+01  0.59818804890E+02  0.13456711102E+03  0.22587659298E+03  0.17126239617E+03 0.  0.
        -24    2    3    3    0    0 -0.36380090092E+01  0.13982652697E+02  0.15535169556E+03  0.17529135196E+03  0.79900932860E+02 0.  0.
          6    2    1    2  501    0  0.16822978429E+01 -0.59818804890E+02  0.19780395452E+02  0.18388364305E+03  0.17274492928E+03 0.  0.
         24    2    5    5    0    0 -0.58731139176E+02 -0.77088683786E+01  0.25424866352E+02  0.10376386455E+03  0.81312621381E+02 0.  0.
          5    1    5    5  501    0  0.60413437019E+02 -0.52109936511E+02 -0.56444709004E+01  0.80119778503E+02  0.47000000000E+01 0. -1.
        -11    1    6    6    0    0  0.12182501122E+02 -0.20933404996E+02 -0.61979469277E+01  0.25000706479E+02  0.00000000000E+00 0.  1.
         12    1    6    6    0    0 -0.70913640298E+02  0.13224536617E+02  0.31622813280E+02  0.78763158067E+02  0.00000000000E+00 0. -1.
         -5    1    3    3    0  503  0.19557111663E+01  0.45836152193E+02 -0.20784584547E+02  0.50585241017E+02  0.47000000000E+01 0.  1.
         13    1    4    4    0    0  0.27098016282E+02  0.25293000745E+02  0.12590727650E+03  0.13125045009E+03  0.00000000000E+00 0. -1.
        -14    1    4    4    0    0 -0.30736025291E+02 -0.11310348047E+02  0.29444419061E+02  0.44040901869E+02  0.00000000000E+00 0.  1.
</event>
<event>
12    1  0.8500177E-002  0.2201894E+03  0.7818608E-02  0.1133874E+00
         21   -1    0    0  503  502  0.00000000000E+00  0.00000000000E+00  0.35527428603E+03  0.35527428603E+03  0.00000000000E+00 0. -1.
         21   -1    0    0  501  503 -0.00000000000E+00 -0.00000000000E+00 -0.80175048880E+03  0.80175048880E+03  0.00000000000E+00 0.  1.
          6    2    1    2  501    0 -0.83056377228E+02 -0.10983714556E+03 -0.75033344221E+03  0.78177471449E+03  0.17090602497E+03 0.  0.
         24    2    3    3    0    0  0.52017270404E+01 -0.90176423811E+02 -0.52829862662E+03  0.54198817132E+03  0.80578493347E+02 0.  0.
         -6    2    1    2    0  502  0.83056377228E+02  0.10983714556E+03  0.30385723944E+03  0.37525006034E+03  0.17181625499E+03 0.  0.
        -24    2    5    5    0    0  0.97581415832E+02  0.39941736028E+02  0.25997037383E+03  0.29131858833E+03  0.78514009226E+02 0.  0.
          5    1    3    3  501    0 -0.88258104269E+02 -0.19660721752E+02 -0.22203481559E+03  0.23978654317E+03  0.47000000000E+01 0. -1.
        -13    1    4    4    0    0 -0.24966545328E+02 -0.87192212539E+02 -0.39042878454E+03  0.40082470746E+03  0.00000000000E+00 0.  1.
         14    1    4    4    0    0  0.30168272369E+02 -0.29842112720E+01 -0.13786984208E+03  0.14116346386E+03  0.00000000000E+00 0. -1.
         -5    1    5    5    0  502 -0.14525038604E+02  0.69895409534E+02  0.43886865617E+02  0.83931472012E+02  0.47000000000E+01 0.  1.
         13    1    6    6    0    0 -0.84212257127E+00  0.15154393581E+02  0.10485403960E+03  0.10594684722E+03  0.00000000000E+00 0. -1.
        -14    1    6    6    0    0  0.98423538403E+02  0.24787342447E+02  0.15511633422E+03  0.18537174110E+03  0.00000000000E+00 0.  1.
</event>
<event>
12    1  0.8500177E-002  0.3027046E+03  0.7818608E-02  0.1083951E+00
         21   -1    0    0  501  502  0.00000000000E+00  0.00000000000E+00  0.22274145901E+04  0.22274145901E+04  0.00000000000E+00 0. -1.
         21   -1    0    0  502  503 -0.00000000000E+00 -0.00000000000E+00 -0.60107510740E+02  0.60107510740E+02  0.00000000000E+00 0.  1.
         -6    2    1    2    0  503  0.47739857731E+02 -0.24463164609E+03  0.43954440704E+03  0.53344287642E+03  0.17099204766E+03 0.  0.
        -24    2    3    3    0    0  0.54283869014E+02 -0.26128993322E+03  0.43142715572E+03  0.51323638285E+03  0.77865437421E+02 0.  0.
          6    2    1    2  501    0 -0.47739857731E+02  0.24463164609E+03  0.17277626723E+04  0.17540792244E+04  0.17177408818E+03 0.  0.
         24    2    5    5    0    0 -0.61657340167E+02  0.21707520107E+03  0.16769157219E+04  0.16944088268E+04  0.89731062683E+02 0.  0.
          5    1    5    5  501    0  0.13917482436E+02  0.27556445026E+02  0.50846950451E+02  0.59670397602E+02  0.47000000000E+01 0. -1.
        -13    1    6    6    0    0 -0.42044141243E+02  0.10017961603E+03  0.50735091811E+03  0.51885317710E+03  0.00000000000E+00 0.  1.
         14    1    6    6    0    0 -0.19613198924E+02  0.11689558503E+03  0.11695648037E+04  0.11755556497E+04  0.00000000000E+00 0. -1.
         -5    1    3    3    0  503 -0.65440112829E+01  0.16658287130E+02  0.81172513149E+01  0.20206493577E+02  0.47000000000E+01 0.  1.
         11    1    4    4    0    0 -0.14431141219E+02 -0.10335843075E+03  0.18828379435E+03  0.21527194489E+03  0.00000000000E+00 0. -1.
        -12    1    4    4    0    0  0.68715010233E+02 -0.15793150247E+03  0.24314336137E+03  0.29796443795E+03  0.00000000000E+00 0.  1.
</event>
<event>
12    1  0.8500177E-002  0.1961891E+03  0.7818608E-02  0.1153018E+00
         21   -1    0    0  503  502  0.00000000000E+00  0.00000000000E+00  0.86697793462E+02  0.86697793462E+02  0.00000000000E+00 0. -1.
         21   -1    0    0  501  503 -0.00000000000E+00 -0.00000000000E+00 -0.56527424059E+03  0.56527424059E+03  0.00000000000E+00 0. -1.
          6    2    1    2  501    0 -0.79353524753E+02 -0.53322730150E+02 -0.39040815942E+03  0.43688176279E+03  0.17119243056E+03 0.  0.
         24    2    3    3    0    0 -0.32777028155E+02  0.36523833036E+02 -0.16198363887E+03  0.18699853699E+03  0.79507418649E+02 0.  0.
         -6    2    1    2    0  502  0.79353524753E+02  0.53322730150E+02 -0.88168287709E+02  0.21509027126E+03  0.17131807374E+03 0.  0.
        -24    2    5    5    0    0  0.58345005253E+02  0.56342297116E+02  0.86569755492E+01  0.11585470666E+03  0.82272569831E+02 0.  0.
          5    1    3    3  501    0 -0.46576496598E+02 -0.89846563186E+02 -0.22842452055E+03  0.24988322580E+03  0.47000000000E+01 0. -1.
        -13    1    4    4    0    0 -0.73272896902E+01  0.17727306969E+02  0.26395070537E+01  0.19362685353E+02  0.00000000000E+00 0.  1.
         14    1    4    4    0    0 -0.25449738465E+02  0.18796526067E+02 -0.16462314592E+03  0.16763585164E+03  0.00000000000E+00 0. -1.
         -5    1    5    5    0  502  0.21008519500E+02 -0.30195669666E+01 -0.96825263258E+02  0.99235564598E+02  0.47000000000E+01 0.  1.
         13    1    6    6    0    0 -0.76367885765E+01  0.48358564930E+02  0.11761935302E+01  0.48971979469E+02  0.00000000000E+00 0. -1.
        -14    1    6    6    0    0  0.65981793830E+02  0.79837321865E+01  0.74807820190E+01  0.66882727189E+02  0.00000000000E+00 0.  1.
</event>
<event>
12    1  0.8500177E-002  0.2280515E+03  0.7818608E-02  0.1129810E+00
         21   -1    0    0  503  502  0.00000000000E+00  0.00000000000E+00  0.42736390700E+03  0.42736390700E+03  0.00000000000E+00 0. -1.
         21   -1    0    0  501  503 -0.00000000000E+00 -0.00000000000E+00 -0.13546356386E+03  0.13546356386E+03  0.00000000000E+00 0.  1.
          6    2    1    2  501    0 -0.68243472373E+02 -0.13398025985E+03  0.25398209617E+03  0.34134201680E+03  0.17146307389E+03 0.  0.
         24    2    3    3    0    0 -0.19490107661E+01 -0.34448212507E+02  0.48773142309E+02  0.10378278454E+03  0.84862058470E+02 0.  0.
         -6    2    1    2    0  502  0.68243472373E+02  0.13398025985E+03  0.37918246971E+02  0.22148545406E+03  0.15814591792E+03 0.  0.
        -24    2    5    5    0    0  0.48339650538E+02  0.11672650203E+03 -0.26020866905E+02  0.15217344525E+03  0.80733350189E+02 0.  0.
          5    1    3    3  501    0 -0.66294461607E+02 -0.99532047347E+02  0.20520895386E+03  0.23755923226E+03  0.47000000000E+01 0. -1.
        -11    1    4    4    0    0 -0.39856174110E+02 -0.28160523919E+02  0.11261341137E+02  0.50083405698E+02  0.00000000000E+00 0.  1.
         12    1    4    4    0    0  0.37907163344E+02 -0.62876885880E+01  0.37511801172E+02  0.53699378839E+02  0.00000000000E+00 0. -1.
         -5    1    5    5    0  502  0.19903821835E+02  0.17253757823E+02  0.63939113876E+02  0.69312008815E+02  0.47000000000E+01 0.  1.
         13    1    6    6    0    0  0.63999449008E+02  0.73593066769E+02  0.35313389471E+01  0.97592721576E+02  0.00000000000E+00 0. -1.
        -14    1    6    6    0    0 -0.15659798469E+02  0.43133435261E+02 -0.29552205852E+02  0.54580723669E+02  0.00000000000E+00 0.  1.
</event>
<event>
12    1  0.8500177E-002  0.1938683E+03  0.7818608E-02  0.1155893E+00
         21   -1    0    0  503  502  0.00000000000E+00  0.00000000000E+00  0.17542403580E+03  0.17542403580E+03  0.00000000000E+00 0. -1.
         21   -1    0    0  501  503 -0.00000000000E+00 -0.00000000000E+00 -0.22470972986E+03  0.22470972986E+03  0.00000000000E+00 0. -1.
          6    2    1    2  501    0  0.78996954258E+02 -0.42040074527E+02 -0.75730578353E+02  0.20447011446E+03  0.16752617874E+03 0.  0.
         24    2    3    3    0    0  0.11705743699E+03 -0.48659552680E+02 -0.54267300301E+02  0.16002711568E+03  0.81200629605E+02 0.  0.
         -6    2    1    2    0  502 -0.78996954258E+02  0.42040074527E+02  0.26444884292E+02  0.19566365119E+03  0.17197978324E+03 0.  0.
        -24    2    5    5    0    0  0.32063900830E+01 -0.19850262955E+02 -0.17182735487E+02  0.83800954541E+02  0.79517543388E+02 0.  0.
          5    1    3    3  501    0 -0.38060482730E+02  0.66194781528E+01 -0.21463278051E+02  0.44442998789E+02  0.47000000000E+01 0. -1.
        -13    1    4    4    0    0  0.13589424931E+02 -0.38653354072E+02 -0.35881075797E+02  0.54462885080E+02  0.00000000000E+00 0.  1.
         14    1    4    4    0    0  0.10346801206E+03 -0.10006198608E+02 -0.18386224505E+02  0.10556423060E+03  0.00000000000E+00 0. -1.
         -5    1    5    5    0  502 -0.82203344341E+02  0.61890337482E+02  0.43627619779E+02  0.11186269665E+03  0.47000000000E+01 0.  1.
         13    1    6    6    0    0 -0.29540565170E+02 -0.35080163149E+02 -0.10971602602E+02  0.47155475830E+02  0.00000000000E+00 0. -1.
        -14    1    6    6    0    0  0.32746955253E+02  0.15229900194E+02 -0.62111328848E+01  0.36645478711E+02  0.00000000000E+00 0.  1.
</event>
<event>
12    1  0.8500177E-002  0.2533895E+03  0.7818608E-02  0.1111255E+00
         21   -1    0    0  501  502  0.00000000000E+00  0.00000000000E+00  0.21556509861E+03  0.21556509861E+03  0.00000000000E+00 0.  1.
         21   -1    0    0  502  503 -0.00000000000E+00 -0.00000000000E+00 -0.38997990107E+03  0.38997990107E+03  0.00000000000E+00 0. -1.
         -6    2    1    2    0  503  0.16531864862E+03  0.85418260339E+02 -0.23475160763E+03  0.34507092250E+03  0.17128657125E+03 0.  0.
        -24    2    3    3    0    0  0.85398708089E+02  0.21135901979E+02 -0.20762212068E+03  0.23887526556E+03  0.78833887431E+02 0.  0.
          6    2    1    2  501    0 -0.16531864862E+03 -0.85418260339E+02  0.60336805167E+02  0.26047407718E+03  0.17198744153E+03 0.  0.
         24    2    5    5    0    0 -0.19044585255E+03 -0.54946075641E+02  0.56504979865E+02  0.22051530714E+03  0.78393200922E+02 0.  0.
          5    1    5    5  501    0  0.25127203933E+02 -0.30472184698E+02  0.38318253029E+01  0.39958770038E+02  0.47000000000E+01 0. -1.
        -11    1    6    6    0    0 -0.11121063554E+03 -0.71136514641E+02  0.29691305659E+02  0.13531364604E+03  0.00000000000E+00 0.  1.
         12    1    6    6    0    0 -0.79235217014E+02  0.16190439000E+02  0.26813674206E+02  0.85201661103E+02  0.00000000000E+00 0. -1.
         -5    1    3    3    0  503  0.79919940531E+02  0.64282358360E+02 -0.27129486957E+02  0.10619565694E+03  0.47000000000E+01 0.  1.
         13    1    4    4    0    0  0.56041467311E+02  0.85265149863E+00 -0.43579997620E+02  0.70997107445E+02  0.00000000000E+00 0. -1.
        -14    1    4    4    0    0  0.29357240778E+02  0.20283250480E+02 -0.16404212306E+03  0.16787815812E+03  0.00000000000E+00 0.  1.
</event>
<event>
12    1  0.8500177E-002  0.2119589E+03  0.7818608E-02  0.1140225E+00
         21   -1    0    0  501  502  0.00000000000E+00  0.00000000000E+00  0.55612342205E+03  0.55612342205E+03  0.00000000000E+00 0. -1.
         21   -1    0    0  502  503 -0.00000000000E+00 -0.00000000000E+00 -0.18995867279E+03  0.18995867279E+03  0.00000000000E+00 0. -1.
         -6    2    1    2    0  503  0.59900749062E+02 -0.10890077658E+03 -0.10041314825E+03  0.23361599036E+03  0.17042931594E+03 0.  0.
        -24    2    3    3    0    0  0.71973918283E+02 -0.12270773525E+02 -0.77221331959E+02  0.13340087549E+03  0.80634004464E+02 0.  0.
          6    2    1    2  501    0 -0.59900749062E+02  0.10890077658E+03  0.46657789752E+03  0.51246610448E+03  0.17169477250E+03 0.  0.
         24    2    5    5    0    0  0.74135432507E+01  0.29709127689E+02  0.33001666293E+03  0.34078735799E+03  0.79293333005E+02 0.  0.
          5    1    5    5  501    0 -0.67314292312E+02  0.79191648894E+02  0.13656123459E+03  0.17167874649E+03  0.47000000000E+01 0. -1.
        -11    1    6    6    0    0  0.16205991602E+02  0.13193817297E+02  0.16272846602E+02  0.26486157049E+02  0.00000000000E+00 0.  1.
         12    1    6    6    0    0 -0.87924483517E+01  0.16515310392E+02  0.31374381633E+03  0.31430120094E+03  0.00000000000E+00 0. -1.
         -5    1    3    3    0  503 -0.12073169221E+02 -0.96630003058E+02 -0.23191816295E+02  0.10021511487E+03  0.47000000000E+01 0.  1.
         13    1    4    4    0    0  0.41296860931E+02  0.13228476029E+02 -0.82460416058E+02  0.93167287807E+02  0.00000000000E+00 0. -1.
        -14    1    4    4    0    0  0.30677057351E+02 -0.25499249554E+02  0.52390840994E+01  0.40233587682E+02  0.00000000000E+00 0.  1.
</event>
<event>
12    1  0.8500177E-002  0.1766829E+03  0.7818608E-02  0.1171077E+00
         21   -1    0    0  503  502  0.00000000000E+00  0.00000000000E+00  0.12989772300E+03  0.12989772300E+03  0.00000000000E+00 0.  1.
         21   -1    0    0  501  503 -0.00000000000E+00 -0.00000000000E+00 -0.24952159835E+03  0.24952159835E+03  0.00000000000E+00 0.  1.
          6    2    1    2  501    0  0.25159393503E+02 -0.30552700069E+02 -0.96525484776E+02  0.20133061041E+03  0.17219286546E+03 0.  0.
         24    2    3    3    0    0  0.61686732960E+02  0.10647712737E+02 -0.10408951875E+03  0.14555404586E+03  0.80204273851E+02 0.  0.
         -6    2    1    2    0  502 -0.25159393503E+02  0.30552700069E+02 -0.23098390574E+02  0.17808871094E+03  0.17209180909E+03 0.  0.
        -24    2    5    5    0    0  0.17002019482E+01  0.59707289687E+02  0.36378615204E+02  0.10645748744E+03  0.80261708557E+02 0.  0.
          5    1    3    3  501    0 -0.36527339458E+02 -0.41200412806E+02  0.75640339708E+01  0.55776564551E+02  0.47000000000E+01 0. -1.
        -13    1    4    4    0    0  0.56396950087E+02 -0.24198095509E+02 -0.42687203389E+02  0.74755341873E+02  0.00000000000E+00 0.  1.
         14    1    4    4    0    0  0.52897828737E+01  0.34845808247E+02 -0.61402315358E+02  0.70798703989E+02  0.00000000000E+00 0. -1.
         -5    1    5    5    0  502 -0.26859595451E+02 -0.29154589618E+02 -0.59477005777E+02  0.71631223498E+02  0.47000000000E+01 0.  1.
         11    1    6    6    0    0  0.22603647137E+02  0.21996870469E+02 -0.18578578145E+02  0.36605337592E+02  0.00000000000E+00 0. -1.
        -12    1    6    6    0    0 -0.20903445189E+02  0.37710419218E+02  0.54957193348E+02  0.69852149853E+02  0.00000000000E+00 0.  1.
</event>
<event>
12    1  0.8500177E-002  0.1780543E+03  0.7818608E-02  0.1169745E+00
         21   -1    0    0  501  502  0.00000000000E+00  0.00000000000E+00  0.62218622409E+03  0.62218622409E+03  0.00000000000E+00 0.  1.
         21   -1    0    0  502  503 -0.00000000000E+00 -0.00000000000E+00 -0.59986188178E+02  0.59986188178E+02  0.00000000000E+00 0.  1.
         -6    2    1    2    0  503 -0.57813787493E+01  0.42066712224E+02  0.41371299089E+03  0.45032822370E+03  0.17272532417E+03 0.  0.
        -24    2    3    3    0    0  0.38908966323E+01  0.18318213287E+02  0.73099680037E+02  0.10871870738E+03  0.78265561374E+02 0.  0.
          6    2    1    2  501    0  0.57813787493E+01 -0.42066712224E+02  0.14848704503E+03  0.23184418858E+03  0.17291701078E+03 0.  0.
         24    2    5    5    0    0 -0.37197331832E+02  0.19386194940E+02  0.37205967991E+02  0.97571341474E+02  0.79852467546E+02 0.  0.
          5    1    5    5  501    0  0.42978710582E+02 -0.61452907164E+02  0.11128107704E+03  0.13427284710E+03  0.47000000000E+01 0. -1.
        -13    1    6    6    0    0  0.14390314274E+02 -0.59611391136E+01 -0.13735778993E+02  0.20767473341E+02  0.00000000000E+00 0.  1.
         14    1    6    6    0    0 -0.51587646106E+02  0.25347334054E+02  0.50941746983E+02  0.76803868133E+02  0.00000000000E+00 0. -1.
         -5    1    3    3    0  503 -0.96722753816E+01  0.23748498937E+02  0.34061331085E+03  0.34160951632E+03  0.47000000000E+01 0.  1.
         11    1    4    4    0    0 -0.19611353489E+00  0.43553485877E+02  0.70704596099E+02  0.83042666756E+02  0.00000000000E+00 0. -1.
        -12    1    4    4    0    0  0.40870101672E+01 -0.25235272590E+02  0.23950839380E+01  0.25676040619E+02  0.00000000000E+00 0.  1.
</event>
<event>
12    1  0.8500177E-002  0.1961906E+03  0.7818608E-02  0.1154376E+00
         21   -1    0    0  503  502  0.00000000000E+00  0.00000000000E+00  0.70112946453E+02  0.70112946453E+02  0.00000000000E+00 0. -1.
         21   -1    0    0  501  503 -0.00000000000E+00 -0.00000000000E+00 -0.77165580712E+03  0.77165580712E+03  0.00000000000E+00 0. -1.
          6    2    1    2  501    0 -0.51790317951E+02  0.65041107839E+02 -0.58945785593E+03  0.62124980641E+03  0.17770249097E+03 0.  0.
         24    2    3    3    0    0 -0.50586954030E+02 -0.32474389425E+02 -0.30017041004E+03  0.31593024161E+03  0.78076991605E+02 0.  0.
         -6    2    1    2    0  502  0.51790317951E+02 -0.65041107839E+02 -0.11208500473E+03  0.22051894717E+03  0.17074242306E+03 0.  0.
        -24    2    5    5    0    0 -0.25223227308E+02 -0.72784856882E+02 -0.80566808182E+02  0.13681387852E+03  0.79329566929E+02 0.  0.
          5    1    3    3  501    0 -0.12033639218E+01  0.97515497264E+02 -0.28928744590E+03  0.30531956479E+03  0.47000000000E+01 0. -1.
        -11    1    4    4    0    0 -0.63182711517E+02 -0.36258179348E+02 -0.16808803331E+03  0.18319469847E+03  0.00000000000E+00 0.  1.
         12    1    4    4    0    0  0.12595757488E+02  0.37837899225E+01 -0.13208237672E+03  0.13273554314E+03  0.00000000000E+00 0. -1.
         -5    1    5    5    0  502  0.77013545259E+02  0.77437490428E+01 -0.31518196552E+02  0.83705068643E+02  0.47000000000E+01 0.  1.
         13    1    6    6    0    0 -0.21059203838E+02 -0.83579641338E+02 -0.87906502133E+02  0.12311214250E+03  0.00000000000E+00 0. -1.
        -14    1    6    6    0    0 -0.41640234695E+01  0.10794784456E+02  0.73396939508E+01  0.13701736029E+02  0.00000000000E+00 0.  1.
</event>
<event>
12    1  0.8500177E-002  0.1714123E+03  0.7818608E-02  0.1177208E+00
         21   -1    0    0  501  502  0.00000000000E+00  0.00000000000E+00  0.50639876424E+03  0.50639876424E+03  0.00000000000E+00 0. -1.
         21   -1    0    0  502  503 -0.00000000000E+00 -0.00000000000E+00 -0.29816245732E+03  0.29816245732E+03  0.00000000000E+00 0. -1.
         -6    2    1    2    0  503  0.17673419826E+02  0.10978692393E+02 -0.25788879138E+03  0.30791769514E+03  0.16695447525E+03 0.  0.
        -24    2    3    3    0    0 -0.36516501459E+02 -0.29770112090E+02 -0.98852593633E+02  0.13496794860E+03  0.78897385427E+02 0.  0.
          6    2    1    2  501    0 -0.17673419826E+02 -0.10978692393E+02  0.46612509830E+03  0.49664352642E+03  0.17014494883E+03 0.  0.
         24    2    5    5    0    0 -0.38565173799E+02 -0.36434591628E+02  0.14827321597E+03  0.17705570236E+03  0.80926034531E+02 0.  0.
          5    1    5    5  501    0  0.20891753973E+02  0.25455899235E+02  0.31785188233E+03  0.31958782406E+03  0.47000000000E+01 0. -1.
        -13    1    6    6    0    0 -0.52268147212E+02  0.55232318762E+01  0.83905325357E+02  0.99007923554E+02  0.00000000000E+00 0.  1.
         14    1    6    6    0    0  0.13702973413E+02 -0.41957823504E+02  0.64367890614E+02  0.78047778801E+02  0.00000000000E+00 0. -1.
         -5    1    3    3    0  503  0.54189921285E+02  0.40748804484E+02 -0.15903619774E+03  0.17294974654E+03  0.47000000000E+01 0.  1.
         13    1    4    4    0    0  0.56487613753E+01 -0.63656335523E+01 -0.84110119051E+02  0.84539587900E+02  0.00000000000E+00 0. -1.
        -14    1    4    4    0    0 -0.42165262835E+02 -0.23404478538E+02 -0.14742474583E+02  0.50428360695E+02  0.00000000000E+00 0.  1.
</event>
<event>
12    1  0.8500177E-002  0.2085038E+03  0.7818608E-02  0.1143709E+00
         21   -1    0    0  501  502  0.00000000000E+00  0.00000000000E+00  0.93170080792E+03  0.93170080792E+03  0.00000000000E+00 0. -1.
         21   -1    0    0  502  503 -0.00000000000E+00 -0.00000000000E+00 -0.47957502641E+02  0.47957502641E+02  0.00000000000E+00 0. -1.
         -6    2    1    2    0  503  0.11339310325E+03  0.33214284996E+02  0.32875687185E+03  0.38679762553E+03  0.16604257807E+03 0.  0.
        -24    2    3    3    0    0  0.11308329160E+03  0.69387045923E+02  0.30833067640E+03  0.34498992197E+03  0.79673378668E+02 0.  0.
          6    2    1    2  501    0 -0.11339310325E+03 -0.33214284996E+02  0.55498643343E+03  0.59286068504E+03  0.17179250850E+03 0.  0.
         24    2    5    5    0    0 -0.17156508658E+02 -0.57483564023E+02  0.28928314430E+03  0.30918691484E+03  0.91176229411E+02 0.  0.
          5    1    5    5  501    0 -0.96236594590E+02  0.24269279026E+02  0.26570328913E+03  0.28367377019E+03  0.47000000000E+01 0. -1.
        -13    1    6    6    0    0 -0.24240811669E+02 -0.78249788385E+02  0.18058982032E+03  0.19830110825E+03  0.00000000000E+00 0.  1.
         14    1    6    6    0    0  0.70843030116E+01  0.20766224363E+02  0.10869332399E+03  0.11088580659E+03  0.00000000000E+00 0. -1.
         -5    1    3    3    0  503  0.30981164456E+00 -0.36172760927E+02  0.20426195448E+02  0.41807703559E+02  0.47000000000E+01 0.  1.
         13    1    4    4    0    0  0.99328984276E+02  0.43802465059E+02  0.15687464170E+03  0.19077357330E+03  0.00000000000E+00 0. -1.
        -14    1    4    4    0    0  0.13754307328E+02  0.25584580864E+02  0.15145603471E+03  0.15421634867E+03  0.00000000000E+00 0.  1.
</event>
<event>
12    1  0.8500177E-002  0.3431294E+03  0.7818608E-02  0.1065763E+00
         21   -1    0    0  503  502  0.00000000000E+00  0.00000000000E+00  0.41477063146E+03  0.41477063146E+03  0.00000000000E+00 0.  1.
         21   -1    0    0  501  503 -0.00000000000E+00 -0.00000000000E+00 -0.28160440067E+03  0.28160440067E+03  0.00000000000E+00 0. -1.
          6    2    1    2  501    0  0.20983475163E+03 -0.20846841074E+03  0.69403364982E+02  0.34737147402E+03  0.16840550057E+03 0.  0.
         24    2    3    3    0    0  0.15176989411E+03 -0.19276675975E+03  0.10375876063E+03  0.27794199373E+03  0.79326836888E+02 0.  0.
         -6    2    1    2    0  502 -0.20983475163E+03  0.20846841074E+03  0.63762865810E+02  0.34900355811E+03  0.17391974945E+03 0.  0.
        -24    2    5    5    0    0 -0.91138151540E+02  0.13187033882E+03  0.96988815186E+02  0.20380644655E+03  0.80214016577E+02 0.  0.
          5    1    3    3  501    0  0.58064857522E+02 -0.15701650989E+02 -0.34355395646E+02  0.69429480286E+02  0.47000000000E+01 0. -1.
        -13    1    4    4    0    0  0.30162222930E+02 -0.52956668840E+02  0.64100100517E+02  0.88447675792E+02  0.00000000000E+00 0.  1.
         14    1    4    4    0    0  0.12160767118E+03 -0.13981009091E+03  0.39658660110E+02  0.18949431794E+03  0.00000000000E+00 0. -1.
         -5    1    5    5    0  502 -0.11869660009E+03  0.76598071918E+02 -0.33225949376E+02  0.14519711157E+03  0.47000000000E+01 0.  1.
         13    1    6    6    0    0 -0.77628617226E+02  0.11735367628E+03  0.44308217555E+02  0.14751713694E+03  0.00000000000E+00 0. -1.
        -14    1    6    6    0    0 -0.13509534314E+02  0.14516662540E+02  0.52680597631E+02  0.56289309602E+02  0.00000000000E+00 0.  1.
</event>
<event>
12    1  0.8500177E-002  0.1771916E+03  0.7818608E-02  0.1170552E+00
         21   -1    0    0  501  502  0.00000000000E+00  0.00000000000E+00  0.85849553475E+03  0.85849553475E+03  0.00000000000E+00 0. -1.
         21   -1    0    0  502  503 -0.00000000000E+00 -0.00000000000E+00 -0.14384800771E+03  0.14384800771E+03  0.00000000000E+00 0. -1.
         -6    2    1    2    0  503  0.14372867277E+02 -0.42724627952E+02 -0.75477296627E+02  0.19259719084E+03  0.17136184659E+03 0.  0.
        -24    2    3    3    0    0 -0.24042564330E+02 -0.83879046325E+02 -0.65470898789E+02  0.13522429188E+03  0.79908893218E+02 0.  0.
          6    2    1    2  501    0 -0.14372867277E+02  0.42724627952E+02  0.79012482367E+03  0.80974635162E+03  0.17134743605E+03 0.  0.
         24    2    5    5    0    0  0.39269396905E+02  0.70695051559E+02  0.55025323860E+03  0.56231897960E+03  0.82970671804E+02 0.  0.
          5    1    5    5  501    0 -0.53642264183E+02 -0.27970423606E+02  0.23987158507E+03  0.24742737203E+03  0.47000000000E+01 0. -1.
        -11    1    6    6    0    0 -0.23567082857E+01 -0.15546523562E+02  0.36904171431E+02  0.40114415586E+02  0.00000000000E+00 0.  1.
         12    1    6    6    0    0  0.41626105191E+02  0.86241575121E+02  0.51334906717E+03  0.52220456401E+03  0.00000000000E+00 0. -1.
         -5    1    3    3    0  503  0.38415431607E+02  0.41154418373E+02 -0.10006397838E+02  0.57372898958E+02  0.47000000000E+01 0.  1.
         13    1    4    4    0    0  0.22624578731E+02 -0.52468412237E+02 -0.52275941629E+02  0.77444043790E+02  0.00000000000E+00 0. -1.
        -14    1    4    4    0    0 -0.46667143061E+02 -0.31410634089E+02 -0.13194957160E+02  0.57780248094E+02  0.00000000000E+00 0.  1.
</event>
<event>
12    1  0.8500177E-002  0.2338214E+03  0.7818608E-02  0.1124066E+00
         21   -1    0    0  503  502  0.00000000000E+00  0.00000000000E+00  0.18384298518E+03  0.18384298518E+03  0.00000000000E+00 0. -1.
         21   -1    0    0  501  503 -0.00000000000E+00 -0.00000000000E+00 -0.39029541758E+03  0.39029541758E+03  0.00000000000E+00 0. -1.
          6    2    1    2  501    0  0.15681382476E+03  0.13992360185E+02  0.37236215555E+02  0.23676781969E+03  0.17287597551E+03 0.  0.
         24    2    3    3    0    0  0.17725545292E+03  0.30640055899E+02  0.80408946352E+01  0.19715137489E+03  0.80285117048E+02 0.  0.
         -6    2    1    2    0  502 -0.15681382476E+03 -0.13992360185E+02 -0.24368864795E+03  0.33737058307E+03  0.17218708256E+03 0.  0.
        -24    2    5    5    0    0 -0.17653852528E+03 -0.32796624067E+02 -0.23949016556E+03  0.30939950149E+03  0.78300974870E+02 0.  0.
          5    1    3    3  501    0 -0.20441628160E+02 -0.16647695714E+02  0.29195320920E+02  0.39616444793E+02  0.47000000000E+01 0. -1.
        -13    1    4    4    0    0  0.16598354183E+01  0.16803889931E+02  0.12412894473E+02  0.20957235496E+02  0.00000000000E+00 0.  1.
         14    1    4    4    0    0  0.17559561751E+03  0.13836165968E+02 -0.43719998375E+01  0.17619413940E+03  0.00000000000E+00 0. -1.
         -5    1    5    5    0  502  0.19724700512E+02  0.18804263882E+02 -0.41984823887E+01  0.27971081581E+02  0.47000000000E+01 0.  1.
         13    1    6    6    0    0 -0.63137961641E+02  0.22092642712E+01 -0.14338583564E+03  0.15668688813E+03  0.00000000000E+00 0. -1.
        -14    1    6    6    0    0 -0.11340056363E+03 -0.35005888338E+02 -0.96104329923E+02  0.15271261337E+03  0.00000000000E+00 0.  1.
</event>
<event>
12    1  0.8500177E-002  0.2185382E+03  0.7818608E-02  0.1138157E+00
         21   -1    0    0  503  502  0.00000000000E+00  0.00000000000E+00  0.15780461933E+04  0.15780461933E+04  0.00000000000E+00 0. -1.
         21   -1    0    0  501  503 -0.00000000000E+00 -0.00000000000E+00 -0.97747626405E+02  0.97747626405E+02  0.00000000000E+00 0.  1.
          6    2    1    2  501    0  0.90422201192E+02  0.58270516142E+02  0.41005439127E+02  0.22235192857E+03  0.19022961541E+03 0.  0.
         24    2    3    3    0    0  0.13559884425E+02  0.30209349671E+02  0.95351727686E+02  0.12401142886E+03  0.72044481000E+02 0.  0.
         -6    2    1    2    0  502 -0.90422201192E+02 -0.58270516142E+02  0.14392931278E+04  0.14534418912E+04  0.17133883317E+03 0.  0.
        -24    2    5    5    0    0 -0.15052533183E+02 -0.88196656194E+02  0.91843368053E+03  0.92628649233E+03  0.80504729190E+02 0.  0.
          5    1    3    3  501    0  0.76862316767E+02  0.28061166471E+02 -0.54346288559E+02  0.98340499707E+02  0.47000000000E+01 0. -1.
        -11    1    4    4    0    0 -0.20041387448E+02  0.82044415347E+01  0.12448001559E+01  0.21691463739E+02  0.00000000000E+00 0.  1.
         12    1    4    4    0    0  0.33601271873E+02  0.22004908137E+02  0.94106927530E+02  0.10231996512E+03  0.00000000000E+00 0. -1.
         -5    1    5    5    0  502 -0.75369668009E+02  0.29926140052E+02  0.52085944727E+03  0.52715539884E+03  0.47000000000E+01 0.  1.
         13    1    6    6    0    0 -0.31276169065E+02 -0.21357170575E+02  0.56216573141E+03  0.56344000306E+03  0.00000000000E+00 0. -1.
        -14    1    6    6    0    0  0.16223635882E+02 -0.66839485619E+02  0.35626794913E+03  0.36284648927E+03  0.00000000000E+00 0.  1.
</event>
<event>
12    1  0.8500177E-002  0.1752872E+03  0.7818608E-02  0.1172608E+00
         21   -1    0    0  501  502  0.00000000000E+00  0.00000000000E+00  0.28176648732E+02  0.28176648732E+02  0.00000000000E+00 0.  1.
         21   -1    0    0  502  503 -0.00000000000E+00 -0.00000000000E+00 -0.14505196749E+04  0.14505196749E+04  0.00000000000E+00 0.  1.
         -6    2    1    2    0  503 -0.32684161060E+02  0.24099988079E+01 -0.10806124322E+04  0.10946320159E+04  0.17152830381E+03 0.  0.
        -24    2    3    3    0    0  0.38470850712E+02  0.35126744032E+01 -0.80075637249E+03  0.80583146919E+03  0.81616440813E+02 0.  0.
          6    2    1    2  501    0  0.32684161060E+02 -0.24099988079E+01 -0.34173059397E+03  0.38406430779E+03  0.17219619968E+03 0.  0.
         24    2    5    5    0    0 -0.39614638816E+02 -0.36258645876E+02 -0.16439577227E+03  0.18953262307E+03  0.77541190723E+02 0.  0.
          5    1    5    5  501    0  0.72298799877E+02  0.33848647068E+02 -0.17733482170E+03  0.19453168471E+03  0.47000000000E+01 0. -1.
        -13    1    6    6    0    0  0.23411141454E+02 -0.77195680902E+01 -0.35127729018E+02  0.42914224002E+02  0.00000000000E+00 0.  1.
         14    1    6    6    0    0 -0.63025780271E+02 -0.28539077786E+02 -0.12926804325E+03  0.14661839907E+03  0.00000000000E+00 0. -1.
         -5    1    3    3    0  503 -0.71155011772E+02 -0.11026755954E+01 -0.27985605973E+03  0.28880054668E+03  0.47000000000E+01 0.  1.
         11    1    4    4    0    0  0.51053398025E+02 -0.20906251133E+02 -0.35820930085E+03  0.36243264754E+03  0.00000000000E+00 0. -1.
        -12    1    4    4    0    0 -0.12582547313E+02  0.24418925536E+02 -0.44254707164E+03  0.44339882165E+03  0.00000000000E+00 0.  1.
</event>
<event>
12    1  0.8500177E-002  0.2563951E+03  0.7818608E-02  0.1109356E+00
         21   -1    0    0  503  502  0.00000000000E+00  0.00000000000E+00  0.91779042970E+02  0.91779042970E+02  0.00000000000E+00 0. -1.
         21   -1    0    0  501  503 -0.00000000000E+00 -0.00000000000E+00 -0.72434834780E+03  0.72434834780E+03  0.00000000000E+00 0.  1.
          6    2    1    2  501    0 -0.18150042075E+03 -0.55827175429E+02 -0.36079967539E+03  0.44262269401E+03  0.17227700728E+03 0.  0.
         24    2    3    3    0    0 -0.15927027293E+03 -0.10165485079E+03 -0.28022521731E+03  0.34718324411E+03  0.79431127680E+02 0.  0.
         -6    2    1    2    0  502  0.18150042075E+03  0.55827175429E+02 -0.27176962943E+03  0.37350469676E+03  0.17201148442E+03 0.  0.
        -24    2    5    5    0    0  0.24428284884E+02  0.34680541765E+02 -0.51977527711E+02  0.10248902570E+03  0.77478099631E+02 0.  0.
          5    1    3    3  501    0 -0.22230147818E+02  0.45827675363E+02 -0.80574458084E+02  0.95439449897E+02  0.47000000000E+01 0. -1.
        -13    1    4    4    0    0 -0.11029197857E+03 -0.33735358624E+02 -0.20191565430E+03  0.23253457036E+03  0.00000000000E+00 0.  1.
         14    1    4    4    0    0 -0.48978294359E+02 -0.67919492168E+02 -0.78309563009E+02  0.11464867375E+03  0.00000000000E+00 0. -1.
         -5    1    5    5    0  502  0.15707213587E+03  0.21146633664E+02 -0.21979210172E+03  0.27101567106E+03  0.47000000000E+01 0.  1.
         13    1    6    6    0    0  0.43198308974E+02  0.48477441027E+02 -0.40413668002E+02  0.76481505922E+02  0.00000000000E+00 0. -1.
        -14    1    6    6    0    0 -0.18770024090E+02 -0.13796899262E+02 -0.11563859709E+02  0.26007519777E+02  0.00000000000E+00 0.  1.
</event>
<event>
12    1  0.8500177E-002  0.2355254E+03  0.7818608E-02  0.1123132E+00
         21   -1    0    0  501  502  0.00000000000E+00  0.00000000000E+00  0.35472437841E+02  0.35472437841E+02  0.00000000000E+00 0. -1.
         21   -1    0    0  502  503 -0.00000000000E+00 -0.00000000000E+00 -0.16102993583E+04  0.16102993583E+04  0.00000000000E+00 0.  1.
         -6    2    1    2    0  503  0.40306153415E+01  0.15920565637E+03 -0.94787938983E+03  0.97670237673E+03  0.17352091569E+03 0.  0.
        -24    2    3    3    0    0  0.27613821618E+02  0.17566572622E+03 -0.89729689376E+03  0.91832617930E+03  0.80995589611E+02 0.  0.
          6    2    1    2  501    0 -0.40306153415E+01 -0.15920565637E+03 -0.62694753060E+03  0.66906941938E+03  0.17096196927E+03 0.  0.
         24    2    5    5    0    0  0.20405145662E+02 -0.39509797279E+02 -0.41112849425E+03  0.42102879458E+03  0.79127827138E+02 0.  0.
          5    1    5    5  501    0 -0.24435761003E+02 -0.11969585909E+03 -0.21581903635E+03  0.24804062480E+03  0.47000000000E+01 0. -1.
        -13    1    6    6    0    0 -0.40556720867E+01 -0.44286233943E+02 -0.37192195706E+03  0.37457130314E+03  0.00000000000E+00 0.  1.
         14    1    6    6    0    0  0.24460817749E+02  0.47764366640E+01 -0.39206537194E+02  0.46457491440E+02  0.00000000000E+00 0. -1.
         -5    1    3    3    0  503 -0.23583206277E+02 -0.16460069854E+02 -0.50582496069E+02  0.58376197431E+02  0.47000000000E+01 0.  1.
         11    1    4    4    0    0 -0.11216456713E+02  0.62039408577E+01 -0.18557642240E+02  0.22554021124E+02  0.00000000000E+00 0. -1.
        -12    1    4    4    0    0  0.38830278331E+02  0.16946178537E+03 -0.87873925152E+03  0.89577215818E+03  0.00000000000E+00 0.  1.
</event>
<event>
12    1  0.8500177E-002  0.1784210E+03  0.7818608E-02  0.1169565E+00
         21   -1    0    0  503  502  0.00000000000E+00  0.00000000000E+00  0.26413737480E+03  0.26413737480E+03  0.00000000000E+00 0.  1.
         21   -1    0    0  501  503 -0.00000000000E+00 -0.00000000000E+00 -0.17012932421E+03  0.17012932421E+03  0.00000000000E+00 0. -1.
          6    2    1    2  501    0 -0.42812156061E+02 -0.18583028094E+02 -0.70888613816E+02  0.19198765879E+03  0.17220875680E+03 0.  0.
         24    2    3    3    0    0  0.13503415872E+02 -0.66060270115E+02 -0.42301896145E+02  0.11283702658E+03  0.79977763298E+02 0.  0.
         -6    2    1    2    0  502  0.42812156061E+02  0.18583028094E+02  0.16489666440E+03  0.24227904022E+03  0.17126007638E+03 0.  0.
        -24    2    5    5    0    0  0.56915912270E+02  0.14533515756E+02  0.18912314725E+03  0.21356794549E+03  0.79956603023E+02 0.  0.
          5    1    3    3  501    0 -0.56315571933E+02  0.47477242021E+02 -0.28586717671E+02  0.79150632211E+02  0.47000000000E+01 0. -1.
        -13    1    4    4    0    0  0.40139410688E+02 -0.66669826934E+02 -0.34065882099E+02  0.84950117345E+02  0.00000000000E+00 0.  1.
         14    1    4    4    0    0 -0.26635994816E+02  0.60955681875E+00 -0.82360140460E+01  0.27886909235E+02  0.00000000000E+00 0. -1.
         -5    1    5    5    0  502 -0.14103756209E+02  0.40495123376E+01 -0.24226482848E+02  0.28711094729E+02  0.47000000000E+01 0.  1.
         11    1    6    6    0    0 -0.14220873910E+02 -0.15735142169E+02  0.31043492930E+02  0.37596893583E+02  0.00000000000E+00 0. -1.
        -12    1    6    6    0    0  0.71136786179E+02  0.30268657925E+02  0.15807965432E+03  0.17597105191E+03  0.00000000000E+00 0.  1.
</event>
<event>
12    1  0.8500177E-002  0.1753312E+03  0.7818608E-02  0.1173195E+00
         21   -1    0    0  503  502  0.00000000000E+00  0.00000000000E+00  0.39167557799E+03  0.39167557799E+03  0.00000000000E+00 0. -1.
         21   -1    0    0  501  503 -0.00000000000E+00 -0.00000000000E+00 -0.11522973080E+03  0.11522973080E+03  0.00000000000E+00 0. -1.
          6    2    1    2  501    0 -0.22953140090E+02 -0.21385081865E+02 -0.67621881255E+01  0.17546156211E+03  0.17250178035E+03 0.  0.
         24    2    3    3    0    0 -0.72352071569E+02  0.18129119179E+02  0.60544770631E+01  0.11074693144E+03  0.81637852183E+02 0.  0.
         -6    2    1    2    0  502  0.22953140090E+02  0.21385081865E+02  0.28320803531E+03  0.33144374669E+03  0.16930445235E+03 0.  0.
        -24    2    5    5    0    0 -0.30713851854E+02 -0.12433507098E+02  0.23886297856E+03  0.25390396952E+03  0.79459237475E+02 0.  0.
          5    1    3    3  501    0  0.49398931479E+02 -0.39514201044E+02 -0.12816665189E+02  0.64714630664E+02  0.47000000000E+01 0. -1.
        -13    1    4    4    0    0 -0.11842944268E+02 -0.66987049523E+00 -0.33848657733E+02  0.35866916312E+02  0.00000000000E+00 0.  1.
         14    1    4    4    0    0 -0.60509127301E+02  0.18798989674E+02  0.39903134796E+02  0.74880015131E+02  0.00000000000E+00 0. -1.
         -5    1    5    5    0  502  0.53666991944E+02  0.33818588963E+02  0.44345056756E+02  0.77539777163E+02  0.47000000000E+01 0.  1.
         11    1    6    6    0    0 -0.18523228017E+02  0.31135951722E+02  0.66798089544E+02  0.75990408819E+02  0.00000000000E+00 0. -1.
        -12    1    6    6    0    0 -0.12190623837E+02 -0.43569458820E+02  0.17206488901E+03  0.17791356070E+03  0.00000000000E+00 0.  1.
</event>
<event>
12    1  0.8500177E-002  0.1883858E+03  0.7818608E-02  0.1160215E+00
         21   -1    0    0  503  502  0.00000000000E+00  0.00000000000E+00  0.37536066668E+03  0.37536066668E+03  0.00000000000E+00 0. -1.
         21   -1    0    0  501  503 -0.00000000000E+00 -0.00000000000E+00 -0.94099817843E+02  0.94099817843E+02  0.00000000000E+00 0. -1.
          6    2    1    2  501    0 -0.69651268686E+02  0.20325829449E+02  0.15063562100E+03  0.24021793916E+03  0.17247935937E+03 0.  0.
         24    2    3    3    0    0  0.96930756856E+01 -0.20350091112E+02  0.11576410906E+03  0.14436300792E+03  0.83254232237E+02 0.  0.
         -6    2    1    2    0  502  0.69651268686E+02 -0.20325829449E+02  0.13062522784E+03  0.22924254537E+03  0.17385268443E+03 0.  0.
        -24    2    5    5    0    0  0.80945432197E+02 -0.60657713131E+02  0.52330813650E+02  0.14032503154E+03  0.81982188704E+02 0.  0.
          5    1    3    3  501    0 -0.79344344371E+02  0.40675920562E+02  0.34871511937E+02  0.95854931235E+02  0.47000000000E+01 0. -1.
        -13    1    4    4    0    0 -0.32594449648E+02 -0.23707694586E+02  0.36097194672E+02  0.54106010697E+02  0.00000000000E+00 0.  1.
         14    1    4    4    0    0  0.42287525333E+02  0.33576034738E+01  0.79666914390E+02  0.90256997226E+02  0.00000000000E+00 0. -1.
         -5    1    5    5    0  502 -0.11294163511E+02  0.40331883682E+02  0.78294414190E+02  0.88917513821E+02  0.47000000000E+01 0.  1.
         13    1    6    6    0    0  0.16712798591E+02 -0.37299499722E+02  0.58867158729E+02  0.71665282342E+02  0.00000000000E+00 0. -1.
        -14    1    6    6    0    0  0.64232633606E+02 -0.23358213409E+02 -0.65363450792E+01  0.68659749203E+02  0.00000000000E+00 0.  1.
</event>
<event>
12    1  0.8500177E-002  0.1752571E+03  0.7818608E-02  0.1172673E+00
         21   -1    0    0  503  502  0.00000000000E+00  0.00000000000E+00  0.27415926233E+02  0.27415926233E+02  0.00000000000E+00 0.  1.
         21   -1    0    0  501  503 -0.00000000000E+00 -0.00000000000E+00 -0.17242612949E+04  0.17242612949E+04  0.00000000000E+00 0.  1.
          6    2    1    2  501    0  0.30721466847E+02  0.14217822648E+02 -0.13701708825E+04  0.13813338832E+04  0.17195666531E+03 0.  0.
         24    2    3    3    0    0  0.83131253272E+01  0.75673795816E+02 -0.89042818946E+03  0.89712926541E+03  0.78631589354E+02 0.  0.
         -6    2    1    2    0  502 -0.30721466847E+02 -0.14217822648E+02 -0.32667448622E+03  0.37034333794E+03  0.17114909583E+03 0.  0.
        -24    2    5    5    0    0 -0.34869538066E+01  0.36237488426E+02 -0.28835247228E+03  0.30121936331E+03  0.79124219733E+02 0.  0.
          5    1    3    3  501    0  0.22408341520E+02 -0.61455973169E+02 -0.47974269303E+03  0.48420461783E+03  0.47000000000E+01 0. -1.
        -11    1    4    4    0    0  0.16979291707E+02 -0.12288303762E+02 -0.15613452038E+03  0.15753503487E+03  0.00000000000E+00 0.  1.
         12    1    4    4    0    0 -0.86661663797E+01  0.87962099578E+02 -0.73429366908E+03  0.73959423054E+03  0.00000000000E+00 0. -1.
         -5    1    5    5    0  502 -0.27234513041E+02 -0.50455311074E+02 -0.38322013939E+02  0.69123974629E+02  0.47000000000E+01 0.  1.
         13    1    6    6    0    0 -0.33061038863E+02  0.39796111775E+02 -0.12689047338E+03  0.13703267872E+03  0.00000000000E+00 0. -1.
        -14    1    6    6    0    0  0.29574085057E+02 -0.35586233488E+01 -0.16146199890E+03  0.16418668459E+03  0.00000000000E+00 0.  1.
</event>
<event>
12    1  0.8500177E-002  0.2103201E+03  0.7818608E-02  0.1141314E+00
         21   -1    0    0  501  502  0.00000000000E+00  0.00000000000E+00  0.51104473459E+02  0.51104473459E+02  0.00000000000E+00 0.  1.
         21   -1    0    0  502  503 -0.00000000000E+00 -0.00000000000E+00 -0.12336564757E+04  0.12336564757E+04  0.00000000000E+00 0.  1.
         -6    2    1    2    0  503 -0.97335273206E+02  0.72481087588E+02 -0.94217853977E+03  0.96536777325E+03  0.17177564829E+03 0.  0.
        -24    2    3    3    0    0 -0.12211699080E+03  0.58854625163E+02 -0.57875143325E+03  0.60081165169E+03  0.87435650499E+02 0.  0.
          6    2    1    2  501    0  0.97335273206E+02 -0.72481087588E+02 -0.24037346248E+03  0.31939317592E+03  0.17177000871E+03 0.  0.
         24    2    5    5    0    0  0.13187020727E+03 -0.79411134278E+02 -0.19572326986E+03  0.26232815232E+03  0.82538362736E+02 0.  0.
          5    1    5    5  501    0 -0.34534934062E+02  0.69300466894E+01 -0.44650192615E+02  0.57065023598E+02  0.47000000000E+01 0. -1.
        -11    1    6    6    0    0  0.11405395325E+03 -0.96232374960E+02 -0.15787299365E+03  0.21723916858E+03  0.00000000000E+00 0.  1.
         12    1    6    6    0    0  0.17816254019E+02  0.16821240682E+02 -0.37850276217E+02  0.45088983744E+02  0.00000000000E+00 0. -1.
         -5    1    3    3    0  503  0.24781717592E+02  0.13626462425E+02 -0.36342710653E+03  0.36455612156E+03  0.47000000000E+01 0.  1.
         11    1    4    4    0    0 -0.16037625244E+02  0.12538217902E+02 -0.14965499160E+02  0.25266153184E+02  0.00000000000E+00 0. -1.
        -12    1    4    4    0    0 -0.10607936556E+03  0.46316407262E+02 -0.56378593409E+03  0.57554549851E+03  0.00000000000E+00 0.  1.
</event>
<event>
12    1  0.8500177E-002  0.2283063E+03  0.7818608E-02  0.1128408E+00
         21   -1    0    0  501  502  0.00000000000E+00  0.00000000000E+00  0.22149845392E+03  0.22149845392E+03  0.00000000000E+00 0. -1.
         21   -1    0    0  502  503 -0.00000000000E+00 -0.00000000000E+00 -0.23667445510E+03  0.23667445510E+03  0.00000000000E+00 0. -1.
         -6    2    1    2    0  503  0.93157686639E+02 -0.11766359450E+03  0.24476220961E+02  0.22644879823E+03  0.16780016918E+03 0.  0.
        -24    2    3    3    0    0  0.10424976887E+03 -0.28050745123E+02  0.11004403286E+02  0.13503174877E+03  0.80359303573E+02 0.  0.
          6    2    1    2  501    0 -0.93157686639E+02  0.11766359450E+03 -0.39652222145E+02  0.23172411078E+03  0.17204850696E+03 0.  0.
         24    2    5    5    0    0 -0.76028050406E+02  0.26235667686E+02  0.20050154498E+02  0.12109430460E+03  0.88279370205E+02 0.  0.
          5    1    5    5  501    0 -0.17129636233E+02  0.91427926815E+02 -0.59702376643E+02  0.11062980618E+03  0.47000000000E+01 0. -1.
        -11    1    6    6    0    0 -0.30370827541E+02 -0.32440828018E+02  0.13573878658E+02  0.46465521302E+02  0.00000000000E+00 0.  1.
         12    1    6    6    0    0 -0.45657222865E+02  0.58676495705E+02  0.64762758401E+01  0.74628783299E+02  0.00000000000E+00 0. -1.
         -5    1    3    3    0  503 -0.11092082236E+02 -0.89612849378E+02  0.13471817676E+02  0.91417049468E+02  0.47000000000E+01 0.  1.
         11    1    4    4    0    0  0.75348873940E+02 -0.56272405290E+02  0.10569280454E+02  0.94634803801E+02  0.00000000000E+00 0. -1.
        -12    1    4    4    0    0  0.28900894934E+02  0.28221660167E+02  0.43512283123E+00  0.40396944964E+02  0.00000000000E+00 0.  1.
</event>
<event>
12    1  0.8500177E-002  0.2280486E+03  0.7818608E-02  0.1129021E+00
         21   -1    0    0  501  502  0.00000000000E+00  0.00000000000E+00  0.11735223415E+04  0.11735223415E+04  0.00000000000E+00 0.  1.
         21   -1    0    0  502  503 -0.00000000000E+00 -0.00000000000E+00 -0.46638947375E+02  0.46638947375E+02  0.00000000000E+00 0. -1.
         -6    2    1    2    0  503 -0.12771805778E+03 -0.76952730674E+02  0.39243959666E+03  0.45112690966E+03  0.16514547088E+03 0.  0.
        -24    2    3    3    0    0 -0.75589492790E+02 -0.17979612330E+02  0.10704117456E+03  0.15503644154E+03  0.80879214108E+02 0.  0.
          6    2    1    2  501    0  0.12771805778E+03  0.76952730674E+02  0.73444379750E+03  0.76903437924E+03  0.17254726812E+03 0.  0.
         24    2    5    5    0    0  0.12140524184E+03 -0.18462322874E+01  0.53007705788E+03  0.54986097194E+03  0.81380340670E+02 0.  0.
          5    1    5    5  501    0  0.63128159394E+01  0.78798962962E+02  0.20436673962E+03  0.21917340731E+03  0.47000000000E+01 0. -1.
        -13    1    6    6    0    0  0.20714878620E+02  0.32860213524E+02  0.11725794667E+03  0.12352459629E+03  0.00000000000E+00 0.  1.
         14    1    6    6    0    0  0.10069036322E+03 -0.34706445812E+02  0.41281911120E+03  0.42633637565E+03  0.00000000000E+00 0. -1.
         -5    1    3    3    0  503 -0.52128564993E+02 -0.58973118345E+02  0.28539842209E+03  0.29609046812E+03  0.47000000000E+01 0.  1.
         13    1    4    4    0    0  0.24476071305E+01 -0.32100744406E+02  0.38765054002E+02  0.50390256835E+02  0.00000000000E+00 0. -1.
        -14    1    4    4    0    0 -0.78037099921E+02  0.14121132077E+02  0.68276120562E+02  0.10464618471E+03  0.00000000000E+00 0.  1.
</event>
<event>
12    1  0.8500177E-002  0.1943359E+03  0.7818608E-02  0.1155131E+00
         21   -1    0    0  501  502  0.00000000000E+00  0.00000000000E+00  0.10094537214E+03  0.10094537214E+03  0.00000000000E+00 0. -1.
         21   -1    0    0  502  503 -0.00000000000E+00 -0.00000000000E+00 -0.12658696811E+04  0.12658696811E+04  0.00000000000E+00 0. -1.
         -6    2    1    2    0  503  0.40872903123E+02  0.81177145114E+02 -0.11564720633E+04  0.11722954240E+04  0.16908165136E+03 0.  0.
        -24    2    3    3    0    0 -0.21563579360E+02  0.83249635220E+02 -0.93370681698E+03  0.94088873756E+03  0.77895485539E+02 0.  0.
          6    2    1    2  501    0 -0.40872903123E+02 -0.81177145114E+02 -0.84522456114E+01  0.19451962919E+03  0.17177346299E+03 0.  0.
         24    2    5    5    0    0  0.30763787910E+02 -0.22848762993E+02  0.30261507002E+02  0.94245702848E+02  0.80610279012E+02 0.  0.
          5    1    5    5  501    0 -0.71636691033E+02 -0.58328382120E+02 -0.38713752613E+02  0.10027392634E+03  0.47000000000E+01 0. -1.
        -13    1    6    6    0    0 -0.59693434570E+01  0.25151525814E+02 -0.16370044552E+01  0.25901970884E+02  0.00000000000E+00 0.  1.
         14    1    6    6    0    0  0.36733131367E+02 -0.48000288807E+02  0.31898511457E+02  0.68343731964E+02  0.00000000000E+00 0. -1.
         -5    1    3    3    0  503  0.62436482483E+02 -0.20724901060E+01 -0.22276524632E+03  0.23140668644E+03  0.47000000000E+01 0.  1.
         11    1    4    4    0    0 -0.38540793882E+02  0.10893226234E+02 -0.40666601908E+03  0.40863346197E+03  0.00000000000E+00 0. -1.
        -12    1    4    4    0    0  0.16977214522E+02  0.72356408986E+02 -0.52704079790E+03  0.53225527559E+03  0.00000000000E+00 0.  1.
</event>
<event>
12    1  0.8500177E-002  0.2033049E+03  0.7818608E-02  0.1147143E+00
         21   -1    0    0  503  502  0.00000000000E+00  0.00000000000E+00  0.18366280880E+03  0.18366280880E+03  0.00000000000E+00 0. -1.
         21   -1    0    0  501  503 -0.00000000000E+00 -0.00000000000E+00 -0.29908354900E+03  0.29908354900E+03  0.00000000000E+00 0. -1.
          6    2    1    2  501    0 -0.37101984351E+02 -0.10230626855E+03 -0.17859012864E+03  0.27060544010E+03  0.17172577074E+03 0.  0.
         24    2    3    3    0    0 -0.88427096513E+02 -0.56066839749E+02 -0.94883703327E+02  0.16197207712E+03  0.79178246328E+02 0.  0.
         -6    2    1    2    0  502  0.37101984351E+02  0.10230626855E+03  0.63169388443E+02  0.21214091770E+03  0.17079305460E+03 0.  0.
        -24    2    5    5    0    0 -0.43971511389E+01 -0.10599637124E+02  0.28013723668E+02  0.86729863372E+02  0.81274923817E+02 0.  0.
          5    1    3    3  501    0  0.51325112162E+02 -0.46239428801E+02 -0.83706425309E+02  0.10863336298E+03  0.47000000000E+01 0. -1.
        -13    1    4    4    0    0 -0.36610027332E+02  0.12047551868E+02 -0.55971085778E+02  0.67957339931E+02  0.00000000000E+00 0.  1.
         14    1    4    4    0    0 -0.51817069181E+02 -0.68114391617E+02 -0.38912617549E+02  0.94014737187E+02  0.00000000000E+00 0. -1.
         -5    1    5    5    0  502  0.41499135490E+02  0.11290590567E+03  0.35155664776E+02  0.12541105433E+03  0.47000000000E+01 0.  1.
         13    1    6    6    0    0  0.15886325044E+02  0.31092807175E+02  0.18053944617E+02  0.39307542504E+02  0.00000000000E+00 0. -1.
        -14    1    6    6    0    0 -0.20283476183E+02 -0.41692444299E+02  0.99597790505E+01  0.47422320868E+02  0.00000000000E+00 0.  1.
</event>
<event>
12    1  0.8500177E-002  0.2313476E+03  0.7818608E-02  0.1127514E+00
         21   -1    0    0  501  502  0.00000000000E+00  0.00000000000E+00  0.10032286757E+03  0.10032286757E+03  0.00000000000E+00 0.  1.
         21   -1    0    0  502  503 -0.00000000000E+00 -0.00000000000E+00 -0.76911261948E+03  0.76911261948E+03  0.00000000000E+00 0.  1.
         -6    2    1    2    0  503 -0.37366588199E+02  0.13453150230E+03 -0.58154113082E+03  0.62218251390E+03  0.17154010244E+03 0.  0.
        -24    2    3    3    0    0 -0.24797080465E+02  0.18240020524E+02 -0.14251220281E+03  0.16781461133E+03  0.83092853347E+02 0.  0.
          6    2    1    2  501    0  0.37366588199E+02 -0.13453150230E+03 -0.87248621096E+02  0.24725297315E+03  0.18446334005E+03 0.  0.
         24    2    5    5    0    0  0.55347780288E+02 -0.13848523200E+02 -0.51952726220E+00  0.97480711262E+02  0.79038350071E+02 0.  0.
          5    1    5    5  501    0 -0.17981192089E+02 -0.12068297910E+03 -0.86729093833E+02  0.14977226189E+03  0.47000000000E+01 0. -1.
        -13    1    6    6    0    0 -0.14040296359E+02 -0.21856388296E+02  0.78371201504E+01  0.27133965494E+02  0.00000000000E+00 0.  1.
         14    1    6    6    0    0  0.69388076647E+02  0.80078650958E+01 -0.83566474126E+01  0.70346745768E+02  0.00000000000E+00 0. -1.
         -5    1    3    3    0  503 -0.12569507734E+02  0.11629148178E+03 -0.43902892800E+03  0.45436790257E+03  0.47000000000E+01 0.  1.
         13    1    4    4    0    0  0.16758143448E+02  0.38335620354E+02 -0.77654345360E+02  0.88208007080E+02  0.00000000000E+00 0. -1.
        -14    1    4    4    0    0 -0.41555223913E+02 -0.20095599831E+02 -0.64857857455E+02  0.79606604253E+02  0.00000000000E+00 0.  1.
</event>
<event>
12    1  0.8500177E-002  0.2032803E+03  0.7818608E-02  0.1147139E+00
         21   -1    0    0  503  502  0.00000000000E+00  0.00000000000E+00  0.79394600346E+02  0.79394600346E+02  0.00000000000E+00 0.  1.
         21   -1    0    0  501  503 -0.00000000000E+00 -0.00000000000E+00 -0.25016390902E+04  0.25016390902E+04  0.00000000000E+00 0. -1.
          6    2    1    2  501    0 -0.57362190461E+02 -0.91177359065E+02 -0.23596529105E+04  0.23683353045E+04  0.17159989774E+03 0.  0.
         24    2    3    3    0    0  0.13938106991E+00 -0.51724091818E+02 -0.20021724556E+04  0.20040862734E+04  0.70653012872E+02 0.  0.
         -6    2    1    2    0  502  0.57362190461E+02  0.91177359065E+02 -0.62591579403E+02  0.21269838607E+03  0.17239247642E+03 0.  0.
        -24    2    5    5    0    0  0.10575506747E+03  0.66501501997E+02 -0.43660729245E+02  0.15498152931E+03  0.80662451508E+02 0.  0.
          5    1    3    3  501    0 -0.57501571531E+02 -0.39453267247E+02 -0.35748045491E+03  0.36424903111E+03  0.47000000000E+01 0. -1.
        -13    1    4    4    0    0 -0.54034139442E+01 -0.88001762862E+01 -0.15044938602E+04  0.15045293002E+04  0.00000000000E+00 0.  1.
         14    1    4    4    0    0  0.55427950141E+01 -0.42923915532E+02 -0.49767859537E+03  0.49955697312E+03  0.00000000000E+00 0. -1.
         -5    1    5    5    0  502 -0.48392877013E+02  0.24675857068E+02 -0.18930850158E+02  0.57716856769E+02  0.47000000000E+01 0.  1.
         13    1    6    6    0    0  0.37766767990E+02  0.98503666621E+00  0.18370741393E+02  0.42009322787E+02  0.00000000000E+00 0. -1.
        -14    1    6    6    0    0  0.67988299484E+02  0.65516465331E+02 -0.62031470638E+02  0.11297220652E+03  0.00000000000E+00 0.  1.
</event>
<event>
12    1  0.8500177E-002  0.2190699E+03  0.7818608E-02  0.1134664E+00
         21   -1    0    0  503  502  0.00000000000E+00  0.00000000000E+00  0.21087118420E+03  0.21087118420E+03  0.00000000000E+00 0. -1.
         21   -1    0    0  501  503 -0.00000000000E+00 -0.00000000000E+00 -0.24161757153E+03  0.24161757153E+03  0.00000000000E+00 0. -1.
          6    2    1    2  501    0  0.10166481800E+03 -0.88892091471E+02  0.40043640256E+02  0.22269958987E+03  0.17249369570E+03 0.  0.
         24    2    3    3    0    0  0.52714800517E+02  0.19470535897E+02  0.10726586873E+01  0.97482216369E+02  0.79647221859E+02 0.  0.
         -6    2    1    2    0  502 -0.10166481800E+03  0.88892091471E+02 -0.70790027585E+02  0.22978916586E+03  0.17191362249E+03 0.  0.
        -24    2    5    5    0    0 -0.11709117041E+03  0.15744128441E+02 -0.23769699802E+02  0.14134936674E+03  0.73867618615E+02 0.  0.
          5    1    3    3  501    0  0.48950017482E+02 -0.10836262737E+03  0.38970981569E+02  0.12521737350E+03  0.47000000000E+01 0. -1.
        -13    1    4    4    0    0 -0.45630261661E+01  0.32782071718E+01 -0.29872388933E+02  0.30396175263E+02  0.00000000000E+00 0.  1.
         14    1    4    4    0    0  0.57277826683E+02  0.16192328725E+02  0.30945047620E+02  0.67086041106E+02  0.00000000000E+00 0. -1.
         -5    1    5    5    0  502  0.15426352416E+02  0.73147963030E+02 -0.47020327782E+02  0.88439799124E+02  0.47000000000E+01 0.  1.
         13    1    6    6    0    0 -0.11720609291E+03  0.21074002421E+02 -0.21740744187E+01  0.11910545073E+03  0.00000000000E+00 0. -1.
        -14    1    6    6    0    0  0.11492249764E+00 -0.53298739798E+01 -0.21595625384E+02  0.22243916012E+02  0.00000000000E+00 0.  1.
</event>
<event>
12    1  0.8500177E-002  0.1915693E+03  0.7818608E-02  0.1157235E+00
         21   -1    0    0  501  502  0.00000000000E+00  0.00000000000E+00  0.56753670958E+02  0.56753670958E+02  0.00000000000E+00 0. -1.
         21   -1    0    0  502  503 -0.00000000000E+00 -0.00000000000E+00 -0.68972614715E+03  0.68972614715E+03  0.00000000000E+00 0. -1.
         -6    2    1    2    0  503  0.80993839491E+02 -0.17756660527E+02 -0.41331700842E+03  0.45555431452E+03  0.17269476831E+03 0.  0.
        -24    2    3    3    0    0  0.12187477335E+03 -0.18375460493E+02 -0.29028197346E+03  0.32581864675E+03  0.81872147413E+02 0.  0.
          6    2    1    2  501    0 -0.80993839491E+02  0.17756660527E+02 -0.21965546777E+03  0.29092550358E+03  0.17179587622E+03 0.  0.
         24    2    5    5    0    0 -0.83626761464E+02 -0.47002150141E+02 -0.16355859864E+03  0.20507921908E+03  0.78124474766E+02 0.  0.
          5    1    5    5  501    0  0.26329219730E+01  0.64758810668E+02 -0.56096869130E+02  0.85846284506E+02  0.47000000000E+01 0. -1.
        -13    1    6    6    0    0 -0.31902423937E+02 -0.27070040988E+02 -0.13769333823E+03  0.14390971880E+03  0.00000000000E+00 0.  1.
         14    1    6    6    0    0 -0.51724337527E+02 -0.19932109152E+02 -0.25865260407E+02  0.61169500274E+02  0.00000000000E+00 0. -1.
         -5    1    3    3    0  503 -0.40880933861E+02  0.61879996560E+00 -0.12303503496E+03  0.12973566778E+03  0.47000000000E+01 0.  1.
         11    1    4    4    0    0  0.48646710610E+02 -0.38019517741E+02 -0.72557498421E+02  0.95271069898E+02  0.00000000000E+00 0. -1.
        -12    1    4    4    0    0  0.73228062742E+02  0.19644057249E+02 -0.21772447504E+03  0.23054757685E+03  0.00000000000E+00 0.  1.
</event>
<event>
12    1  0.8500177E-002  0.2207338E+03  0.7818608E-02  0.1135036E+00
         21   -1    0    0  503  502  0.00000000000E+00  0.00000000000E+00  0.41261818063E+03  0.41261818063E+03  0.00000000000E+00 0.  1.
         21   -1    0    0  501  503 -0.00000000000E+00 -0.00000000000E+00 -0.11438491007E+03  0.11438491007E+03  0.00000000000E+00 0.  1.
          6    2    1    2  501    0  0.10523407583E+03  0.65598644940E+02  0.12091720304E+03  0.24386994278E+03  0.17168047667E+03 0.  0.
         24    2    3    3    0    0  0.99935973586E+02  0.10565038694E+03  0.11461691722E+03  0.20271176588E+03  0.82497389266E+02 0.  0.
         -6    2    1    2    0  502 -0.10523407583E+03 -0.65598644940E+02  0.17731606752E+03  0.28313314791E+03  0.18260886811E+03 0.  0.
        -24    2    5    5    0    0 -0.17224219202E+02  0.30133969554E+02  0.45769774899E+02  0.98100757655E+02  0.79524565449E+02 0.  0.
          5    1    3    3  501    0  0.52981022461E+01 -0.40051742000E+02  0.63002858153E+01  0.41158176903E+02  0.47000000000E+01 0. -1.
        -13    1    4    4    0    0  0.21401468904E+02  0.66461555751E+02  0.85175120643E+02  0.11013610871E+03  0.00000000000E+00 0.  1.
         14    1    4    4    0    0  0.78534504682E+02  0.39188831189E+02  0.29441796577E+02  0.92575657174E+02  0.00000000000E+00 0. -1.
         -5    1    5    5    0  502 -0.88009856629E+02 -0.95732614494E+02  0.13154629262E+03  0.18503239026E+03  0.47000000000E+01 0.  1.
         13    1    6    6    0    0 -0.38189698111E+02  0.46448322350E+02  0.33568017223E+02  0.68867346916E+02  0.00000000000E+00 0. -1.
        -14    1    6    6    0    0  0.20965478909E+02 -0.16314352796E+02  0.12201757675E+02  0.29233410739E+02  0.00000000000E+00 0.  1.
</event>
<event>
12    1  0.8500177E-002  0.1789565E+03  0.7818608E-02  0.1168999E+00
         21   -1    0    0  501  502  0.00000000000E+00  0.00000000000E+00  0.59613814160E+03  0.59613814160E+03  0.00000000000E+00 0.  1.
         21   -1    0    0  502  503 -0.00000000000E+00 -0.00000000000E+00 -0.12957655904E+03  0.12957655904E+03  0.00000000000E+00 0.  1.
         -6    2    1    2    0  503  0.23899678820E+02 -0.41975861952E+02 -0.44556427645E+02  0.18441989482E+03  0.17231440662E+03 0.  0.
        -24    2    3    3    0    0 -0.75004328722E+01  0.18087991104E+02  0.26035468070E+02  0.86445718639E+02  0.80072372001E+02 0.  0.
          6    2    1    2  501    0 -0.23899678820E+02  0.41975861952E+02  0.51111801020E+03  0.54129480581E+03  0.17153798067E+03 0.  0.
         24    2    5    5    0    0 -0.27439604569E+02 -0.37637686804E+02  0.24594665205E+03  0.26436740124E+03  0.85034344922E+02 0.  0.
          5    1    5    5  501    0  0.35399257485E+01  0.79613548756E+02  0.26517135816E+03  0.27692740458E+03  0.47000000000E+01 0. -1.
        -13    1    6    6    0    0  0.74134583086E+01  0.15595118150E+01  0.17974922685E+03  0.17990879911E+03  0.00000000000E+00 0.  1.
         14    1    6    6    0    0 -0.34853062878E+02 -0.39197198619E+02  0.66197425193E+02  0.84458602130E+02  0.00000000000E+00 0. -1.
         -5    1    3    3    0  503  0.31400111693E+02 -0.60063853055E+02 -0.70591895716E+02  0.97974176184E+02  0.47000000000E+01 0.  1.
         11    1    4    4    0    0 -0.34229377311E+02 -0.16429610696E+02  0.61090066467E+01  0.38456499332E+02  0.00000000000E+00 0. -1.
        -12    1    4    4    0    0  0.26728944438E+02  0.34517601799E+02  0.19926461423E+02  0.47989219306E+02  0.00000000000E+00 0.  1.
</event>
<event>
12    1  0.8500177E-002  0.2859634E+03  0.7818608E-02  0.1092564E+00
         21   -1    0    0  501  502  0.00000000000E+00  0.00000000000E+00  0.12750706403E+04  0.12750706403E+04  0.00000000000E+00 0.  1.
         21   -1    0    0  502  503 -0.00000000000E+00 -0.00000000000E+00 -0.64640203276E+02  0.64640203276E+02  0.00000000000E+00 0. -1.
         -6    2    1    2    0  503  0.22133154780E+03 -0.50225880717E+02  0.53847239528E+03  0.60969468739E+03  0.17396780798E+03 0.  0.
        -24    2    3    3    0    0  0.52966014651E+02  0.26790128697E+02  0.16159653998E+03  0.18977098150E+03  0.79852827033E+02 0.  0.
          6    2    1    2  501    0 -0.22133154780E+03  0.50225880717E+02  0.67195804176E+03  0.73001615619E+03  0.17287476761E+03 0.  0.
         24    2    5    5    0    0 -0.74117414837E+02  0.16693489031E+02  0.43766661323E+03  0.45124925407E+03  0.79383633133E+02 0.  0.
          5    1    5    5  501    0 -0.14721413296E+03  0.33532391686E+02  0.23429142853E+03  0.27876690212E+03  0.47000000000E+01 0. -1.
        -13    1    6    6    0    0 -0.29502481643E+02  0.45768483064E+02  0.26584448150E+03  0.27136403375E+03  0.00000000000E+00 0.  1.
         14    1    6    6    0    0 -0.44614933194E+02 -0.29074994033E+02  0.17182213173E+03  0.17988522033E+03  0.00000000000E+00 0. -1.
         -5    1    3    3    0  503  0.16836553315E+03 -0.77016009414E+02  0.37687585530E+03  0.41992370589E+03  0.47000000000E+01 0.  1.
         11    1    4    4    0    0 -0.13366441420E+02  0.27973621064E+02  0.34377781144E+02  0.46292732346E+02  0.00000000000E+00 0. -1.
        -12    1    4    4    0    0  0.66332456072E+02 -0.11834923671E+01  0.12721875883E+03  0.14347824916E+03  0.00000000000E+00 0.  1.
</event>
<event>
12    1  0.8500177E-002  0.1944901E+03  0.7818608E-02  0.1154697E+00
         21   -1    0    0  503  502  0.00000000000E+00  0.00000000000E+00  0.34197070329E+03  0.34197070329E+03  0.00000000000E+00 0. -1.
         21   -1    0    0  501  503 -0.00000000000E+00 -0.00000000000E+00 -0.12499244826E+03  0.12499244826E+03  0.00000000000E+00 0.  1.
          6    2    1    2  501    0  0.80194714170E+02 -0.41974288714E+02  0.27965926275E+02  0.19649041088E+03  0.17214341533E+03 0.  0.
         24    2    3    3    0    0  0.11377570536E+03 -0.57633659876E+02  0.45041777534E+02  0.15542249675E+03  0.76556129029E+02 0.  0.
         -6    2    1    2    0  502 -0.80194714170E+02  0.41974288714E+02  0.18901232876E+03  0.27047274067E+03  0.17098774790E+03 0.  0.
        -24    2    5    5    0    0 -0.96354195565E+02  0.47009948953E+02  0.20398017861E+03  0.24739432560E+03  0.90010959176E+02 0.  0.
          5    1    3    3  501    0 -0.33580991192E+02  0.15659371162E+02 -0.17075851259E+02  0.41067914128E+02  0.47000000000E+01 0. -1.
        -13    1    4    4    0    0  0.47225984741E+02 -0.29553823450E+02 -0.19027607983E+02  0.58870807543E+02  0.00000000000E+00 0.  1.
         14    1    4    4    0    0  0.66549720621E+02 -0.28079836425E+02  0.64069385517E+02  0.96551689208E+02  0.00000000000E+00 0. -1.
         -5    1    5    5    0  502  0.16159481395E+02 -0.50356602390E+01 -0.14967849851E+02  0.23078415071E+02  0.47000000000E+01 0.  1.
         13    1    6    6    0    0 -0.49787823736E+02  0.39484608178E+02  0.36248595722E+02  0.73156150576E+02  0.00000000000E+00 0. -1.
        -14    1    6    6    0    0 -0.46566371829E+02  0.75253407755E+01  0.16773158288E+03  0.17423817503E+03  0.00000000000E+00 0.  1.
</event>
<event>
12    1  0.8500177E-002  0.1736099E+03  0.7818608E-02  0.1174444E+00
         21   -1    0    0  503  502  0.00000000000E+00  0.00000000000E+00  0.42900767909E+02  0.42900767909E+02  0.00000000000E+00 0.  1.
         21   -1    0    0  501  503 -0.00000000000E+00 -0.00000000000E+00 -0.72806374042E+03  0.72806374042E+03  0.00000000000E+00 0.  1.
          6    2    1    2  501    0 -0.17311676215E+02  0.23775942072E+01 -0.26263911636E+03  0.31416389693E+03  0.17150598125E+03 0.  0.
         24    2    3    3    0    0  0.48980151260E+02 -0.19905980781E+02 -0.10654584348E+03  0.14305468051E+03  0.79481580040E+02 0.  0.
         -6    2    1    2    0  502  0.17311676215E+02 -0.23775942072E+01 -0.42252385615E+03  0.45680061140E+03  0.17272823299E+03 0.  0.
        -24    2    5    5    0    0 -0.36998716103E+02 -0.25124989813E+02 -0.35188950352E+03  0.36472257660E+03  0.84830213302E+02 0.  0.
          5    1    3    3  501    0 -0.66291827476E+02  0.22283574988E+02 -0.15609327288E+03  0.17110921641E+03  0.47000000000E+01 0. -1.
        -13    1    4    4    0    0 -0.11650972699E+02  0.28620709473E+00 -0.66775499748E+02  0.67784913114E+02  0.00000000000E+00 0.  1.
         14    1    4    4    0    0  0.60631123959E+02 -0.20192187876E+02 -0.39770343733E+02  0.75269767400E+02  0.00000000000E+00 0. -1.
         -5    1    5    5    0  502  0.54310392318E+02  0.22747395605E+02 -0.70634352629E+02  0.92078034796E+02  0.47000000000E+01 0.  1.
         13    1    6    6    0    0 -0.52007354144E+02 -0.21902595741E+01 -0.11475170430E+03  0.12600601479E+03  0.00000000000E+00 0. -1.
        -14    1    6    6    0    0  0.15008638041E+02 -0.22934730238E+02 -0.23713779922E+03  0.23871656181E+03  0.00000000000E+00 0.  1.
</event>
<event>
12    1  0.8500177E-002  0.2020441E+03  0.7818608E-02  0.1148805E+00
         21   -1    0    0  501  502  0.00000000000E+00  0.00000000000E+00  0.15320598513E+04  0.15320598513E+04  0.00000000000E+00 0. -1.
         21   -1    0    0  502  503 -0.00000000000E+00 -0.00000000000E+00 -0.59888428333E+02  0.59888428333E+02  0.00000000000E+00 0. -1.
         -6    2    1    2    0  503 -0.10418971794E+03  0.16825825140E+01  0.13576213942E+03  0.24035233862E+03  0.16875888057E+03 0.  0.
        -24    2    3    3    0    0 -0.61797492941E+02  0.34590826788E+02  0.15053466254E+03  0.18449206006E+03  0.79757007015E+02 0.  0.
          6    2    1    2  501    0  0.10418971794E+03 -0.16825825140E+01  0.13364092836E+04  0.13515959411E+04  0.17309964243E+03 0.  0.
         24    2    5    5    0    0  0.92642662074E+02 -0.11360691171E+02  0.47358372136E+03  0.48862604522E+03  0.75908779395E+02 0.  0.
          5    1    5    5  501    0  0.11547055863E+02  0.96781086571E+01  0.86282556223E+03  0.86296989583E+03  0.47000000000E+01 0. -1.
        -11    1    6    6    0    0  0.18480504892E+01 -0.26103579588E+02  0.71040597679E+02  0.75707190389E+02  0.00000000000E+00 0.  1.
         12    1    6    6    0    0  0.90794611585E+02  0.14742888417E+02  0.40254312368E+03  0.41291885483E+03  0.00000000000E+00 0. -1.
         -5    1    3    3    0  503 -0.42392224996E+02 -0.32908244274E+02 -0.14772523119E+02  0.55860278558E+02  0.47000000000E+01 0.  1.
         13    1    4    4    0    0 -0.15327710813E+02  0.20305106478E+02  0.12871296948E+03  0.13120314242E+03  0.00000000000E+00 0. -1.
        -14    1    4    4    0    0 -0.46469782128E+02  0.14285720310E+02  0.21821693063E+02  0.53288917646E+02  0.00000000000E+00 0.  1.
</event>
<event>
12    1  0.8500177E-002  0.2139057E+03  0.7818608E-02  0.1138608E+00
         21   -1    0    0  501  502  0.00000000000E+00  0.00000000000E+00  0.21078015185E+03  0.21078015185E+03  0.00000000000E+00 0.  1.
         21   -1    0    0  502  503 -0.00000000000E+00 -0.00000000000E+00 -0.26496861654E+03  0.26496861654E+03  0.00000000000E+00 0.  1.
         -6    2    1    2    0  503  0.76975384084E+02 -0.10237793924E+03 -0.12879006971E+03  0.24968486412E+03  0.17131607372E+03 0.  0.
        -24    2    3    3    0    0  0.32707916596E+01 -0.17457360972E+02 -0.10948904891E+03  0.13549865234E+03  0.77824002871E+02 0.  0.
          6    2    1    2  501    0 -0.76975384084E+02  0.10237793924E+03  0.74601605029E+02  0.22606390427E+03  0.17068402721E+03 0.  0.
         24    2    5    5    0    0 -0.61528002044E+01 -0.11678985166E+02  0.31276958123E+02  0.84911733120E+02  0.77829934262E+02 0.  0.
          5    1    5    5  501    0 -0.70822583879E+02  0.11405692440E+03  0.43324646907E+02  0.14115217115E+03  0.47000000000E+01 0. -1.
        -13    1    6    6    0    0 -0.27785098337E+01  0.29004238839E+02 -0.58642967983E+01  0.29721304892E+02  0.00000000000E+00 0.  1.
         14    1    6    6    0    0 -0.33742903707E+01 -0.40683224005E+02  0.37141254921E+02  0.55190428229E+02  0.00000000000E+00 0. -1.
         -5    1    3    3    0  503  0.73704592424E+02 -0.84920578265E+02 -0.19301020799E+02  0.11418621178E+03  0.47000000000E+01 0.  1.
         11    1    4    4    0    0  0.88621748370E+01  0.30195020446E+02 -0.37040062277E+02  0.48602917774E+02  0.00000000000E+00 0. -1.
        -12    1    4    4    0    0 -0.55913831774E+01 -0.47652381418E+02 -0.72448986636E+02  0.86895734563E+02  0.00000000000E+00 0.  1.
</event>
<event>
12    1  0.8500177E-002  0.1969879E+03  0.7818608E-02  0.1152415E+00
         21   -1    0    0  503  502  0.00000000000E+00  0.00000000000E+00  0.45351771944E+03  0.45351771944E+03  0.00000000000E+00 0. -1.
         21   -1    0    0  501  503 -0.00000000000E+00 -0.00000000000E+00 -0.29143731895E+03  0.29143731895E+03  0.00000000000E+00 0. -1.
          6    2    1    2  501    0  0.20497427526E+02 -0.93546020170E+02 -0.23221899243E+03  0.30418726670E+03  0.17156115629E+03 0.  0.
         24    2    3    3    0    0 -0.19825232171E+02 -0.11777863337E+03 -0.20351688863E+03  0.24887870325E+03  0.79098916964E+02 0.  0.
         -6    2    1    2    0  502 -0.20497427526E+02  0.93546020170E+02  0.39429939292E+03  0.44076777169E+03  0.17214300707E+03 0.  0.
        -24    2    5    5    0    0 -0.10024819811E+02  0.13147953617E+03  0.33049766713E+03  0.36565866864E+03  0.84203257231E+02 0.  0.
          5    1    3    3  501    0  0.40322659697E+02  0.24232613202E+02 -0.28702103802E+02  0.55308563444E+02  0.47000000000E+01 0. -1.
        -11    1    4    4    0    0  0.26586469335E+02 -0.53065849560E+02 -0.57947040986E+02  0.82949890297E+02  0.00000000000E+00 0.  1.
         12    1    4    4    0    0 -0.46411701506E+02 -0.64712783812E+02 -0.14556984765E+03  0.16592881296E+03  0.00000000000E+00 0. -1.
         -5    1    5    5    0  502 -0.10472607715E+02 -0.37933515999E+02  0.63801725791E+02  0.75109103059E+02  0.47000000000E+01 0.  1.
         11    1    6    6    0    0 -0.44319837840E+02  0.96780494429E+02  0.24685988139E+03  0.26883175625E+03  0.00000000000E+00 0. -1.
        -12    1    6    6    0    0  0.34295018030E+02  0.34699041740E+02  0.83637785741E+02  0.96826912390E+02  0.00000000000E+00 0.  1.
</event>
<event>
12    1  0.8500177E-002  0.2048434E+03  0.7818608E-02  0.1146569E+00
         21   -1    0    0  501  502  0.00000000000E+00  0.00000000000E+00  0.52406120865E+03  0.52406120865E+03  0.00000000000E+00 0.  1.
         21   -1    0    0  502  503 -0.00000000000E+00 -0.00000000000E+00 -0.10780594419E+03  0.10780594419E+03  0.00000000000E+00 0.  1.
         -6    2    1    2    0  503  0.21117426115E+02  0.10675587157E+03  0.44848890696E+02  0.20969559814E+03  0.17354555334E+03 0.  0.
        -24    2    3    3    0    0  0.33275574017E+02 -0.80910572136E+01  0.30016868839E+02  0.93163557552E+02  0.81275500662E+02 0.  0.
          6    2    1    2  501    0 -0.21117426115E+02 -0.10675587157E+03  0.37140637376E+03  0.42217155469E+03  0.16865160930E+03 0.  0.
         24    2    5    5    0    0 -0.27395862257E+02 -0.12524156840E+03  0.37263071349E+03  0.40205368316E+03  0.79734131864E+02 0.  0.
          5    1    5    5  501    0  0.62784361416E+01  0.18485696822E+02 -0.12243397253E+01  0.20117871536E+02  0.47000000000E+01 0. -1.
        -11    1    6    6    0    0 -0.14302600725E+02 -0.11974147606E+03  0.23929656229E+03  0.26796535262E+03  0.00000000000E+00 0.  1.
         12    1    6    6    0    0 -0.13093261532E+02 -0.55000923342E+01  0.13333415119E+03  0.13408833054E+03  0.00000000000E+00 0. -1.
         -5    1    3    3    0  503 -0.12158147902E+02  0.11484692879E+03  0.14832021857E+02  0.11653204059E+03  0.47000000000E+01 0.  1.
         11    1    4    4    0    0 -0.24774341463E+02 -0.14074653087E+02  0.17628484673E+02  0.33505631263E+02  0.00000000000E+00 0. -1.
        -12    1    4    4    0    0  0.58049915481E+02  0.59835958732E+01  0.12388384166E+02  0.59657926289E+02  0.00000000000E+00 0.  1.
</event>
<event>
12    1  0.8500177E-002  0.2041970E+03  0.7818608E-02  0.1147080E+00
         21   -1    0    0  503  502  0.00000000000E+00  0.00000000000E+00  0.85606759086E+02  0.85606759086E+02  0.00000000000E+00 0.  1.
         21   -1    0    0  501  503 -0.00000000000E+00 -0.00000000000E+00 -0.67658131553E+03  0.67658131553E+03  0.00000000000E+00 0. -1.
          6    2    1    2  501    0  0.10484000960E+03 -0.32822810643E+02 -0.50426729631E+03  0.54404219611E+03  0.17212681517E+03 0.  0.
         24    2    3    3    0    0 -0.14520421040E+02 -0.14348891352E+02 -0.21479719448E+03  0.23034930815E+03  0.80661240383E+02 0.  0.
         -6    2    1    2    0  502 -0.10484000960E+03  0.32822810643E+02 -0.86707260127E+02  0.21814587851E+03  0.16733412934E+03 0.  0.
        -24    2    5    5    0    0 -0.53224682830E+02  0.88251714569E+00 -0.11581314728E+03  0.15066575571E+03  0.80335790046E+02 0.  0.
          5    1    3    3  501    0  0.11936043063E+03 -0.18473919291E+02 -0.28947010183E+03  0.31369288795E+03  0.47000000000E+01 0. -1.
        -13    1    4    4    0    0 -0.27735750691E+02  0.26401458934E+02 -0.76168500937E+02  0.85252269385E+02  0.00000000000E+00 0.  1.
         14    1    4    4    0    0  0.13215329651E+02 -0.40750350285E+02 -0.13862869354E+03  0.14509703877E+03  0.00000000000E+00 0. -1.
         -5    1    5    5    0  502 -0.51615326765E+02  0.31940293497E+02  0.29105887152E+02  0.67480122797E+02  0.47000000000E+01 0.  1.
         11    1    6    6    0    0  0.39891844900E+01  0.10080092220E+02  0.83248810637E+01  0.13668412372E+02  0.00000000000E+00 0. -1.
        -12    1    6    6    0    0 -0.57213867320E+02 -0.91975750744E+01 -0.12413802834E+03  0.13699734334E+03  0.00000000000E+00 0.  1.
</event>
<event>
12    1  0.8500177E-002  0.1751905E+03  0.7818608E-02  0.1172642E+00
         21   -1    0    0  501  502  0.00000000000E+00  0.00000000000E+00  0.62849668375E+02  0.62849668375E+02  0.00000000000E+00 0.  1.
         21   -1    0    0  502  503 -0.00000000000E+00 -0.00000000000E+00 -0.48822121170E+03  0.48822121170E+03  0.00000000000E+00 0.  1.
         -6    2    1    2    0  503  0.14912260558E+02  0.28570889522E+02 -0.22544376164E+03  0.28551109485E+03  0.17220053535E+03 0.  0.
        -24    2    3    3    0    0 -0.70087684107E+01  0.46895082641E+02 -0.23692782212E+03  0.25436175762E+03  0.79478545769E+02 0.  0.
          6    2    1    2  501    0 -0.14912260558E+02 -0.28570889522E+02 -0.19992778168E+03  0.26555978523E+03  0.17179118254E+03 0.  0.
         24    2    5    5    0    0  0.30748676425E+02 -0.59827460516E+02 -0.16815914269E+03  0.20158142311E+03  0.88502919374E+02 0.  0.
          5    1    5    5  501    0 -0.45660936983E+02  0.31256570994E+02 -0.31768638992E+02  0.63978362122E+02  0.47000000000E+01 0. -1.
        -11    1    6    6    0    0 -0.11299485145E+02  0.18836225126E+02 -0.32680342147E+02  0.39376217497E+02  0.00000000000E+00 0.  1.
         12    1    6    6    0    0  0.42048161569E+02 -0.78663685642E+02 -0.13547880054E+03  0.16220520561E+03  0.00000000000E+00 0. -1.
         -5    1    3    3    0  503  0.21921028969E+02 -0.18324193119E+02  0.11484060474E+02  0.31149337224E+02  0.47000000000E+01 0.  1.
         11    1    4    4    0    0 -0.33285914010E+01  0.65545296125E+02 -0.12860148115E+03  0.14438007591E+03  0.00000000000E+00 0. -1.
        -12    1    4    4    0    0 -0.36801770097E+01 -0.18650213484E+02 -0.10832634097E+03  0.10998168172E+03  0.00000000000E+00 0.  1.
</event>
<event>
12    1  0.8500177E-002  0.2648046E+03  0.7818608E-02  0.1104347E+00
         21   -1    0    0  503  502  0.00000000000E+00  0.00000000000E+00  0.88465681082E+03  0.88465681082E+03  0.00000000000E+00 0.  1.
         21   -1    0    0  501  503 -0.00000000000E+00 -0.00000000000E+00 -0.79940636101E+02  0.79940636101E+02  0.00000000000E+00 0. -1.
          6    2    1    2  501    0 -0.19580361181E+03 -0.44645473469E+02  0.45067443679E+03  0.52271302028E+03  0.17259542549E+03 0.  0.
         24    2    3    3    0    0 -0.47932127125E+02  0.19777729347E+02  0.14228678880E+03  0.17465935132E+03  0.87015581069E+02 0.  0.
         -6    2    1    2    0  502  0.19580361181E+03  0.44645473469E+02  0.35404173794E+03  0.44188442664E+03  0.17200006281E+03 0.  0.
        -24    2    5    5    0    0  0.18193342802E+03  0.50460056682E+02  0.19814300196E+03  0.28519142343E+03  0.80171748279E+02 0.  0.
          5    1    3    3  501    0 -0.14787148469E+03 -0.64423202816E+02  0.30838764799E+03  0.34805366896E+03  0.47000000000E+01 0. -1.
        -13    1    4    4    0    0  0.19676192840E+01 -0.21758882453E+02  0.86001447228E+02  0.88733135956E+02  0.00000000000E+00 0.  1.
         14    1    4    4    0    0 -0.49899746409E+02  0.41536611800E+02  0.56285341573E+02  0.85926215368E+02  0.00000000000E+00 0. -1.
         -5    1    5    5    0  502  0.13870183795E+02 -0.58145832131E+01  0.15589873598E+03  0.15669300321E+03  0.47000000000E+01 0.  1.
         11    1    6    6    0    0  0.93542661722E+02  0.66793142005E+02  0.11867355938E+03  0.16521188540E+03  0.00000000000E+00 0. -1.
        -12    1    6    6    0    0  0.88390766295E+02 -0.16333085323E+02  0.79469442582E+02  0.11997953803E+03  0.00000000000E+00 0.  1.
</event>
<event>
12    1  0.8500177E-002  0.1748882E+03  0.7818608E-02  0.1172985E+00
         21   -1    0    0  503  502  0.00000000000E+00  0.00000000000E+00  0.16410271332E+04  0.16410271332E+04  0.00000000000E+00 0.  1.
         21   -1    0    0  501  503 -0.00000000000E+00 -0.00000000000E+00 -0.19900675710E+02  0.19900675710E+02  0.00000000000E+00 0.  1.
          6    2    1    2  501    0  0.18686515901E+02 -0.23501205042E+02  0.59530977910E+03  0.62030984664E+03  0.17172384874E+03 0.  0.
         24    2    3    3    0    0 -0.27830428994E+02  0.76400077189E+01  0.51741313485E+03  0.52427038350E+03  0.79436643936E+02 0.  0.
         -6    2    1    2    0  502 -0.18686515901E+02  0.23501205042E+02  0.10258166784E+04  0.10406179623E+04  0.17229159361E+03 0.  0.
        -24    2    5    5    0    0 -0.50818642738E+02 -0.66081475218E+01  0.31647891623E+03  0.32989917294E+03  0.77771188913E+02 0.  0.
          5    1    3    3  501    0  0.46516944895E+02 -0.31141212761E+02  0.77896644250E+02  0.96039463139E+02  0.47000000000E+01 0. -1.
        -13    1    4    4    0    0  0.26711429141E+02 -0.43290528157E+01  0.12431406365E+03  0.12722510588E+03  0.00000000000E+00 0.  1.
         14    1    4    4    0    0 -0.54541858134E+02  0.11969060535E+02  0.39309907120E+03  0.39704527762E+03  0.00000000000E+00 0. -1.
         -5    1    5    5    0  502  0.32132126837E+02  0.30109352564E+02  0.70933776213E+03  0.71071878931E+03  0.47000000000E+01 0.  1.
         13    1    6    6    0    0  0.35264945314E+01 -0.21680362911E+01 -0.34304387272E+01  0.53762863485E+01  0.00000000000E+00 0. -1.
        -14    1    6    6    0    0 -0.54345137269E+02 -0.44401112307E+01  0.31990935496E+03  0.32452288659E+03  0.00000000000E+00 0.  1.
</event>
<event>
12    1  0.8500177E-002  0.1870619E+03  0.7818608E-02  0.1161332E+00
         21   -1    0    0  503  502  0.00000000000E+00  0.00000000000E+00  0.11015458962E+03  0.11015458962E+03  0.00000000000E+00 0.  1.
         21   -1    0    0  501  503 -0.00000000000E+00 -0.00000000000E+00 -0.69699654632E+03  0.69699654632E+03  0.00000000000E+00 0. -1.
          6    2    1    2  501    0 -0.60037195617E+02 -0.40847008715E+02 -0.59200626110E+03  0.62085712932E+03  0.17239262997E+03 0.  0.
         24    2    3    3    0    0 -0.96949551076E+02 -0.53968706459E+02 -0.53951454195E+03  0.55519000271E+03  0.69628739803E+02 0.  0.
         -6    2    1    2    0  502  0.60037195617E+02  0.40847008715E+02  0.51643043975E+01  0.18629400663E+03  0.17148132227E+03 0.  0.
        -24    2    5    5    0    0  0.18002786099E+02 -0.32403829849E+02  0.38039879097E+02  0.95544514369E+02  0.79420484311E+02 0.  0.
          5    1    3    3  501    0  0.36912355460E+02  0.13121697745E+02 -0.52491719147E+02  0.65667126603E+02  0.47000000000E+01 0. -1.
        -13    1    4    4    0    0 -0.10019334875E+03 -0.39864363846E+02 -0.51900226265E+03  0.53008605271E+03  0.00000000000E+00 0.  1.
         14    1    4    4    0    0  0.32437976693E+01 -0.14104342613E+02 -0.20512279298E+02  0.25103950005E+02  0.00000000000E+00 0. -1.
         -5    1    5    5    0  502  0.42034409518E+02  0.73250838563E+02 -0.32875574700E+02  0.90749492261E+02  0.47000000000E+01 0.  1.
         13    1    6    6    0    0  0.11501393042E+01  0.85329509558E+01 -0.20450729138E+02  0.22189330651E+02  0.00000000000E+00 0. -1.
        -14    1    6    6    0    0  0.16852646794E+02 -0.40936780805E+02  0.58490608236E+02  0.73355183719E+02  0.00000000000E+00 0.  1.
</event>
<event>
12    1  0.8500177E-002  0.2008513E+03  0.7818608E-02  0.1149565E+00
         21   -1    0    0  501  502  0.00000000000E+00  0.00000000000E+00  0.32495764883E+03  0.32495764883E+03  0.00000000000E+00 0.  1.
         21   -1    0    0  502  503 -0.00000000000E+00 -0.00000000000E+00 -0.13146955984E+03  0.13146955984E+03  0.00000000000E+00 0.  1.
         -6    2    1    2    0  503 -0.52010164667E+02 -0.84947768564E+02  0.36760990418E+02  0.20166330445E+03  0.17145126810E+03 0.  0.
        -24    2    3    3    0    0 -0.64304857250E+02 -0.79766534588E+02 -0.29788463890E+02  0.13362710439E+03  0.80442748208E+02 0.  0.
          6    2    1    2  501    0  0.52010164667E+02  0.84947768564E+02  0.15672709857E+03  0.25476390421E+03  0.17441353975E+03 0.  0.
         24    2    5    5    0    0  0.99874478321E+02  0.42501266517E+02  0.91146954574E+02  0.16302763361E+03  0.80554161382E+02 0.  0.
          5    1    5    5  501    0 -0.47864313654E+02  0.42446502047E+02  0.65580143997E+02  0.91736270603E+02  0.47000000000E+01 0. -1.
        -11    1    6    6    0    0  0.82398362253E+02  0.84167170931E+01  0.93178883114E+02  0.12467010663E+03  0.00000000000E+00 0.  1.
         12    1    6    6    0    0  0.17476116067E+02  0.34084549424E+02 -0.20319285400E+01  0.38357526977E+02  0.00000000000E+00 0. -1.
         -5    1    3    3    0  503  0.12294692583E+02 -0.51812339757E+01  0.66549454308E+02  0.68036200069E+02  0.47000000000E+01 0.  1.
         11    1    4    4    0    0  0.15332129700E+02 -0.71486733359E+01  0.89043163269E+01  0.19117127945E+02  0.00000000000E+00 0. -1.
        -12    1    4    4    0    0 -0.79636986951E+02 -0.72617861253E+02 -0.38692780217E+02  0.11450997644E+03  0.00000000000E+00 0.  1.
</event>
<event>
12    1  0.8500177E-002  0.1834132E+03  0.7818608E-02  0.1165023E+00
         21   -1    0    0  503  502  0.00000000000E+00  0.00000000000E+00  0.26672556187E+03  0.26672556187E+03  0.00000000000E+00 0.  1.
         21   -1    0    0  501  503 -0.00000000000E+00 -0.00000000000E+00 -0.12475286343E+03  0.12475286343E+03  0.00000000000E+00 0.  1.
          6    2    1    2  501    0  0.41339553560E+02 -0.47367230699E+02  0.74029993742E+02  0.19778988361E+03  0.17230143601E+03 0.  0.
         24    2    3    3    0    0  0.43931432272E+02  0.22235491023E+02 -0.38162582552E+01  0.93227052467E+02  0.79071686982E+02 0.  0.
         -6    2    1    2    0  502 -0.41339553560E+02  0.47367230699E+02  0.67942704706E+02  0.19368854169E+03  0.17013649469E+03 0.  0.
        -24    2    5    5    0    0  0.31606650776E+02  0.43963881774E+02  0.54656480294E+01  0.97468979637E+02  0.80861148948E+02 0.  0.
          5    1    3    3  501    0 -0.25918787120E+01 -0.69602721722E+02  0.77846251997E+02  0.10456283114E+03  0.47000000000E+01 0. -1.
        -11    1    4    4    0    0  0.40221098456E+02  0.26383277551E+01 -0.36866694071E+02  0.54624634242E+02  0.00000000000E+00 0.  1.
         12    1    4    4    0    0  0.37103338158E+01  0.19597163268E+02  0.33050435816E+02  0.38602418225E+02  0.00000000000E+00 0. -1.
         -5    1    5    5    0  502 -0.72946204335E+02  0.34033489245E+01  0.62477056676E+02  0.96219562053E+02  0.47000000000E+01 0.  1.
         11    1    6    6    0    0  0.22007935746E+02  0.60429267455E+02  0.26075695101E+02  0.69397316057E+02  0.00000000000E+00 0. -1.
        -12    1    6    6    0    0  0.95987150295E+01 -0.16465385681E+02 -0.20610047072E+02  0.28071663580E+02  0.00000000000E+00 0.  1.
</event>
<event>
12    1  0.8500177E-002  0.1929374E+03  0.7818608E-02  0.1156046E+00
         21   -1    0    0  503  502  0.00000000000E+00  0.00000000000E+00  0.45506227855E+03  0.45506227855E+03  0.00000000000E+00 0. -1.
         21   -1    0    0  501  503 -0.00000000000E+00 -0.00000000000E+00 -0.90195520704E+02  0.90195520704E+02  0.00000000000E+00 0. -1.
          6    2    1    2  501    0  0.58277782580E+02  0.61516255282E+02  0.97720440340E+02  0.21627322821E+03  0.17333284505E+03 0.  0.
         24    2    3    3    0    0  0.83347588401E+01 -0.21227759911E+02  0.23874566962E+02  0.94551493559E+02  0.88599683921E+02 0.  0.
         -6    2    1    2    0  502 -0.58277782580E+02 -0.61516255282E+02  0.26714631751E+03  0.32898457105E+03  0.17228796657E+03 0.  0.
        -24    2    5    5    0    0 -0.50789496738E+02 -0.18225842289E+02  0.26901091009E+03  0.28476126286E+03  0.76225670012E+02 0.  0.
          5    1    3    3  501    0  0.49943023740E+02  0.82744015193E+02  0.73845873378E+02  0.12172173465E+03  0.47000000000E+01 0. -1.
        -13    1    4    4    0    0 -0.52090215751E+01 -0.30438944021E+02  0.52882312995E+02  0.61238894883E+02  0.00000000000E+00 0.  1.
         14    1    4    4    0    0  0.13543780415E+02  0.92111841100E+01 -0.29007746033E+02  0.33312598676E+02  0.00000000000E+00 0. -1.
         -5    1    5    5    0  502 -0.74882858424E+01 -0.43290412993E+02 -0.18645925852E+01  0.44223308193E+02  0.47000000000E+01 0.  1.
         11    1    6    6    0    0 -0.52579353848E+02 -0.13766627390E+02  0.86313203206E+02  0.10200038004E+03  0.00000000000E+00 0. -1.
        -12    1    6    6    0    0  0.17898571099E+01 -0.44592148992E+01  0.18269770689E+03  0.18276088282E+03  0.00000000000E+00 0.  1.
</event>
<event>
12    1  0.8500177E-002  0.1983107E+03  0.7818608E-02  0.1151172E+00
         21   -1    0    0  501  502  0.00000000000E+00  0.00000000000E+00  0.30688579879E+03  0.30688579879E+03  0.00000000000E+00 0. -1.
         21   -1    0    0  502  503 -0.00000000000E+00 -0.00000000000E+00 -0.13162018399E+03  0.13162018399E+03  0.00000000000E+00 0.  1.
         -6    2    1    2    0  503  0.56886788261E+02  0.80919735915E+02  0.12323844942E+03  0.23348410867E+03  0.17188078207E+03 0.  0.
        -24    2    3    3    0    0  0.50282817620E+02  0.69143753678E+02  0.15722846926E+03  0.19661003058E+03  0.81397126241E+02 0.  0.
          6    2    1    2  501    0 -0.56886788261E+02 -0.80919735915E+02  0.52027165384E+02  0.20502187412E+03  0.17188086744E+03 0.  0.
         24    2    5    5    0    0  0.12921109115E+02  0.35560597820E+01  0.41052291087E+02  0.94786487514E+02  0.84377645083E+02 0.  0.
          5    1    5    5  501    0 -0.69807897376E+02 -0.84475795697E+02  0.10974874296E+02  0.11023538661E+03  0.47000000000E+01 0. -1.
        -13    1    6    6    0    0  0.20796174123E+02 -0.35208994989E+02  0.36780492465E+02  0.54999625565E+02  0.00000000000E+00 0.  1.
         14    1    6    6    0    0 -0.78750650083E+01  0.38765054771E+02  0.42717986216E+01  0.39786861949E+02  0.00000000000E+00 0. -1.
         -5    1    3    3    0  503  0.66039706417E+01  0.11775982237E+02 -0.33990019839E+02  0.36874078084E+02  0.47000000000E+01 0.  1.
         13    1    4    4    0    0  0.17023565177E+01  0.64693144184E+02  0.62044585199E+02  0.89652838631E+02  0.00000000000E+00 0. -1.
        -14    1    4    4    0    0  0.48580461102E+02  0.44506094945E+01  0.95183884058E+02  0.10695719195E+03  0.00000000000E+00 0.  1.
</event>
<event>
12    1  0.8500177E-002  0.1981058E+03  0.7818608E-02  0.1151468E+00
         21   -1    0    0  501  502  0.00000000000E+00  0.00000000000E+00  0.25655122282E+02  0.25655122282E+02  0.00000000000E+00 0.  1.
         21   -1    0    0  502  503 -0.00000000000E+00 -0.00000000000E+00 -0.16637835715E+04  0.16637835715E+04  0.00000000000E+00 0.  1.
         -6    2    1    2    0  503 -0.55757105073E+02 -0.81350602041E+02 -0.57649779155E+03  0.60958642942E+03  0.17181133854E+03 0.  0.
        -24    2    3    3    0    0  0.27722600120E+02 -0.70476866082E+01 -0.29664192028E+03  0.30820430801E+03  0.78582785418E+02 0.  0.
          6    2    1    2  501    0  0.55757105073E+02  0.81350602041E+02 -0.10616306577E+04  0.10798522643E+04  0.17115631549E+03 0.  0.
         24    2    5    5    0    0  0.88534490443E+02  0.18712223752E+02 -0.53074201083E+03  0.54425655045E+03  0.79621651121E+02 0.  0.
          5    1    5    5  501    0 -0.32777385371E+02  0.62638378289E+02 -0.53088864682E+03  0.53559571390E+03  0.47000000000E+01 0. -1.
        -11    1    6    6    0    0  0.12451851331E+02  0.39699307171E+02 -0.18166839372E+03  0.18637191008E+03  0.00000000000E+00 0.  1.
         12    1    6    6    0    0  0.76082639112E+02 -0.20987083418E+02 -0.34907361711E+03  0.35788464037E+03  0.00000000000E+00 0. -1.
         -5    1    3    3    0  503 -0.83479705192E+02 -0.74302915433E+02 -0.27985587127E+03  0.30138212141E+03  0.47000000000E+01 0.  1.
         13    1    4    4    0    0 -0.21345160254E+02  0.13064821022E+02 -0.15407425176E+03  0.15609349913E+03  0.00000000000E+00 0. -1.
        -14    1    4    4    0    0  0.49067760373E+02 -0.20112507630E+02 -0.14256766851E+03  0.15211080888E+03  0.00000000000E+00 0.  1.
</event>
<event>
12    1  0.8500177E-002  0.1895082E+03  0.7818608E-02  0.1159191E+00
         21   -1    0    0  503  502  0.00000000000E+00  0.00000000000E+00  0.12623745751E+03  0.12623745751E+03  0.00000000000E+00 0. -1.
         21   -1    0    0  501  503 -0.00000000000E+00 -0.00000000000E+00 -0.42769065908E+03  0.42769065908E+03  0.00000000000E+00 0. -1.
          6    2    1    2  501    0  0.42917925932E+02 -0.74516688277E+02 -0.31236945004E+03  0.36536014012E+03  0.16887472716E+03 0.  0.
         24    2    3    3    0    0  0.15229408399E+02  0.17991884330E+02 -0.84106697340E+02  0.11746809854E+03  0.78544094973E+02 0.  0.
         -6    2    1    2    0  502 -0.42917925932E+02  0.74516688277E+02  0.10916248473E+02  0.18856797647E+03  0.16746352460E+03 0.  0.
        -24    2    5    5    0    0 -0.63426704452E+02  0.10079661743E+03  0.34644345023E+02  0.14738111888E+03  0.79611925219E+02 0.  0.
          5    1    3    3  501    0  0.27688517533E+02 -0.92508572607E+02 -0.22826275270E+03  0.24789204158E+03  0.47000000000E+01 0. -1.
        -11    1    4    4    0    0 -0.16954326525E+02  0.22568199904E+02 -0.10167342847E+01  0.28245470140E+02  0.00000000000E+00 0.  1.
         12    1    4    4    0    0  0.32183734924E+02 -0.45763155740E+01 -0.83089963055E+02  0.89222628399E+02  0.00000000000E+00 0. -1.
         -5    1    5    5    0  502  0.20508778520E+02 -0.26279929153E+02 -0.23728096551E+02  0.41186857596E+02  0.47000000000E+01 0.  1.
         13    1    6    6    0    0  0.98526252409E+01  0.90937364493E+01  0.26518133044E+02  0.29715007099E+02  0.00000000000E+00 0. -1.
        -14    1    6    6    0    0 -0.73279329693E+02  0.91702880981E+02  0.81262119797E+01  0.11766611178E+03  0.00000000000E+00 0.  1.
</event>
<event>
12    1  0.8500177E-002  0.2024313E+03  0.7818608E-02  0.1148012E+00
         21   -1    0    0  503  502  0.00000000000E+00  0.00000000000E+00  0.18282067948E+03  0.18282067948E+03  0.00000000000E+00 0.  1.
         21   -1    0    0  501  503 -0.00000000000E+00 -0.00000000000E+00 -0.25384500329E+03  0.25384500329E+03  0.00000000000E+00 0.  1.
          6    2    1    2  501    0 -0.98615153077E+02  0.33633085572E+02 -0.11210453402E+03  0.23010816805E+03  0.17183192251E+03 0.  0.
         24    2    3    3    0    0 -0.13688091887E+03  0.27772089280E+02 -0.10069495021E+03  0.18947703821E+03  0.79084765383E+02 0.  0.
         -6    2    1    2    0  502  0.98615153077E+02 -0.33633085572E+02  0.41080210202E+02  0.20655751472E+03  0.17355774358E+03 0.  0.
        -24    2    5    5    0    0  0.16882414531E+02 -0.28071670298E+02  0.76689943267E+02  0.11710745615E+03  0.82217846560E+02 0.  0.
          5    1    3    3  501    0  0.38265765795E+02  0.58609962919E+01 -0.11409583808E+02  0.40631129840E+02  0.47000000000E+01 0. -1.
        -13    1    4    4    0    0 -0.38544574522E+02 -0.14407345609E+02 -0.64523207901E+02  0.76527773981E+02  0.00000000000E+00 0.  1.
         14    1    4    4    0    0 -0.98336344349E+02  0.42179434890E+02 -0.36171742310E+02  0.11294926423E+03  0.00000000000E+00 0. -1.
         -5    1    5    5    0  502  0.81732738546E+02 -0.55614152741E+01 -0.35609733065E+02  0.89450058575E+02  0.47000000000E+01 0.  1.
         13    1    6    6    0    0 -0.14085500742E+02 -0.43723469046E+02  0.18840808824E+02  0.49649966301E+02  0.00000000000E+00 0. -1.
        -14    1    6    6    0    0  0.30967915272E+02  0.15651798748E+02  0.57849134443E+02  0.67457489845E+02  0.00000000000E+00 0.  1.
</event>
<event>
12    1  0.8500177E-002  0.1797968E+03  0.7818608E-02  0.1168437E+00
         21   -1    0    0  501  502  0.00000000000E+00  0.00000000000E+00  0.89091800121E+03  0.89091800121E+03  0.00000000000E+00 0.  1.
         21   -1    0    0  502  503 -0.00000000000E+00 -0.00000000000E+00 -0.62027720475E+02  0.62027720475E+02  0.00000000000E+00 0.  1.
         -6    2    1    2    0  503 -0.19618823805E+02 -0.41036341182E+02  0.10414703219E+03  0.20623313912E+03  0.17209481053E+03 0.  0.
        -24    2    3    3    0    0 -0.32054744136E+02  0.36239827927E+02  0.22930593836E+02  0.93341783000E+02  0.76459430878E+02 0.  0.
          6    2    1    2  501    0  0.19618823805E+02  0.41036341182E+02  0.72474324855E+03  0.74671258257E+03  0.17394834035E+03 0.  0.
         24    2    5    5    0    0  0.56358574046E+02  0.79154814005E+02  0.48001916514E+03  0.49628336259E+03  0.80230939410E+02 0.  0.
          5    1    5    5  501    0 -0.36739750240E+02 -0.38118472823E+02  0.24472408341E+03  0.25042921998E+03  0.47000000000E+01 0. -1.
        -13    1    6    6    0    0  0.30733701024E+02  0.50433261033E+02  0.42530686336E+03  0.42938793907E+03  0.00000000000E+00 0.  1.
         14    1    6    6    0    0  0.25624873021E+02  0.28721552972E+02  0.54712301773E+02  0.66895423519E+02  0.00000000000E+00 0. -1.
         -5    1    3    3    0  503  0.12435920331E+02 -0.77276169109E+02  0.81216438355E+02  0.11289135612E+03  0.47000000000E+01 0.  1.
         13    1    4    4    0    0 -0.31677374459E+02 -0.60301569733E+01  0.36728350177E+02  0.48875255012E+02  0.00000000000E+00 0. -1.
        -14    1    4    4    0    0 -0.37736967671E+00  0.42269984900E+02 -0.13797756341E+02  0.44466527989E+02  0.00000000000E+00 0.  1.
</event>
<event>
12    1  0.8500177E-002  0.1916655E+03  0.7818608E-02  0.1157283E+00
         21   -1    0    0  501  502  0.00000000000E+00  0.00000000000E+00  0.21725964494E+03  0.21725964494E+03  0.00000000000E+00 0. -1.
         21   -1    0    0  502  503 -0.00000000000E+00 -0.00000000000E+00 -0.21763837481E+03  0.21763837481E+03  0.00000000000E+00 0.  1.
         -6    2    1    2    0  503  0.18730069633E+02 -0.78985587948E+02 -0.10419683045E+03  0.21815742222E+03  0.17362644609E+03 0.  0.
        -24    2    3    3    0    0  0.25202862898E+02  0.19403417832E+02 -0.76490689895E+02  0.11562931029E+03  0.80669912834E+02 0.  0.
          6    2    1    2  501    0 -0.18730069633E+02  0.78985587948E+02  0.10381810058E+03  0.21674059753E+03  0.17207193262E+03 0.  0.
         24    2    5    5    0    0 -0.20121979801E+02  0.11956164813E+03  0.10049847550E+03  0.17573493957E+03  0.77993228139E+02 0.  0.
          5    1    5    5  501    0  0.13919101686E+01 -0.40576060178E+02  0.33196250798E+01  0.41005657953E+02  0.47000000000E+01 0. -1.
        -11    1    6    6    0    0 -0.91120770350E+01  0.64899985216E+02  0.57389939670E+01  0.65787339821E+02  0.00000000000E+00 0.  1.
         12    1    6    6    0    0 -0.11009902766E+02  0.54661662909E+02  0.94759481534E+02  0.10994759975E+03  0.00000000000E+00 0. -1.
         -5    1    3    3    0  503 -0.64727932654E+01 -0.98389005780E+02 -0.27706140550E+02  0.10252811193E+03  0.47000000000E+01 0.  1.
         13    1    4    4    0    0 -0.16725432843E+02  0.58888583048E+01  0.86785614913E+01  0.19741737144E+02  0.00000000000E+00 0. -1.
        -14    1    4    4    0    0  0.41928295741E+02  0.13514559527E+02 -0.85169251386E+02  0.95887573150E+02  0.00000000000E+00 0.  1.
</event>
<event>
12    1  0.8500177E-002  0.1824371E+03  0.7818608E-02  0.1166516E+00
         21   -1    0    0  503  502  0.00000000000E+00  0.00000000000E+00  0.26308600920E+02  0.26308600920E+02  0.00000000000E+00 0.  1.
         21   -1    0    0  501  503 -0.00000000000E+00 -0.00000000000E+00 -0.12526486164E+04  0.12526486164E+04  0.00000000000E+00 0.  1.
          6    2    1    2  501    0 -0.20457781340E+01  0.42420879967E+02 -0.53003432247E+03  0.55914827923E+03  0.17293553395E+03 0.  0.
         24    2    3    3    0    0  0.64111921215E+02  0.34798488809E+02 -0.27387276384E+03  0.29442998339E+03  0.79758705371E+02 0.  0.
         -6    2    1    2    0  502  0.20457781340E+01 -0.42420879967E+02 -0.69630569297E+03  0.71980893805E+03  0.17742483752E+03 0.  0.
        -24    2    5    5    0    0 -0.51916520894E+02 -0.54443950993E+02 -0.29686527670E+03  0.31653332498E+03  0.80030521472E+02 0.  0.
          5    1    3    3  501    0 -0.66157699349E+02  0.76223911582E+01 -0.25616155863E+03  0.26471829584E+03  0.47000000000E+01 0. -1.
        -13    1    4    4    0    0  0.36832874573E+02  0.38664597251E+02 -0.25618038832E+03  0.26168684164E+03  0.00000000000E+00 0.  1.
         14    1    4    4    0    0  0.27279046642E+02 -0.38661084420E+01 -0.17692375523E+02  0.32743141753E+02  0.00000000000E+00 0. -1.
         -5    1    5    5    0  502  0.53962299028E+02  0.12023071026E+02 -0.39944041627E+03  0.40327561308E+03  0.47000000000E+01 0.  1.
         13    1    6    6    0    0 -0.16651548479E+02 -0.31095731674E+02 -0.25355903461E+03  0.25600078638E+03  0.00000000000E+00 0. -1.
        -14    1    6    6    0    0 -0.35264972415E+02 -0.23348219318E+02 -0.43306242099E+02  0.60532538602E+02  0.00000000000E+00 0.  1.
</event>
<event>
12    1  0.8500177E-002  0.2426809E+03  0.7818608E-02  0.1118810E+00
         21   -1    0    0  503  502  0.00000000000E+00  0.00000000000E+00  0.13077989013E+04  0.13077989013E+04  0.00000000000E+00 0.  1.
         21   -1    0    0  501  503 -0.00000000000E+00 -0.00000000000E+00 -0.46014214363E+02  0.46014214363E+02  0.00000000000E+00 0. -1.
          6    2    1    2  501    0  0.13999338242E+03  0.87407508453E+02  0.77301824467E+03  0.81021678598E+03  0.17792080831E+03 0.  0.
         24    2    3    3    0    0  0.94830887087E+02  0.10250342600E+03  0.72497232776E+03  0.74240795290E+03  0.78005403842E+02 0.  0.
         -6    2    1    2    0  502 -0.13999338242E+03 -0.87407508453E+02  0.48876644228E+03  0.54359632970E+03  0.17136544258E+03 0.  0.
        -24    2    5    5    0    0 -0.15225583680E+03 -0.10987944224E+03  0.46638779853E+03  0.50927069363E+03  0.81140181821E+02 0.  0.
          5    1    3    3  501    0  0.45162495329E+02 -0.15095917549E+02  0.48045916913E+02  0.67808833075E+02  0.47000000000E+01 0. -1.
        -11    1    4    4    0    0  0.29762480207E+02 -0.39672689203E+01  0.79408524867E+02  0.84895572748E+02  0.00000000000E+00 0.  1.
         12    1    4    4    0    0  0.65068406880E+02  0.10647069492E+03  0.64556380289E+03  0.65751238015E+03  0.00000000000E+00 0. -1.
         -5    1    5    5    0  502  0.12262454386E+02  0.22471933785E+02  0.22378643752E+02  0.34325636073E+02  0.47000000000E+01 0.  1.
         11    1    6    6    0    0 -0.80630801291E+02 -0.88973026473E+02  0.35867036723E+03  0.37823532078E+03  0.00000000000E+00 0. -1.
        -12    1    6    6    0    0 -0.71625035511E+02 -0.20906415765E+02  0.10771743130E+03  0.13103537285E+03  0.00000000000E+00 0.  1.
</event>
<event>
12    1  0.8500177E-002  0.1938826E+03  0.7818608E-02  0.1155369E+00
         21   -1    0    0  503  502  0.00000000000E+00  0.00000000000E+00  0.24836279411E+03  0.24836279411E+03  0.00000000000E+00 0.  1.
         21   -1    0    0  501  503 -0.00000000000E+00 -0.00000000000E+00 -0.15568794529E+03  0.15568794529E+03  0.00000000000E+00 0.  1.
          6    2    1    2  501    0  0.89057843797E+02 -0.52080813973E+01  0.84909351895E+02  0.21166022478E+03  0.17213956274E+03 0.  0.
         24    2    3    3    0    0  0.72248636759E+02  0.60160198901E+02  0.69549583056E+02  0.14228029966E+03  0.81039645382E+02 0.  0.
         -6    2    1    2    0  502 -0.89057843797E+02  0.52080813973E+01  0.77654969313E+01  0.19239051462E+03  0.17028030867E+03 0.  0.
        -24    2    5    5    0    0 -0.29069054720E+02 -0.60290453069E+02 -0.73649815901E+00  0.10304239347E+03  0.78340562607E+02 0.  0.
          5    1    3    3  501    0  0.16809207038E+02 -0.65368280299E+02  0.15359768839E+02  0.69379925117E+02  0.47000000000E+01 0. -1.
        -13    1    4    4    0    0  0.86894703060E+02  0.64893649066E+02  0.63942493821E+02  0.12589883886E+03  0.00000000000E+00 0.  1.
         14    1    4    4    0    0 -0.14646066301E+02 -0.47334501645E+01  0.56070892345E+01  0.16381460809E+02  0.00000000000E+00 0. -1.
         -5    1    5    5    0  502 -0.59988789077E+02  0.65498534466E+02  0.85019950903E+01  0.89348121148E+02  0.47000000000E+01 0.  1.
         13    1    6    6    0    0 -0.24168739229E+02 -0.34491819777E+01  0.29646064150E+02  0.38404608211E+02  0.00000000000E+00 0. -1.
        -14    1    6    6    0    0 -0.49003154905E+01 -0.56841271091E+02 -0.30382562309E+02  0.64637785262E+02  0.00000000000E+00 0.  1.
</event>
<event>
12    1  0.8500177E-002  0.2629659E+03  0.7818608E-02  0.1105490E+00
         21   -1    0    0  501  502  0.00000000000E+00  0.00000000000E+00  0.39561700646E+03  0.39561700646E+03  0.00000000000E+00 0.  1.
         21   -1    0    0  502  503 -0.00000000000E+00 -0.00000000000E+00 -0.18106103396E+03  0.18106103396E+03  0.00000000000E+00 0. -1.
         -6    2    1    2    0  503 -0.11898290284E+03 -0.15908274841E+03  0.16295068825E+03  0.30869640042E+03  0.17110315258E+03 0.  0.
        -24    2    3    3    0    0 -0.14509053389E+02 -0.66675465424E+02  0.15944282239E+02  0.10599744982E+03  0.79530553325E+02 0.  0.
          6    2    1    2  501    0  0.11898290284E+03  0.15908274841E+03  0.51605284242E+02  0.26798164000E+03  0.17229858387E+03 0.  0.
         24    2    5    5    0    0  0.59600237201E+02  0.17424810749E+03  0.32321982841E+02  0.20355940155E+03  0.80480607255E+02 0.  0.
          5    1    5    5  501    0  0.59382665635E+02 -0.15165359083E+02  0.19283301401E+02  0.64422238450E+02  0.47000000000E+01 0. -1.
        -13    1    6    6    0    0 -0.19706143642E+02  0.42218710237E+02  0.23318334288E+01  0.46649641354E+02  0.00000000000E+00 0.  1.
         14    1    6    6    0    0  0.79306380842E+02  0.13202939726E+03  0.29990149412E+02  0.15690976019E+03  0.00000000000E+00 0. -1.
         -5    1    3    3    0  503 -0.10447384945E+03 -0.92407282987E+02  0.14700640601E+03  0.20269895060E+03  0.47000000000E+01 0.  1.
         13    1    4    4    0    0 -0.26121844698E+02 -0.27378978265E+02 -0.27118019805E+02  0.46554765808E+02  0.00000000000E+00 0. -1.
        -14    1    4    4    0    0  0.11612791309E+02 -0.39296487159E+02  0.43062302045E+02  0.59442684011E+02  0.00000000000E+00 0.  1.
</event>
<event>
12    1  0.8500177E-002  0.1849047E+03  0.7818608E-02  0.1163299E+00
         21   -1    0    0  503  502  0.00000000000E+00  0.00000000000E+00  0.90241783458E+02  0.90241783458E+02  0.00000000000E+00 0. -1.
         21   -1    0    0  501  503 -0.00000000000E+00 -0.00000000000E+00 -0.40931635163E+03  0.40931635163E+03  0.00000000000E+00 0. -1.
          6    2    1    2  501    0 -0.51359775885E+02 -0.45828441167E+02 -0.22948146144E+03  0.29470578204E+03  0.17161493008E+03 0.  0.
         24    2    3    3    0    0  0.48241142489E+01  0.21223132363E+02 -0.38239665962E+02  0.84353559899E+02  0.71969143313E+02 0.  0.
         -6    2    1    2    0  502  0.51359775885E+02  0.45828441167E+02 -0.89593106738E+02  0.20485235305E+03  0.17087858021E+03 0.  0.
        -24    2    5    5    0    0 -0.56606425170E+01 -0.32304557995E+02 -0.30176109282E+02  0.91236494739E+02  0.79610759699E+02 0.  0.
          5    1    3    3  501    0 -0.56183890134E+02 -0.67051573530E+02 -0.19124179548E+03  0.21035222214E+03  0.47000000000E+01 0. -1.
        -13    1    4    4    0    0 -0.99980737442E+01 -0.28855499941E+01 -0.51896894080E+02  0.52929911133E+02  0.00000000000E+00 0.  1.
         14    1    4    4    0    0  0.14822187993E+02  0.24108682357E+02  0.13657228118E+02  0.31423648766E+02  0.00000000000E+00 0. -1.
         -5    1    5    5    0  502  0.57020418402E+02  0.78132999162E+02 -0.59416997456E+02  0.11361585831E+03  0.47000000000E+01 0.  1.
         11    1    6    6    0    0  0.12021426877E+02 -0.28036500314E+02 -0.53543677962E+02  0.61623741397E+02  0.00000000000E+00 0. -1.
        -12    1    6    6    0    0 -0.17682069394E+02 -0.42680576818E+01  0.23367568681E+02  0.29612753342E+02  0.00000000000E+00 0.  1.
</event>
<event>
12    1  0.8500177E-002  0.2243133E+03  0.7818608E-02  0.1131569E+00
         21   -1    0    0  503  502  0.00000000000E+00  0.00000000000E+00  0.13715896063E+04  0.13715896063E+04  0.00000000000E+00 0.  1.
         21   -1    0    0  501  503 -0.00000000000E+00 -0.00000000000E+00 -0.10026389805E+03  0.10026389805E+03  0.00000000000E+00 0.  1.
          6    2    1    2  501    0  0.58187233046E+02  0.12372847705E+03  0.43738454226E+02  0.22394047369E+03  0.17187726219E+03 0.  0.
         24    2    3    3    0    0  0.44645089726E+02  0.15789962568E+03  0.35231561287E+02  0.18592055429E+03  0.79998211042E+02 0.  0.
         -6    2    1    2    0  502 -0.58187233046E+02 -0.12372847705E+03  0.12275872540E+04  0.12479130306E+04  0.17782568912E+03 0.  0.
        -24    2    5    5    0    0  0.21359354147E+02 -0.46832933644E+02  0.47470441207E+03  0.48692995079E+03  0.95430353948E+02 0.  0.
          5    1    3    3  501    0  0.13542143320E+02 -0.34171148626E+02  0.85068929399E+01  0.38019919406E+02  0.47000000000E+01 0. -1.
        -13    1    4    4    0    0  0.33207278716E+02  0.92248270242E+02 -0.19163855822E+02  0.99898549000E+02  0.00000000000E+00 0.  1.
         14    1    4    4    0    0  0.11437811010E+02  0.65651355437E+02  0.54395417108E+02  0.86022005288E+02  0.00000000000E+00 0. -1.
         -5    1    5    5    0  502 -0.79546587193E+02 -0.76895543410E+02  0.75288284194E+03  0.76098307985E+03  0.47000000000E+01 0.  1.
         13    1    6    6    0    0 -0.25141126577E+02  0.16005438729E+02  0.15176985609E+03  0.15466848267E+03  0.00000000000E+00 0. -1.
        -14    1    6    6    0    0  0.46500480725E+02 -0.62838372373E+02  0.32293455599E+03  0.33226146812E+03  0.00000000000E+00 0.  1.
</event>
<event>
12    1  0.8500177E-002  0.2598211E+03  0.7818608E-02  0.1107310E+00
         21   -1    0    0  501  502  0.00000000000E+00  0.00000000000E+00  0.81968774062E+02  0.81968774062E+02  0.00000000000E+00 0.  1.
         21   -1    0    0  502  503 -0.00000000000E+00 -0.00000000000E+00 -0.93524042211E+03  0.93524042211E+03  0.00000000000E+00 0.  1.
         -6    2    1    2    0  503  0.72299750479E+02  0.18061506093E+03 -0.60363810846E+03  0.65718030597E+03  0.17221479152E+03 0.  0.
        -24    2    3    3    0    0  0.86300947200E+02  0.18974936994E+03 -0.45527558740E+03  0.50780495069E+03  0.84482723563E+02 0.  0.
          6    2    1    2  501    0 -0.72299750479E+02 -0.18061506093E+03 -0.24963353959E+03  0.36002889020E+03  0.17162413449E+03 0.  0.
         24    2    5    5    0    0 -0.74933730488E+02 -0.15582941430E+03 -0.26668541227E+03  0.32946547267E+03  0.86767034277E+02 0.  0.
          5    1    5    5  501    0  0.26339800088E+01 -0.24785646627E+02  0.17051872681E+02  0.30563417534E+02  0.47000000000E+01 0. -1.
        -11    1    6    6    0    0 -0.17101263549E+02 -0.86470213785E+02 -0.68357071576E+02  0.11154479065E+03  0.00000000000E+00 0.  1.
         12    1    6    6    0    0 -0.57832466940E+02 -0.69359200515E+02 -0.19832834070E+03  0.21792068202E+03  0.00000000000E+00 0. -1.
         -5    1    3    3    0  503 -0.14001196721E+02 -0.91343090120E+01 -0.14836252106E+03  0.14937535528E+03  0.47000000000E+01 0.  1.
         11    1    4    4    0    0  0.53992933895E+01 -0.22056330828E+01 -0.66367104610E+02  0.66622892168E+02  0.00000000000E+00 0. -1.
        -12    1    4    4    0    0  0.80901653811E+02  0.19195500302E+03 -0.38890848279E+03  0.44118205852E+03  0.00000000000E+00 0.  1.
</event>
<event>
12    1  0.8500177E-002  0.2320143E+03  0.7818608E-02  0.1125328E+00
         21   -1    0    0  501  502  0.00000000000E+00  0.00000000000E+00  0.75159419843E+03  0.75159419843E+03  0.00000000000E+00 0. -1.
         21   -1    0    0  502  503 -0.00000000000E+00 -0.00000000000E+00 -0.25192773180E+03  0.25192773180E+03  0.00000000000E+00 0. -1.
         -6    2    1    2    0  503 -0.11212362323E+03  0.10417542561E+03 -0.17494455956E+03  0.29012816498E+03  0.17362179300E+03 0.  0.
        -24    2    3    3    0    0 -0.92622692649E+02  0.14086341832E+03 -0.12132110232E+03  0.22212919242E+03  0.78747078950E+02 0.  0.
          6    2    1    2  501    0  0.11212362323E+03 -0.10417542561E+03  0.67461102619E+03  0.71339376525E+03  0.17437431419E+03 0.  0.
         24    2    5    5    0    0  0.58505452139E+02 -0.12424472341E+03  0.59093154555E+03  0.61189484671E+03  0.79721845631E+02 0.  0.
          5    1    5    5  501    0  0.53618171091E+02  0.20069297797E+02  0.83679480635E+02  0.10149891854E+03  0.47000000000E+01 0. -1.
        -13    1    6    6    0    0  0.28001854188E+02 -0.33149514425E+01  0.57031316501E+02  0.63621252760E+02  0.00000000000E+00 0.  1.
         14    1    6    6    0    0  0.30503597951E+02 -0.12092977196E+03  0.53390022905E+03  0.54827359395E+03  0.00000000000E+00 0. -1.
         -5    1    3    3    0  503 -0.19500930581E+02 -0.36687992708E+02 -0.53623457244E+02  0.67998972560E+02  0.47000000000E+01 0.  1.
         11    1    4    4    0    0 -0.87303681005E+02  0.88438140516E+02 -0.51174392810E+02  0.13439514833E+03  0.00000000000E+00 0. -1.
        -12    1    4    4    0    0 -0.53190116434E+01  0.52425277800E+02 -0.70146709507E+02  0.87734044088E+02  0.00000000000E+00 0.  1.
</event>
<event>
12    1  0.8500177E-002  0.1829055E+03  0.7818608E-02  0.1165298E+00
         21   -1    0    0  503  502  0.00000000000E+00  0.00000000000E+00  0.17018461032E+03  0.17018461032E+03  0.00000000000E+00 0.  1.
         21   -1    0    0  501  503 -0.00000000000E+00 -0.00000000000E+00 -0.36191262296E+03  0.36191262296E+03  0.00000000000E+00 0.  1.
          6    2    1    2  501    0  0.25883971429E+01  0.61610493839E+02 -0.27653209969E+03  0.33154850902E+03  0.17219715133E+03 0.  0.
         24    2    3    3    0    0 -0.25104099127E+02  0.17630101746E+02 -0.25896137216E+03  0.27648518453E+03  0.91880513237E+02 0.  0.
         -6    2    1    2    0  502 -0.25883971429E+01 -0.61610493839E+02  0.84804087045E+02  0.20054872426E+03  0.17095468661E+03 0.  0.
        -24    2    5    5    0    0  0.31993187986E+02  0.32177236361E+01 -0.34118224514E+01  0.85645632488E+02  0.79307099361E+02 0.  0.
          5    1    3    3  501    0  0.27692496270E+02  0.43980392093E+02 -0.17570727531E+02  0.55063324493E+02  0.47000000000E+01 0. -1.
        -13    1    4    4    0    0 -0.46803063809E+02 -0.48948534534E+01 -0.22677290420E+03  0.23160405102E+03  0.00000000000E+00 0.  1.
         14    1    4    4    0    0  0.21698964682E+02  0.22524955199E+02 -0.32188467963E+02  0.44881133507E+02  0.00000000000E+00 0. -1.
         -5    1    5    5    0  502 -0.34581585129E+02 -0.64828217475E+02  0.88215909496E+02  0.11490309177E+03  0.47000000000E+01 0.  1.
         13    1    6    6    0    0 -0.37465538495E+01  0.31208815693E+02 -0.20064949826E+02  0.37291139084E+02  0.00000000000E+00 0. -1.
        -14    1    6    6    0    0  0.35739741836E+02 -0.27991092056E+02  0.16653127375E+02  0.48354493404E+02  0.00000000000E+00 0.  1.
</event>
<event>
12    1  0.8500177E-002  0.1822301E+03  0.7818608E-02  0.1166076E+00
         21   -1    0    0  501  502  0.00000000000E+00  0.00000000000E+00  0.41401179073E+03  0.41401179073E+03  0.00000000000E+00 0. -1.
         21   -1    0    0  502  503 -0.00000000000E+00 -0.00000000000E+00 -0.25553325741E+03  0.25553325741E+03  0.00000000000E+00 0.  1.
         -6    2    1    2    0  503  0.17360711287E+02 -0.56883225592E+02 -0.19877486450E+03  0.26849915900E+03  0.17042082026E+03 0.  0.
        -24    2    3    3    0    0  0.59512772624E+02 -0.83086611934E+02 -0.12506914554E+03  0.17951580810E+03  0.78348446076E+02 0.  0.
          6    2    1    2  501    0 -0.17360711287E+02  0.56883225592E+02  0.35725339782E+03  0.40104588913E+03  0.17225190648E+03 0.  0.
         24    2    5    5    0    0  0.20789036305E+02  0.48063155771E+02  0.88369708297E+02  0.12928547008E+03  0.78506537659E+02 0.  0.
          5    1    5    5  501    0 -0.38149747593E+02  0.88200698214E+01  0.26888368952E+03  0.27176041906E+03  0.47000000000E+01 0. -1.
        -13    1    6    6    0    0  0.39977155777E+02  0.45578503282E+02  0.91422315980E+02  0.10969782498E+03  0.00000000000E+00 0.  1.
         14    1    6    6    0    0 -0.19188119472E+02  0.24846524884E+01 -0.30526076833E+01  0.19587645099E+02  0.00000000000E+00 0. -1.
         -5    1    3    3    0  503 -0.42152061337E+02  0.26203386342E+02 -0.73705718966E+02  0.88983350909E+02  0.47000000000E+01 0.  1.
         13    1    4    4    0    0 -0.92554808078E+01 -0.89158036122E+01  0.58136822241E+01  0.14105118930E+02  0.00000000000E+00 0. -1.
        -14    1    4    4    0    0  0.68768253432E+02 -0.74170808322E+02 -0.13088282776E+03  0.16541068917E+03  0.00000000000E+00 0.  1.
</event>
<event>
12    1  0.8500177E-002  0.2360258E+03  0.7818608E-02  0.1122577E+00
         21   -1    0    0  503  502  0.00000000000E+00  0.00000000000E+00  0.81216066730E+03  0.81216066730E+03  0.00000000000E+00 0. -1.
         21   -1    0    0  501  503 -0.00000000000E+00 -0.00000000000E+00 -0.69787671989E+02  0.69787671989E+02  0.00000000000E+00 0.  1.
          6    2    1    2  501    0  0.14955764900E+03  0.57209729887E+02  0.30869568173E+03  0.38820329068E+03  0.17253500344E+03 0.  0.
         24    2    3    3    0    0  0.34513129558E+02  0.39390311284E+02  0.64732135056E+02  0.11784598038E+03  0.83394682365E+02 0.  0.
         -6    2    1    2    0  502 -0.14955764900E+03 -0.57209729887E+02  0.43367731359E+03  0.49374504861E+03  0.17340045311E+03 0.  0.
        -24    2    5    5    0    0 -0.50639777312E+02 -0.78850235097E+02  0.16030573925E+03  0.20218516718E+03  0.79994782143E+02 0.  0.
          5    1    3    3  501    0  0.11504451944E+03  0.17819418603E+02  0.24396354667E+03  0.27035731030E+03  0.47000000000E+01 0. -1.
        -13    1    4    4    0    0  0.19828421696E+00  0.22212797926E+02  0.74918908218E+02  0.78142757290E+02  0.00000000000E+00 0.  1.
         14    1    4    4    0    0  0.34314845341E+02  0.17177513357E+02 -0.10186773162E+02  0.39703223085E+02  0.00000000000E+00 0. -1.
         -5    1    5    5    0  502 -0.98917871683E+02  0.21640505210E+02  0.27337157434E+03  0.29155988143E+03  0.47000000000E+01 0.  1.
         13    1    6    6    0    0 -0.31010283347E+02  0.87704611646E+01  0.30665744432E+02  0.44485352015E+02  0.00000000000E+00 0. -1.
        -14    1    6    6    0    0 -0.19629493965E+02 -0.87620696261E+02  0.12963999482E+03  0.15769981517E+03  0.00000000000E+00 0.  1.
</event>
<event>
12    1  0.8500177E-002  0.1779598E+03  0.7818608E-02  0.1169993E+00
         21   -1    0    0  501  502  0.00000000000E+00  0.00000000000E+00  0.15981991039E+03  0.15981991039E+03  0.00000000000E+00 0. -1.
         21   -1    0    0  502  503 -0.00000000000E+00 -0.00000000000E+00 -0.13410273923E+04  0.13410273923E+04  0.00000000000E+00 0. -1.
         -6    2    1    2    0  503 -0.22874415383E+02 -0.41014200747E+02 -0.12838435101E+04  0.12961187674E+04  0.17165167438E+03 0.  0.
        -24    2    3    3    0    0 -0.41194320267E+02 -0.87374556302E+02 -0.93021074440E+03  0.93895896502E+03  0.83789163268E+02 0.  0.
          6    2    1    2  501    0  0.22874415383E+02  0.41014200747E+02  0.10263602821E+03  0.20472853524E+03  0.17080461151E+03 0.  0.
         24    2    5    5    0    0 -0.38622600947E+02 -0.10199166983E+01  0.14104161716E+02  0.88932458315E+02  0.78849915854E+02 0.  0.
          5    1    5    5  501    0  0.61497016330E+02  0.42034117445E+02  0.88531866494E+02  0.11579607693E+03  0.47000000000E+01 0. -1.
        -13    1    6    6    0    0 -0.16420690497E+02  0.16691268044E+02 -0.29025051373E+02  0.37291971153E+02  0.00000000000E+00 0.  1.
         14    1    6    6    0    0 -0.22201910450E+02 -0.17711184742E+02  0.43129213089E+02  0.51640487162E+02  0.00000000000E+00 0. -1.
         -5    1    3    3    0  503  0.18319904885E+02  0.46360355555E+02 -0.35363276567E+03  0.35715980239E+03  0.47000000000E+01 0.  1.
         13    1    4    4    0    0  0.18170650681E+02 -0.59580862284E+02 -0.46429517419E+03  0.46845497166E+03  0.00000000000E+00 0. -1.
        -14    1    4    4    0    0 -0.59364970948E+02 -0.27793694018E+02 -0.46591557021E+03  0.47050399336E+03  0.00000000000E+00 0.  1.
</event>
<event>
12    1  0.8500177E-002  0.1861203E+03  0.7818608E-02  0.1162344E+00
         21   -1    0    0  503  502  0.00000000000E+00  0.00000000000E+00  0.25836068189E+03  0.25836068189E+03  0.00000000000E+00 0. -1.
         21   -1    0    0  501  503 -0.00000000000E+00 -0.00000000000E+00 -0.22188629370E+03  0.22188629370E+03  0.00000000000E+00 0. -1.
          6    2    1    2  501    0 -0.33039407735E+02  0.59352140284E+02 -0.13366603232E+03  0.22914488657E+03  0.17328153919E+03 0.  0.
         24    2    3    3    0    0 -0.50809772828E+01 -0.28759528847E+02 -0.76195830344E+02  0.12019419045E+03  0.88249147449E+02 0.  0.
         -6    2    1    2    0  502  0.33039407735E+02 -0.59352140284E+02  0.17014042051E+03  0.25110208902E+03  0.17172715975E+03 0.  0.
        -24    2    5    5    0    0  0.67635643741E+02 -0.37754999691E+02  0.17749008397E+03  0.20939545189E+03  0.79647379491E+02 0.  0.
          5    1    3    3  501    0 -0.27958430452E+02  0.88111669130E+02 -0.57470201978E+02  0.10895069612E+03  0.47000000000E+01 0. -1.
        -11    1    4    4    0    0  0.32148374974E+02  0.44324490496E+01 -0.43649456382E+01  0.32744730392E+02  0.00000000000E+00 0.  1.
         12    1    4    4    0    0 -0.37229352256E+02 -0.33191977896E+02 -0.71830884705E+02  0.87449460054E+02  0.00000000000E+00 0. -1.
         -5    1    5    5    0  502 -0.34596236006E+02 -0.21597140593E+02 -0.73496634518E+01  0.41706637127E+02  0.47000000000E+01 0.  1.
         13    1    6    6    0    0  0.15466591792E+02 -0.45235250705E+02  0.12978069656E+03  0.13830572139E+03  0.00000000000E+00 0. -1.
        -14    1    6    6    0    0  0.52169051949E+02  0.74802510145E+01  0.47709387402E+02  0.71089730501E+02  0.00000000000E+00 0.  1.
</event>
<event>
12    1  0.8500177E-002  0.2352953E+03  0.7818608E-02  0.1123008E+00
         21   -1    0    0  503  502  0.00000000000E+00  0.00000000000E+00  0.20354639151E+03  0.20354639151E+03  0.00000000000E+00 0. -1.
         21   -1    0    0  501  503 -0.00000000000E+00 -0.00000000000E+00 -0.28402353320E+03  0.28402353320E+03  0.00000000000E+00 0.  1.
          6    2    1    2  501    0  0.16685301755E+02 -0.16040301499E+03 -0.90998602660E+02  0.25227889830E+03  0.17133700805E+03 0.  0.
         24    2    3    3    0    0  0.96818117415E+01 -0.16096781345E+03 -0.12452399671E+03  0.21770419778E+03  0.76710608983E+02 0.  0.
         -6    2    1    2    0  502 -0.16685301755E+02  0.16040301499E+03  0.10521460968E+02  0.23529102641E+03  0.17100771753E+03 0.  0.
        -24    2    5    5    0    0  0.35867348123E+02  0.11866126537E+03 -0.38396973183E+02  0.15210894979E+03  0.79346345191E+02 0.  0.
          5    1    3    3  501    0  0.70034900138E+01  0.56479846109E+00  0.33525394047E+02  0.34574700514E+02  0.47000000000E+01 0. -1.
        -13    1    4    4    0    0  0.41826715616E+02 -0.11576707262E+03 -0.87264817876E+02  0.15088617458E+03  0.00000000000E+00 0.  1.
         14    1    4    4    0    0 -0.32144903875E+02 -0.45200740834E+02 -0.37259178830E+02  0.66818023199E+02  0.00000000000E+00 0. -1.
         -5    1    5    5    0  502 -0.52552649878E+02  0.41741749618E+02  0.48918434150E+02  0.83182076616E+02  0.47000000000E+01 0.  1.
         11    1    6    6    0    0  0.16510440858E+02  0.12317749620E+03 -0.21720173236E+02  0.12616281605E+03  0.00000000000E+00 0. -1.
        -12    1    6    6    0    0  0.19356907264E+02 -0.45162308271E+01 -0.16676799947E+02  0.25946133743E+02  0.00000000000E+00 0.  1.
</event>
<event>
12    1  0.8500177E-002  0.2114306E+03  0.7818608E-02  0.1140615E+00
         21   -1    0    0  503  502  0.00000000000E+00  0.00000000000E+00  0.20887731625E+03  0.20887731625E+03  0.00000000000E+00 0. -1.
         21   -1    0    0  501  503 -0.00000000000E+00 -0.00000000000E+00 -0.38693544240E+03  0.38693544240E+03  0.00000000000E+00 0.  1.
          6    2    1    2  501    0 -0.64667262014E+02  0.10368491238E+03 -0.28880749764E+03  0.35792830470E+03  0.17254125530E+03 0.  0.
         24    2    3    3    0    0 -0.10122323152E+03  0.10943495963E+03 -0.26288895293E+03  0.31250515081E+03  0.79540648236E+02 0.  0.
         -6    2    1    2    0  502  0.64667262014E+02 -0.10368491238E+03  0.11074937150E+03  0.23788445394E+03  0.17143854382E+03 0.  0.
        -24    2    5    5    0    0  0.66058750458E+02 -0.49522759178E+01  0.87515072617E+02  0.13633647322E+03  0.80873125616E+02 0.  0.
          5    1    3    3  501    0  0.36555969506E+02 -0.57500472421E+01 -0.25918544718E+02  0.45423153899E+02  0.47000000000E+01 0. -1.
        -13    1    4    4    0    0 -0.52136389723E+02  0.91524215368E+01 -0.12008794218E+03  0.13123674718E+03  0.00000000000E+00 0.  1.
         14    1    4    4    0    0 -0.49086841797E+02  0.10028253809E+03 -0.14280101075E+03  0.18126840363E+03  0.00000000000E+00 0. -1.
         -5    1    5    5    0  502 -0.13914884445E+01 -0.98732636465E+02  0.23234298880E+02  0.10154798072E+03  0.47000000000E+01 0.  1.
         11    1    6    6    0    0  0.16115641004E+02 -0.14700561503E+02  0.82349281957E+02  0.85189345767E+02  0.00000000000E+00 0. -1.
        -12    1    6    6    0    0  0.49943109454E+02  0.97482855848E+01  0.51657906599E+01  0.51147127455E+02  0.00000000000E+00 0.  1.
</event>
<event>
12    1  0.8500177E-002  0.3550826E+03  0.7818608E-02  0.1060692E+00
         21   -1    0    0  501  502  0.00000000000E+00  0.00000000000E+00  0.70237503281E+03  0.70237503281E+03  0.00000000000E+00 0. -1.
         21   -1    0    0  502  503 -0.00000000000E+00 -0.00000000000E+00 -0.19092276464E+03  0.19092276464E+03  0.00000000000E+00 0.  1.
         -6    2    1    2    0  503  0.22468921096E+02  0.30843897853E+03  0.14360996419E+03  0.38302413140E+03  0.17448268548E+03 0.  0.
        -24    2    3    3    0    0  0.64870650319E+02  0.17045741170E+03  0.37089462747E+02  0.20356514820E+03  0.82457327370E+02 0.  0.
          6    2    1    2  501    0 -0.22468921096E+02 -0.30843897853E+03  0.36784230398E+03  0.51027366605E+03  0.17155698113E+03 0.  0.
         24    2    5    5    0    0 -0.43166944730E+01 -0.24272299011E+03  0.35957980987E+03  0.44143724201E+03  0.81462354411E+02 0.  0.
          5    1    5    5  501    0 -0.18152226623E+02 -0.65715988424E+02  0.82624941059E+01  0.68836424041E+02  0.47000000000E+01 0. -1.
        -11    1    6    6    0    0 -0.41519259175E+02 -0.95322957631E+02  0.14100046419E+03  0.17518974295E+03  0.00000000000E+00 0.  1.
         12    1    6    6    0    0  0.37202564703E+02 -0.14740003248E+03  0.21857934568E+03  0.26624749906E+03  0.00000000000E+00 0. -1.
         -5    1    3    3    0  503 -0.42401729223E+02  0.13798156683E+03  0.10652050144E+03  0.17945898320E+03  0.47000000000E+01 0.  1.
         11    1    4    4    0    0 -0.19950336862E+02  0.35631320286E+02  0.60726368691E+01  0.41285395054E+02  0.00000000000E+00 0. -1.
        -12    1    4    4    0    0  0.84820987181E+02  0.13482609142E+03  0.31016825878E+02  0.16227975315E+03  0.00000000000E+00 0.  1.
</event>
<event>
12    1  0.8500177E-002  0.2201616E+03  0.7818608E-02  0.1134009E+00
         21   -1    0    0  501  502  0.00000000000E+00  0.00000000000E+00  0.81382575551E+02  0.81382575551E+02  0.00000000000E+00 0. -1.
         21   -1    0    0  502  503 -0.00000000000E+00 -0.00000000000E+00 -0.88203879466E+03  0.88203879466E+03  0.00000000000E+00 0. -1.
         -6    2    1    2    0  503 -0.12391685088E+03 -0.56504631750E+02 -0.67573277519E+03  0.71028699444E+03  0.17130286529E+03 0.  0.
        -24    2    3    3    0    0 -0.10736285964E+03  0.14679888752E+02 -0.32366967696E+03  0.35068751484E+03  0.80482237302E+02 0.  0.
          6    2    1    2  501    0  0.12391685088E+03  0.56504631750E+02 -0.12492344392E+03  0.25313437577E+03  0.17298261768E+03 0.  0.
         24    2    5    5    0    0  0.50163972239E+02  0.16536196929E+02 -0.13787137780E+03  0.16812436530E+03  0.80420242906E+02 0.  0.
          5    1    5    5  501    0  0.73752878640E+02  0.39968434821E+02  0.12947933886E+02  0.85010010479E+02  0.47000000000E+01 0. -1.
        -13    1    6    6    0    0  0.23195453123E+02 -0.31520621186E+02 -0.41027405611E+02  0.56699441061E+02  0.00000000000E+00 0.  1.
         14    1    6    6    0    0  0.26968519116E+02  0.48056818114E+02 -0.96843972193E+02  0.11142492423E+03  0.00000000000E+00 0. -1.
         -5    1    3    3    0  503 -0.16553991238E+02 -0.71184520502E+02 -0.35206309824E+03  0.35959947960E+03  0.47000000000E+01 0.  1.
         13    1    4    4    0    0 -0.84689781930E+02 -0.16956532105E+02 -0.27570654322E+03  0.28891864100E+03  0.00000000000E+00 0. -1.
        -14    1    4    4    0    0 -0.22673077712E+02  0.31636420858E+02 -0.47963133733E+02  0.61768873837E+02  0.00000000000E+00 0.  1.
</event>
<event>
12    1  0.8500177E-002  0.1893092E+03  0.7818608E-02  0.1161314E+00
         21   -1    0    0  501  502  0.00000000000E+00  0.00000000000E+00  0.38677561114E+03  0.38677561114E+03  0.00000000000E+00 0. -1.
         21   -1    0    0  502  503 -0.00000000000E+00 -0.00000000000E+00 -0.88588710858E+02  0.88588710858E+02  0.00000000000E+00 0. -1.
         -6    2    1    2    0  503  0.51862054161E+02  0.57085831215E+02  0.12647237163E+03  0.21977900357E+03  0.16235481156E+03 0.  0.
        -24    2    3    3    0    0  0.52836140005E+02 -0.22375660676E+02  0.61784902563E+02  0.11720397643E+03  0.81406818054E+02 0.  0.
          6    2    1    2  501    0 -0.51862054161E+02 -0.57085831215E+02  0.17171452865E+03  0.25558531843E+03  0.17288583187E+03 0.  0.
         24    2    5    5    0    0 -0.10270178333E+03 -0.37775055836E+02  0.13150866025E+03  0.18779014189E+03  0.77433833234E+02 0.  0.
          5    1    5    5  501    0  0.50839729170E+02 -0.19310775379E+02  0.40205868403E+02  0.67795176539E+02  0.47000000000E+01 0. -1.
        -13    1    6    6    0    0 -0.70446178175E+02  0.49150229987E+01  0.10870269191E+03  0.12962675920E+03  0.00000000000E+00 0.  1.
         14    1    6    6    0    0 -0.32255605156E+02 -0.42690078834E+02  0.22805968331E+02  0.58163382694E+02  0.00000000000E+00 0. -1.
         -5    1    3    3    0  503 -0.97408584464E+00  0.79461491891E+02  0.64687469069E+02  0.10257502713E+03  0.47000000000E+01 0.  1.
         13    1    4    4    0    0  0.21345463228E+02  0.15857298520E+02 -0.11319059316E+02  0.28899893090E+02  0.00000000000E+00 0. -1.
        -14    1    4    4    0    0  0.31490676777E+02 -0.38232959196E+02  0.73103961879E+02  0.88304083344E+02  0.00000000000E+00 0.  1.
</event>
<event>
12    1  0.8500177E-002  0.2729485E+03  0.7818608E-02  0.1099609E+00
         21   -1    0    0  501  502  0.00000000000E+00  0.00000000000E+00  0.61144055121E+03  0.61144055121E+03  0.00000000000E+00 0.  1.
         21   -1    0    0  502  503 -0.00000000000E+00 -0.00000000000E+00 -0.12560512696E+03  0.12560512696E+03  0.00000000000E+00 0.  1.
         -6    2    1    2    0  503 -0.15302586987E+03  0.14283786233E+03  0.17900318326E+03  0.32637925947E+03  0.17510485324E+03 0.  0.
        -24    2    3    3    0    0 -0.57982131197E+02  0.27005920921E+02  0.14386766877E+02  0.10373378915E+03  0.80389505825E+02 0.  0.
          6    2    1    2  501    0  0.15302586987E+03 -0.14283786233E+03  0.30683224099E+03  0.41066641870E+03  0.17516081631E+03 0.  0.
         24    2    5    5    0    0  0.15587923779E+03 -0.81246039934E+02  0.28678861126E+03  0.34566233123E+03  0.79595753046E+02 0.  0.
          5    1    5    5  501    0 -0.28533679193E+01 -0.61591822398E+02  0.20043629731E+02  0.65004087468E+02  0.47000000000E+01 0. -1.
        -13    1    6    6    0    0  0.12431637457E+03 -0.64800764643E+02  0.15429627686E+03  0.20847311850E+03  0.00000000000E+00 0.  1.
         14    1    6    6    0    0  0.31562863219E+02 -0.16445275291E+02  0.13249233440E+03  0.13718921273E+03  0.00000000000E+00 0. -1.
         -5    1    3    3    0  503 -0.95043738670E+02  0.11583194141E+03  0.16461641638E+03  0.22264547032E+03  0.47000000000E+01 0.  1.
         11    1    4    4    0    0  0.15296875037E+02  0.17214509208E+02 -0.11059382339E+02  0.25546891217E+02  0.00000000000E+00 0. -1.
        -12    1    4    4    0    0 -0.73279006234E+02  0.97914117139E+01  0.25446149216E+02  0.78186897930E+02  0.00000000000E+00 0.  1.
</event>
<event>
12    1  0.8500177E-002  0.1971120E+03  0.7818608E-02  0.1152549E+00
         21   -1    0    0  503  502  0.00000000000E+00  0.00000000000E+00  0.75020766215E+02  0.75020766215E+02  0.00000000000E+00 0. -1.
         21   -1    0    0  501  503 -0.00000000000E+00 -0.00000000000E+00 -0.60664199268E+03  0.60664199268E+03  0.00000000000E+00 0. -1.
          6    2    1    2  501    0  0.50402981935E+02  0.78348597696E+02 -0.39832622772E+03  0.44371168506E+03  0.17186422669E+03 0.  0.
         24    2    3    3    0    0 -0.35742886983E+02  0.15383930864E+02 -0.18471846538E+03  0.20488952082E+03  0.79652903199E+02 0.  0.
         -6    2    1    2    0  502 -0.50402981935E+02 -0.78348597696E+02 -0.13329499874E+03  0.23795107384E+03  0.17370720625E+03 0.  0.
        -24    2    5    5    0    0 -0.38186853149E+02 -0.11141952240E+03 -0.55865578399E+02  0.15274353310E+03  0.79605768188E+02 0.  0.
          5    1    3    3  501    0  0.86145868918E+02  0.62964666832E+02 -0.21360776234E+03  0.23882216424E+03  0.47000000000E+01 0. -1.
        -11    1    4    4    0    0  0.10201543370E+02 -0.24622384216E+02 -0.71769644189E+02  0.76558573123E+02  0.00000000000E+00 0.  1.
         12    1    4    4    0    0 -0.45944430353E+02  0.40006315079E+02 -0.11294882119E+03  0.12833094769E+03  0.00000000000E+00 0. -1.
         -5    1    5    5    0  502 -0.12216128785E+02  0.33070924707E+02 -0.77429420345E+02  0.85207540737E+02  0.47000000000E+01 0.  1.
         11    1    6    6    0    0 -0.16460556398E+02 -0.91227452850E+02 -0.73441189557E+02  0.11826667491E+03  0.00000000000E+00 0. -1.
        -12    1    6    6    0    0 -0.21726296751E+02 -0.20192069554E+02  0.17575611158E+02  0.34476858194E+02  0.00000000000E+00 0.  1.
</event>
<event>
12    1  0.8500177E-002  0.1876110E+03  0.7818608E-02  0.1160791E+00
         21   -1    0    0  501  502  0.00000000000E+00  0.00000000000E+00  0.91674983829E+03  0.91674983829E+03  0.00000000000E+00 0.  1.
         21   -1    0    0  502  503 -0.00000000000E+00 -0.00000000000E+00 -0.38943755730E+02  0.38943755730E+02  0.00000000000E+00 0.  1.
         -6    2    1    2    0  503  0.28269976955E+02  0.69420909196E+02  0.37611904056E+03  0.42031345676E+03  0.17198667109E+03 0.  0.
        -24    2    3    3    0    0  0.37614839358E+02  0.96067853909E+02  0.36551323606E+03  0.38978544987E+03  0.87686159104E+02 0.  0.
          6    2    1    2  501    0 -0.28269976955E+02 -0.69420909196E+02  0.50168704199E+03  0.53538013726E+03  0.17124120133E+03 0.  0.
         24    2    5    5    0    0 -0.98388118221E+01 -0.10039099043E+01  0.41540108435E+03  0.42363064005E+03  0.82504837750E+02 0.  0.
          5    1    5    5  501    0 -0.18431165133E+02 -0.68416999292E+02  0.86285957642E+02  0.11174949721E+03  0.47000000000E+01 0. -1.
        -13    1    6    6    0    0  0.13609505174E+01  0.12853151822E+02  0.67315678154E+01  0.14572909912E+02  0.00000000000E+00 0.  1.
         14    1    6    6    0    0 -0.11199762339E+02 -0.13857061726E+02  0.40866951654E+03  0.40905773013E+03  0.00000000000E+00 0. -1.
         -5    1    3    3    0  503 -0.93448624035E+01 -0.26646944713E+02  0.10605804504E+02  0.30528006896E+02  0.47000000000E+01 0.  1.
         13    1    4    4    0    0  0.46118586410E+02  0.10971570311E+03  0.31290700288E+03  0.33477642087E+03  0.00000000000E+00 0. -1.
        -14    1    4    4    0    0 -0.85037470517E+01 -0.13647849197E+02  0.52606233180E+02  0.55009028995E+02  0.00000000000E+00 0.  1.
</event>
<event>
12    1  0.8500177E-002  0.2005052E+03  0.7818608E-02  0.1150067E+00
         21   -1    0    0  501  502  0.00000000000E+00  0.00000000000E+00  0.25712433921E+03  0.25712433921E+03  0.00000000000E+00 0.  1.
         21   -1    0    0  502  503 -0.00000000000E+00 -0.00000000000E+00 -0.17982771480E+03  0.17982771480E+03  0.00000000000E+00 0. -1.
         -6    2    1    2    0  503  0.85651253504E+02  0.57991363124E+02 -0.44494606065E+02  0.20538286216E+03  0.17176499841E+03 0.  0.
        -24    2    3    3    0    0  0.35394790506E+02 -0.57103916010E+01 -0.89355926801E+02  0.11254831188E+03  0.58285856653E+02 0.  0.
          6    2    1    2  501    0 -0.85651253504E+02 -0.57991363124E+02  0.12179123047E+03  0.23156919184E+03  0.16760683568E+03 0.  0.
         24    2    5    5    0    0 -0.87290842134E+02 -0.33134211814E+02  0.19363747509E+02  0.12605120528E+03  0.82440187536E+02 0.  0.
          5    1    5    5  501    0  0.16395886292E+01 -0.24857151310E+02  0.10242748296E+03  0.10551798656E+03  0.47000000000E+01 0. -1.
        -11    1    6    6    0    0 -0.87492279944E+02 -0.23608424365E+00  0.28308276835E+02  0.91958215092E+02  0.00000000000E+00 0.  1.
         12    1    6    6    0    0  0.20143781015E+00 -0.32898127571E+02 -0.89445293259E+01  0.34092990184E+02  0.00000000000E+00 0. -1.
         -5    1    3    3    0  503  0.50256462998E+02  0.63701754725E+02  0.44861320735E+02  0.92834550283E+02  0.47000000000E+01 0.  1.
         11    1    4    4    0    0 -0.48376928616E+01  0.12000906124E+02 -0.55705787256E+02  0.57188807942E+02  0.00000000000E+00 0. -1.
        -12    1    4    4    0    0  0.40232483368E+02 -0.17711297725E+02 -0.33650139544E+02  0.55359503940E+02  0.00000000000E+00 0.  1.
</event>
<event>
12    1  0.8500177E-002  0.2478525E+03  0.7818608E-02  0.1115167E+00
         21   -1    0    0  503  502  0.00000000000E+00  0.00000000000E+00  0.11830534995E+04  0.11830534995E+04  0.00000000000E+00 0. -1.
         21   -1    0    0  501  503 -0.00000000000E+00 -0.00000000000E+00 -0.59347910158E+02  0.59347910158E+02  0.00000000000E+00 0.  1.
          6    2    1    2  501    0 -0.26473342702E+02  0.17259113196E+03  0.32977843377E+03  0.41068560897E+03  0.17152351831E+03 0.  0.
         24    2    3    3    0    0 -0.45123072059E+02  0.13533537485E+03  0.32921191580E+03  0.36875453714E+03  0.85133235814E+02 0.  0.
         -6    2    1    2    0  502  0.26473342702E+02 -0.17259113196E+03  0.79392715562E+03  0.83171580073E+03  0.17590425820E+03 0.  0.
        -24    2    5    5    0    0  0.80495413132E+02 -0.10480905806E+03  0.41339996944E+03  0.44141358058E+03  0.80510646499E+02 0.  0.
          5    1    3    3  501    0  0.18649729357E+02  0.37255757103E+02  0.56651797298E+00  0.41931071833E+02  0.47000000000E+01 0. -1.
        -11    1    4    4    0    0 -0.53883808656E+02  0.80945564944E+02  0.13173325604E+03  0.16373545757E+03  0.00000000000E+00 0.  1.
         12    1    4    4    0    0  0.87607365967E+01  0.54389809910E+02  0.19747865976E+03  0.20501907957E+03  0.00000000000E+00 0. -1.
         -5    1    5    5    0  502 -0.54022070430E+02 -0.67782073899E+02  0.38052718618E+03  0.39030222015E+03  0.47000000000E+01 0.  1.
         13    1    6    6    0    0 -0.20185138393E+01  0.52097050531E+01  0.87596955459E+02  0.87774951043E+02  0.00000000000E+00 0. -1.
        -14    1    6    6    0    0  0.82513926971E+02 -0.11001876311E+03  0.32580301398E+03  0.35363862954E+03  0.00000000000E+00 0.  1.
</event>
<event>
12    1  0.8500177E-002  0.3006369E+03  0.7818608E-02  0.1084949E+00
         21   -1    0    0  501  502  0.00000000000E+00  0.00000000000E+00  0.12463869549E+03  0.12463869549E+03  0.00000000000E+00 0. -1.
         21   -1    0    0  502  503 -0.00000000000E+00 -0.00000000000E+00 -0.72529840570E+03  0.72529840570E+03  0.00000000000E+00 0.  1.
         -6    2    1    2    0  503  0.43375623214E+02 -0.24264977403E+03 -0.31321348550E+03  0.43414885702E+03  0.17211096717E+03 0.  0.
        -24    2    3    3    0    0  0.27886384142E+02 -0.17966032405E+03 -0.31138361134E+03  0.36908714957E+03  0.78804112245E+02 0.  0.
          6    2    1    2  501    0 -0.43375623214E+02  0.24264977403E+03 -0.28744622471E+03  0.41578824417E+03  0.17173868044E+03 0.  0.
         24    2    5    5    0    0 -0.47602138181E+02  0.59717546171E+02 -0.15004244116E+03  0.18691283449E+03  0.81188205235E+02 0.  0.
          5    1    5    5  501    0  0.42265149669E+01  0.18293222786E+03 -0.13740378355E+03  0.22887540967E+03  0.47000000000E+01 0. -1.
        -13    1    6    6    0    0  0.94500790555E+00 -0.12163028413E+02 -0.62486925145E+02  0.63666695486E+02  0.00000000000E+00 0.  1.
         14    1    6    6    0    0 -0.48547146087E+02  0.71880574584E+02 -0.87555516015E+02  0.12324613901E+03  0.00000000000E+00 0. -1.
         -5    1    3    3    0  503  0.15489239072E+02 -0.62989449987E+02 -0.18298741608E+01  0.65061707448E+02  0.47000000000E+01 0.  1.
         13    1    4    4    0    0 -0.27712456834E+02 -0.66900386951E+02 -0.11126233564E+03  0.13275145713E+03  0.00000000000E+00 0. -1.
        -14    1    4    4    0    0  0.55598840977E+02 -0.11275993710E+03 -0.20012127570E+03  0.23633569244E+03  0.00000000000E+00 0.  1.
</event>
<event>
12    1  0.8500177E-002  0.1795109E+03  0.7818608E-02  0.1168489E+00
         21   -1    0    0  501  502  0.00000000000E+00  0.00000000000E+00  0.29166862054E+03  0.29166862054E+03  0.00000000000E+00 0. -1.
         21   -1    0    0  502  503 -0.00000000000E+00 -0.00000000000E+00 -0.13842298841E+03  0.13842298841E+03  0.00000000000E+00 0. -1.
         -6    2    1    2    0  503 -0.47108446155E+02 -0.14700463931E+02 -0.20766397299E+02  0.18070810538E+03  0.17259451542E+03 0.  0.
        -24    2    3    3    0    0 -0.59572947756E+02  0.24406520768E+02 -0.62978088479E+02  0.12164342113E+03  0.81769602643E+02 0.  0.
          6    2    1    2  501    0  0.47108446155E+02  0.14700463931E+02  0.17401202942E+03  0.24938350357E+03  0.17168761205E+03 0.  0.
         24    2    5    5    0    0  0.27325631490E+02 -0.45220227894E+02  0.13117145564E+03  0.17296849309E+03  0.99602157009E+02 0.  0.
          5    1    5    5  501    0  0.19782814665E+02  0.59920691825E+02  0.42840573784E+02  0.76415010482E+02  0.47000000000E+01 0. -1.
        -11    1    6    6    0    0 -0.65368402024E+01 -0.39405264201E+00 -0.15003131756E+02  0.16370080018E+02  0.00000000000E+00 0.  1.
         12    1    6    6    0    0  0.33862471693E+02 -0.44826175252E+02  0.14617458739E+03  0.15659841307E+03  0.00000000000E+00 0. -1.
         -5    1    3    3    0  503  0.12464501600E+02 -0.39106984699E+02  0.42211691179E+02  0.59064684242E+02  0.47000000000E+01 0.  1.
         11    1    4    4    0    0 -0.45536675798E+02  0.86132994722E+01  0.84917686302E+01  0.47115686400E+02  0.00000000000E+00 0. -1.
        -12    1    4    4    0    0 -0.14036271958E+02  0.15793221296E+02 -0.71469857109E+02  0.74527734734E+02  0.00000000000E+00 0.  1.
</event>
<event>
12    1  0.8500177E-002  0.2357067E+03  0.7818608E-02  0.1122756E+00
         21   -1    0    0  503  502  0.00000000000E+00  0.00000000000E+00  0.25827262887E+03  0.25827262887E+03  0.00000000000E+00 0. -1.
         21   -1    0    0  501  503 -0.00000000000E+00 -0.00000000000E+00 -0.21623304070E+03  0.21623304070E+03  0.00000000000E+00 0. -1.
          6    2    1    2  501    0  0.14811102612E+03 -0.59465922212E+02  0.40714358526E+02  0.23879526857E+03  0.17289432998E+03 0.  0.
         24    2    3    3    0    0  0.21754411670E+02  0.13978981625E+02  0.40161167919E+02  0.92567555961E+02  0.79291655637E+02 0.  0.
         -6    2    1    2    0  502 -0.14811102612E+03  0.59465922212E+02  0.13252296431E+01  0.23571040100E+03  0.17344902693E+03 0.  0.
        -24    2    5    5    0    0 -0.14577075919E+03  0.74090945828E+02  0.46600602081E+02  0.18784269253E+03  0.79841583986E+02 0.  0.
          5    1    3    3  501    0  0.12635661445E+03 -0.73444903837E+02  0.55319060742E+00  0.14622771261E+03  0.47000000000E+01 0. -1.
        -11    1    4    4    0    0 -0.16391016511E+02 -0.21889344234E+02  0.13278446319E+01  0.27378312304E+02  0.00000000000E+00 0.  1.
         12    1    4    4    0    0  0.38145428181E+02  0.35868325859E+02  0.38833323287E+02  0.65189243657E+02  0.00000000000E+00 0. -1.
         -5    1    5    5    0  502 -0.23402669352E+01 -0.14625023615E+02 -0.45275372438E+02  0.47867708473E+02  0.47000000000E+01 0.  1.
         11    1    6    6    0    0 -0.80123277515E+02  0.75660913178E+02  0.54249535958E+01  0.11033468858E+03  0.00000000000E+00 0. -1.
        -12    1    6    6    0    0 -0.65647481674E+02 -0.15699673504E+01  0.41175648485E+02  0.77508003946E+02  0.00000000000E+00 0.  1.
</event>
<event>
12    1  0.8500177E-002  0.1740576E+03  0.7818608E-02  0.1173765E+00
         21   -1    0    0  503  502  0.00000000000E+00  0.00000000000E+00  0.33508746486E+03  0.33508746486E+03  0.00000000000E+00 0.  1.
         21   -1    0    0  501  503 -0.00000000000E+00 -0.00000000000E+00 -0.90246514802E+02  0.90246514802E+02  0.00000000000E+00 0.  1.
          6    2    1    2  501    0 -0.16584615341E+02  0.15540853148E+02  0.12427203125E+03  0.21386816458E+03  0.17256733899E+03 0.  0.
         24    2    3    3    0    0 -0.18346843484E+02  0.73912055059E+02  0.82231299038E+02  0.14175841610E+03  0.86797830878E+02 0.  0.
         -6    2    1    2    0  502  0.16584615341E+02 -0.15540853148E+02  0.12056891881E+03  0.21146581509E+03  0.17223344386E+03 0.  0.
        -24    2    5    5    0    0 -0.15269845928E+02 -0.26400006573E+02 -0.20699650699E+01  0.84206183798E+02  0.78461889429E+02 0.  0.
          5    1    3    3  501    0  0.17622281427E+01 -0.58371201911E+02  0.42040732208E+02  0.72109748475E+02  0.47000000000E+01 0. -1.
        -13    1    4    4    0    0  0.23982686403E+02  0.30151055998E+02  0.69640149225E+02  0.79586467499E+02  0.00000000000E+00 0.  1.
         14    1    4    4    0    0 -0.42329529887E+02  0.43760999061E+02  0.12591149813E+02  0.62171948601E+02  0.00000000000E+00 0. -1.
         -5    1    5    5    0  502  0.31854461269E+02  0.10859153426E+02  0.12263888388E+03  0.12725963129E+03  0.47000000000E+01 0.  1.
         13    1    6    6    0    0  0.10557008732E+02 -0.24735103272E+02  0.31756796861E+02  0.41614539696E+02  0.00000000000E+00 0. -1.
        -14    1    6    6    0    0 -0.25826854660E+02 -0.16649033011E+01 -0.33826761931E+02  0.42591644102E+02  0.00000000000E+00 0.  1.
</event>
<event>
12    1  0.8500177E-002  0.2243912E+03  0.7818608E-02  0.1130858E+00
         21   -1    0    0  503  502  0.00000000000E+00  0.00000000000E+00  0.47316001197E+02  0.47316001197E+02  0.00000000000E+00 0.  1.
         21   -1    0    0  501  503 -0.00000000000E+00 -0.00000000000E+00 -0.10907717580E+04  0.10907717580E+04  0.00000000000E+00 0. -1.
          6    2    1    2  501    0  0.14030087818E+03  0.28219889910E+02 -0.62047902190E+03  0.65980724850E+03  0.17283139169E+03 0.  0.
         24    2    3    3    0    0  0.15180043609E+03  0.48716641683E+02 -0.39964751367E+03  0.43767890341E+03  0.80174832308E+02 0.  0.
         -6    2    1    2    0  502 -0.14030087818E+03 -0.28219889910E+02 -0.42297673491E+03  0.47828051070E+03  0.17135410715E+03 0.  0.
        -24    2    5    5    0    0 -0.11667739563E+03  0.26051776370E+02 -0.37586019060E+03  0.40248116086E+03  0.80174137144E+02 0.  0.
          5    1    3    3  501    0 -0.11499557910E+02 -0.20496751773E+02 -0.22083150823E+03  0.22212834509E+03  0.47000000000E+01 0. -1.
        -11    1    4    4    0    0  0.87576282630E+02  0.60150868086E+02 -0.30290626731E+03  0.32099834733E+03  0.00000000000E+00 0.  1.
         12    1    4    4    0    0  0.64224153460E+02 -0.11434226403E+02 -0.96741246358E+02  0.11668055608E+03  0.00000000000E+00 0. -1.
         -5    1    5    5    0  502 -0.23623482548E+02 -0.54271666281E+02 -0.47116544311E+02  0.75799349841E+02  0.47000000000E+01 0.  1.
         13    1    6    6    0    0 -0.12483039989E+03  0.12179249082E+02 -0.30430426284E+03  0.32913834056E+03  0.00000000000E+00 0. -1.
        -14    1    6    6    0    0  0.81530042602E+01  0.13872527288E+02 -0.71555927756E+02  0.73342820295E+02  0.00000000000E+00 0.  1.
</event>
<event>
12    1  0.8500177E-002  0.2088932E+03  0.7818608E-02  0.1142489E+00
         21   -1    0    0  501  502  0.00000000000E+00  0.00000000000E+00  0.82891370529E+02  0.82891370529E+02  0.00000000000E+00 0. -1.
         21   -1    0    0  502  503 -0.00000000000E+00 -0.00000000000E+00 -0.53888626569E+03  0.53888626569E+03  0.00000000000E+00 0. -1.
         -6    2    1    2    0  503 -0.11780618751E+03  0.22222391313E+01 -0.27617335669E+03  0.34614714470E+03  0.17222916906E+03 0.  0.
        -24    2    3    3    0    0 -0.14643858389E+03  0.21215377907E+02 -0.25464364576E+03  0.30532837578E+03  0.80546133472E+02 0.  0.
          6    2    1    2  501    0  0.11780618751E+03 -0.22222391313E+01 -0.17982153847E+03  0.27563049152E+03  0.17249100265E+03 0.  0.
         24    2    5    5    0    0  0.10388523275E+03 -0.60989784515E+02 -0.14860825125E+03  0.20748522998E+03  0.80335626721E+02 0.  0.
          5    1    5    5  501    0  0.13920954759E+02  0.58767545383E+02 -0.31213287225E+02  0.68145261546E+02  0.47000000000E+01 0. -1.
        -13    1    6    6    0    0  0.10319732939E+02 -0.43559700606E+02 -0.74274903068E+02  0.86722001998E+02  0.00000000000E+00 0.  1.
         14    1    6    6    0    0  0.93565499811E+02 -0.17430083909E+02 -0.74333348179E+02  0.12076322798E+03  0.00000000000E+00 0. -1.
         -5    1    3    3    0  503  0.28632396386E+02 -0.18993138776E+02 -0.21529710933E+02  0.40818768921E+02  0.47000000000E+01 0.  1.
         13    1    4    4    0    0 -0.47868914117E+02 -0.30879856978E+02 -0.88068469313E+02  0.10488590846E+03  0.00000000000E+00 0. -1.
        -14    1    4    4    0    0 -0.98569669778E+02  0.52095234886E+02 -0.16657517644E+03  0.20044246732E+03  0.00000000000E+00 0.  1.
</event>
<event>
12    1  0.8500177E-002  0.2819039E+03  0.7818608E-02  0.1094676E+00
         21   -1    0    0  503  502  0.00000000000E+00  0.00000000000E+00  0.62781073681E+03  0.62781073681E+03  0.00000000000E+00 0. -1.
         21   -1    0    0  501  503 -0.00000000000E+00 -0.00000000000E+00 -0.20006053694E+03  0.20006053694E+03  0.00000000000E+00 0.  1.
          6    2    1    2  501    0  0.21927057431E+03 -0.41608906269E+02 -0.37072687975E+02  0.28433109904E+03  0.17221760609E+03 0.  0.
         24    2    3    3    0    0  0.92625134826E+02  0.11787191157E+02 -0.71946798578E+02  0.14245613947E+03  0.79994102091E+02 0.  0.
         -6    2    1    2    0  502 -0.21927057431E+03  0.41608906269E+02  0.46482288785E+03  0.54354017470E+03  0.17194394031E+03 0.  0.
        -24    2    5    5    0    0 -0.13221267406E+03 -0.17672850744E+02  0.37200280481E+03  0.40307287415E+03  0.79304062001E+02 0.  0.
          5    1    3    3  501    0  0.12664543949E+03 -0.53396097426E+02  0.34874110603E+02  0.14187495957E+03  0.47000000000E+01 0. -1.
        -11    1    4    4    0    0  0.51101464262E+02 -0.19738473582E+02 -0.71811328885E+02  0.90320728215E+02  0.00000000000E+00 0.  1.
         12    1    4    4    0    0  0.41523670564E+02  0.31525664739E+02 -0.13546969330E+00  0.52135411252E+02  0.00000000000E+00 0. -1.
         -5    1    5    5    0  502 -0.87057900256E+02  0.59281757013E+02  0.92820083036E+02  0.14046730056E+03  0.47000000000E+01 0.  1.
         13    1    6    6    0    0 -0.60943981830E+02  0.14200898859E+02  0.25390249140E+03  0.26150011393E+03  0.00000000000E+00 0. -1.
        -14    1    6    6    0    0 -0.71268692226E+02 -0.31873749603E+02  0.11810031341E+03  0.14157276021E+03  0.00000000000E+00 0.  1.
</event>
<event>
12    1  0.8500177E-002  0.1929047E+03  0.7818608E-02  0.1156165E+00
         21   -1    0    0  503  502  0.00000000000E+00  0.00000000000E+00  0.73527495918E+02  0.73527495918E+02  0.00000000000E+00 0.  1.
         21   -1    0    0  501  503 -0.00000000000E+00 -0.00000000000E+00 -0.10716409817E+04  0.10716409817E+04  0.00000000000E+00 0.  1.
          6    2    1    2  501    0 -0.82667888632E+02 -0.91892857450E+01 -0.91711776506E+03  0.93718580499E+03  0.17405118584E+03 0.  0.
         24    2    3    3    0    0 -0.68915118922E+01  0.22723797147E+02 -0.69893125777E+03  0.70397357097E+03  0.80684705123E+02 0.  0.
         -6    2    1    2    0  502  0.82667888632E+02  0.91892857450E+01 -0.80995720706E+02  0.20798267262E+03  0.17256321321E+03 0.  0.
        -24    2    5    5    0    0  0.40358833043E+02 -0.38632686958E+02 -0.10065924125E+03  0.14100699570E+03  0.81420943747E+02 0.  0.
          5    1    3    3  501    0 -0.75776376740E+02 -0.31913082892E+02 -0.21818650730E+03  0.23321223402E+03  0.47000000000E+01 0. -1.
        -11    1    4    4    0    0 -0.21818148331E+02  0.40256544972E+02 -0.62167182651E+03  0.62335582206E+03  0.00000000000E+00 0.  1.
         12    1    4    4    0    0  0.14926636439E+02 -0.17532747825E+02 -0.77259431255E+02  0.80617748911E+02  0.00000000000E+00 0. -1.
         -5    1    5    5    0  502  0.42309055589E+02  0.47821972703E+02  0.19663520547E+02  0.66975676916E+02  0.47000000000E+01 0.  1.
         13    1    6    6    0    0  0.44415716209E+02 -0.39859841980E+02 -0.11309155521E+03  0.12787205601E+03  0.00000000000E+00 0. -1.
        -14    1    6    6    0    0 -0.40568831660E+01  0.12271550215E+01  0.12432313953E+02  0.13134939692E+02  0.00000000000E+00 0.  1.
</event>
<event>
12    1  0.8500177E-002  0.1790377E+03  0.7818608E-02  0.1169087E+00
         21   -1    0    0  501  502  0.00000000000E+00  0.00000000000E+00  0.15058461506E+03  0.15058461506E+03  0.00000000000E+00 0. -1.
         21   -1    0    0  502  503 -0.00000000000E+00 -0.00000000000E+00 -0.47662832333E+03  0.47662832333E+03  0.00000000000E+00 0.  1.
         -6    2    1    2    0  503 -0.34814930320E+02  0.29262298071E+02 -0.39677187477E+03  0.43471109803E+03  0.17169000169E+03 0.  0.
        -24    2    3    3    0    0  0.31336365750E+02  0.57127485858E+02 -0.24070605784E+03  0.26286496954E+03  0.83144864376E+02 0.  0.
          6    2    1    2  501    0  0.34814930320E+02 -0.29262298071E+02  0.70728166501E+02  0.19250184036E+03  0.17316501824E+03 0.  0.
         24    2    5    5    0    0  0.12886723494E+01  0.42918958523E+01 -0.27612324802E+02  0.83218556488E+02  0.78376058950E+02 0.  0.
          5    1    5    5  501    0  0.33526257971E+02 -0.33554193924E+02  0.98340491303E+02  0.10928328387E+03  0.47000000000E+01 0. -1.
        -11    1    6    6    0    0 -0.34804051561E+02 -0.14358687366E+02 -0.10119290834E+02  0.38985817356E+02  0.00000000000E+00 0.  1.
         12    1    6    6    0    0  0.36092723911E+02  0.18650583219E+02 -0.17493033968E+02  0.44232739131E+02  0.00000000000E+00 0. -1.
         -5    1    3    3    0  503 -0.66151296070E+02 -0.27865187787E+02 -0.15606581693E+03  0.17184612849E+03  0.47000000000E+01 0.  1.
         13    1    4    4    0    0  0.77745489658E+01  0.12783629787E+02  0.19310689569E+01  0.15086213225E+02  0.00000000000E+00 0. -1.
        -14    1    4    4    0    0  0.23561816784E+02  0.44343856071E+02 -0.24263712679E+03  0.24777875631E+03  0.00000000000E+00 0.  1.
</event>
<event>
12    1  0.8500177E-002  0.4087917E+03  0.7818608E-02  0.1041161E+00
         21   -1    0    0  503  502  0.00000000000E+00  0.00000000000E+00  0.38841227571E+03  0.38841227571E+03  0.00000000000E+00 0. -1.
         21   -1    0    0  501  503 -0.00000000000E+00 -0.00000000000E+00 -0.42561479241E+03  0.42561479241E+03  0.00000000000E+00 0.  1.
          6    2    1    2  501    0  0.35973947752E+03 -0.67106802430E+02 -0.25650430972E+02  0.40507218290E+03  0.17178391698E+03 0.  0.
         24    2    3    3    0    0  0.35682506370E+03 -0.32291164904E+02 -0.17171854634E+02  0.36881478805E+03  0.85805768315E+02 0.  0.
         -6    2    1    2    0  502 -0.35973947752E+03  0.67106802430E+02 -0.11552085730E+02  0.40895488523E+03  0.18219449182E+03 0.  0.
        -24    2    5    5    0    0 -0.24581308817E+03  0.10613858715E+03  0.31254560408E+02  0.28105961025E+03  0.79549877234E+02 0.  0.
          5    1    3    3  501    0  0.29144138117E+01 -0.34815637526E+02 -0.84785763384E+01  0.36257394845E+02  0.47000000000E+01 0. -1.
        -13    1    4    4    0    0  0.17460225007E+03 -0.26494071887E+02 -0.50056033368E+02  0.18355786023E+03  0.00000000000E+00 0.  1.
         14    1    4    4    0    0  0.18222281363E+03 -0.57970930173E+01  0.32884178734E+02  0.18525692782E+03  0.00000000000E+00 0. -1.
         -5    1    5    5    0  502 -0.11392638934E+03 -0.39031784721E+02 -0.42806646139E+02  0.12789527498E+03  0.47000000000E+01 0.  1.
         11    1    6    6    0    0 -0.14170311971E+03  0.20114704394E+02  0.33934018010E+01  0.14316385942E+03  0.00000000000E+00 0. -1.
        -12    1    6    6    0    0 -0.10410996846E+03  0.86023882757E+02  0.27861158607E+02  0.13789575083E+03  0.00000000000E+00 0.  1.
</event>
<event>
12    1  0.8500177E-002  0.2159189E+03  0.7818608E-02  0.1137122E+00
         21   -1    0    0  503  502  0.00000000000E+00  0.00000000000E+00  0.76855394250E+02  0.76855394250E+02  0.00000000000E+00 0. -1.
         21   -1    0    0  501  503 -0.00000000000E+00 -0.00000000000E+00 -0.60436944245E+03  0.60436944245E+03  0.00000000000E+00 0. -1.
          6    2    1    2  501    0 -0.11048587566E+03 -0.67901599170E+02 -0.26756184247E+03  0.34329565256E+03  0.17159489979E+03 0.  0.
         24    2    3    3    0    0 -0.14427348095E+03 -0.47708562782E+02 -0.18781605094E+03  0.25424037616E+03  0.79198204584E+02 0.  0.
         -6    2    1    2    0  502  0.11048587566E+03  0.67901599170E+02 -0.25995220574E+03  0.33792918414E+03  0.17263611539E+03 0.  0.
        -24    2    5    5    0    0  0.11824673657E+03  0.98770126760E+02 -0.25031505346E+03  0.30434255493E+03  0.78923609303E+02 0.  0.
          5    1    3    3  501    0  0.33787605290E+02 -0.20193036388E+02 -0.79745791524E+02  0.89055276405E+02  0.47000000000E+01 0. -1.
        -13    1    4    4    0    0 -0.16898302400E+01 -0.24516935001E+02 -0.14189910906E+02  0.28377617934E+02  0.00000000000E+00 0.  1.
         14    1    4    4    0    0 -0.14258365071E+03 -0.23191627781E+02 -0.17362614004E+03  0.22586275822E+03  0.00000000000E+00 0. -1.
         -5    1    5    5    0  502 -0.77608609175E+01 -0.30868527589E+02 -0.96371522825E+01  0.33586629212E+02  0.47000000000E+01 0.  1.
         11    1    6    6    0    0  0.48828187281E+02  0.10741201152E+02 -0.33267449894E+02  0.60052381283E+02  0.00000000000E+00 0. -1.
        -12    1    6    6    0    0  0.69418549293E+02  0.88028925607E+02 -0.21704760356E+03  0.24429017365E+03  0.00000000000E+00 0.  1.
</event>
<event>
12    1  0.8500177E-002  0.1932985E+03  0.7818608E-02  0.1155816E+00
         21   -1    0    0  501  502  0.00000000000E+00  0.00000000000E+00  0.82400126528E+03  0.82400126528E+03  0.00000000000E+00 0.  1.
         21   -1    0    0  502  503 -0.00000000000E+00 -0.00000000000E+00 -0.75438621255E+02  0.75438621255E+02  0.00000000000E+00 0. -1.
         -6    2    1    2    0  503  0.94589955462E+01  0.86963347114E+02  0.65902133198E+03  0.68640949247E+03  0.17087064995E+03 0.  0.
        -24    2    3    3    0    0 -0.57576413467E+01 -0.22516584733E+02  0.17022757156E+03  0.18525200052E+03  0.69287304430E+02 0.  0.
          6    2    1    2  501    0 -0.94589955462E+01 -0.86963347114E+02  0.89541312045E+02  0.21303039406E+03  0.17237228865E+03 0.  0.
         24    2    5    5    0    0 -0.11543909537E+02  0.20296970635E+02  0.55995320408E+02  0.10052907769E+03  0.80158534729E+02 0.  0.
          5    1    5    5  501    0  0.20849139903E+01 -0.10726031775E+03  0.33545991637E+02  0.11250131637E+03  0.47000000000E+01 0. -1.
        -13    1    6    6    0    0  0.25435982181E+02  0.13975190663E+02  0.55931212227E+02  0.63012662575E+02  0.00000000000E+00 0.  1.
         14    1    6    6    0    0 -0.36979891718E+02  0.63217799715E+01  0.64108180582E-01  0.37516415118E+02  0.00000000000E+00 0. -1.
         -5    1    3    3    0  503  0.15216636893E+02  0.10947993185E+03  0.48879376042E+03  0.50115749195E+03  0.47000000000E+01 0.  1.
         11    1    4    4    0    0  0.60839085758E+01  0.79462879184E+01 -0.17816481490E+01  0.10165220380E+02  0.00000000000E+00 0. -1.
        -12    1    4    4    0    0 -0.11841549922E+02 -0.30462872652E+02  0.17200921971E+03  0.17508678014E+03  0.00000000000E+00 0.  1.
</event>
<event>
12    1  0.8500177E-002  0.1742024E+03  0.7818608E-02  0.1173651E+00
         21   -1    0    0  501  502  0.00000000000E+00  0.00000000000E+00  0.22467956218E+03  0.22467956218E+03  0.00000000000E+00 0.  1.
         21   -1    0    0  502  503 -0.00000000000E+00 -0.00000000000E+00 -0.18943892732E+03  0.18943892732E+03  0.00000000000E+00 0.  1.
         -6    2    1    2    0  503 -0.20661790389E+02 -0.11996953096E+02 -0.93688994691E+02  0.19739441358E+03  0.17209326053E+03 0.  0.
        -24    2    3    3    0    0 -0.66616930447E+02 -0.18413304663E+02 -0.19093841633E+02  0.10941958010E+03  0.82651101088E+02 0.  0.
          6    2    1    2  501    0  0.20661790389E+02  0.11996953096E+02  0.12892962955E+03  0.21672407592E+03  0.17255619155E+03 0.  0.
         24    2    5    5    0    0 -0.53403180587E+02 -0.46146866530E+01  0.70287140853E+02  0.12068971758E+03  0.82173783720E+02 0.  0.
          5    1    5    5  501    0  0.74064970975E+02  0.16611639749E+02  0.58642488696E+02  0.96034358337E+02  0.47000000000E+01 0. -1.
        -11    1    6    6    0    0 -0.35887492522E+02  0.26915738986E+02  0.71718252848E+02  0.84592416423E+02  0.00000000000E+00 0.  1.
         12    1    6    6    0    0 -0.17515688064E+02 -0.31530425639E+02 -0.14311119952E+01  0.36097301158E+02  0.00000000000E+00 0. -1.
         -5    1    3    3    0  503  0.45955140058E+02  0.64163515676E+01 -0.74595153057E+02  0.87974833474E+02  0.47000000000E+01 0.  1.
         11    1    4    4    0    0 -0.32093024211E+02  0.18037411590E+02 -0.40596776985E+02  0.54803364144E+02  0.00000000000E+00 0. -1.
        -12    1    4    4    0    0 -0.34523906235E+02 -0.36450716253E+02  0.21502935352E+02  0.54616215960E+02  0.00000000000E+00 0.  1.
</event>
<event>
12    1  0.8500177E-002  0.1789858E+03  0.7818608E-02  0.1168807E+00
         21   -1    0    0  503  502  0.00000000000E+00  0.00000000000E+00  0.10451896382E+03  0.10451896382E+03  0.00000000000E+00 0. -1.
         21   -1    0    0  501  503 -0.00000000000E+00 -0.00000000000E+00 -0.38909783752E+03  0.38909783752E+03  0.00000000000E+00 0. -1.
          6    2    1    2  501    0 -0.46722747753E+02 -0.89753029428E+01 -0.25606351267E+03  0.31237376661E+03  0.17246818932E+03 0.  0.
         24    2    3    3    0    0 -0.72257268134E+02  0.18478395169E+02 -0.25209412209E+03  0.27437951267E+03  0.78550026716E+02 0.  0.
         -6    2    1    2    0  502  0.46722747753E+02  0.89753029428E+01 -0.28515361032E+02  0.18124303472E+03  0.17254663312E+03 0.  0.
        -24    2    5    5    0    0  0.95945486666E+02  0.21031784206E+02 -0.18757368553E+02  0.12942078869E+03  0.82158562010E+02 0.  0.
          5    1    3    3  501    0  0.25534520381E+02 -0.27453698111E+02 -0.39693905866E+01  0.37994253943E+02  0.47000000000E+01 0. -1.
        -13    1    4    4    0    0 -0.29518320516E+02  0.19919131816E+02 -0.25533702953E+02  0.43818638100E+02  0.00000000000E+00 0.  1.
         14    1    4    4    0    0 -0.42738947618E+02 -0.14407366473E+01 -0.22656041913E+03  0.23056087457E+03  0.00000000000E+00 0. -1.
         -5    1    5    5    0  502 -0.49222738912E+02 -0.12056481263E+02 -0.97579924791E+01  0.51822246031E+02  0.47000000000E+01 0.  1.
         11    1    6    6    0    0  0.32988920399E+01  0.28387957616E+02 -0.22551695988E+02  0.36405189441E+02  0.00000000000E+00 0. -1.
        -12    1    6    6    0    0  0.92646594626E+02 -0.73561734095E+01  0.37943274346E+01  0.93015599249E+02  0.00000000000E+00 0.  1.
</event>
<event>
12    1  0.8500177E-002  0.2420977E+03  0.7818608E-02  0.1118907E+00
         21   -1    0    0  503  502  0.00000000000E+00  0.00000000000E+00  0.59199431796E+03  0.59199431796E+03  0.00000000000E+00 0. -1.
         21   -1    0    0  501  503 -0.00000000000E+00 -0.00000000000E+00 -0.16710824195E+03  0.16710824195E+03  0.00000000000E+00 0. -1.
          6    2    1    2  501    0  0.15964906187E+03  0.43467265640E+02 -0.32831173185E+02  0.24130300924E+03  0.17254573365E+03 0.  0.
         24    2    3    3    0    0  0.10263026788E+02  0.22028623590E+02 -0.32028799661E+02  0.90311166240E+02  0.80868243234E+02 0.  0.
         -6    2    1    2    0  502 -0.15964906187E+03 -0.43467265640E+02  0.45771724919E+03  0.51779955067E+03  0.17673162797E+03 0.  0.
        -24    2    5    5    0    0 -0.15370865832E+03 -0.31240575701E+02  0.22778234163E+03  0.28741523684E+03  0.78232972563E+02 0.  0.
          5    1    3    3  501    0  0.14938603508E+03  0.21438642050E+02 -0.80237352433E+00  0.15099184300E+03  0.47000000000E+01 0. -1.
        -11    1    4    4    0    0 -0.17781788338E+01  0.51789733538E+02 -0.14884540988E+02  0.53915563434E+02  0.00000000000E+00 0.  1.
         12    1    4    4    0    0  0.12041205622E+02 -0.29761109948E+02 -0.17144258673E+02  0.36395602806E+02  0.00000000000E+00 0. -1.
         -5    1    5    5    0  502 -0.59404035466E+01 -0.12226689939E+02  0.22993490756E+03  0.23038431382E+03  0.47000000000E+01 0.  1.
         11    1    6    6    0    0 -0.13549258206E+03 -0.19224425033E+02  0.22762132535E+03  0.26559233058E+03  0.00000000000E+00 0. -1.
        -12    1    6    6    0    0 -0.18216076265E+02 -0.12016150668E+02  0.16101628237E+00  0.21822906259E+02  0.00000000000E+00 0.  1.
</event>
<event>
12    1  0.8500177E-002  0.1922571E+03  0.7818608E-02  0.1156967E+00
         21   -1    0    0  503  502  0.00000000000E+00  0.00000000000E+00  0.78495959316E+02  0.78495959316E+02  0.00000000000E+00 0.  1.
         21   -1    0    0  501  503 -0.00000000000E+00 -0.00000000000E+00 -0.86953312362E+03  0.86953312362E+03  0.00000000000E+00 0.  1.
          6    2    1    2  501    0  0.64492079547E+02 -0.47053313108E+02 -0.71747012195E+03  0.74217740751E+03  0.17230985385E+03 0.  0.
         24    2    3    3    0    0  0.10674053367E+03 -0.10240247486E+02 -0.51767150197E+03  0.53461606183E+03  0.79574778776E+02 0.  0.
         -6    2    1    2    0  502 -0.64492079547E+02  0.47053313108E+02 -0.73567042353E+02  0.20585167542E+03  0.17489871342E+03 0.  0.
        -24    2    5    5    0    0 -0.32800682611E+02 -0.38045548364E+02 -0.65444389772E+02  0.11455968044E+03  0.79483354854E+02 0.  0.
          5    1    3    3  501    0 -0.42248454122E+02 -0.36813065622E+02 -0.19979861998E+03  0.20756134568E+03  0.47000000000E+01 0. -1.
        -13    1    4    4    0    0  0.74188925886E+02 -0.42249917882E+02 -0.38356105113E+03  0.39294800194E+03  0.00000000000E+00 0.  1.
         14    1    4    4    0    0  0.32551607783E+02  0.32009670396E+02 -0.13411045084E+03  0.14166805989E+03  0.00000000000E+00 0. -1.
         -5    1    5    5    0  502 -0.31691396935E+02  0.85098861471E+02 -0.81226525806E+01  0.91291994985E+02  0.47000000000E+01 0.  1.
         13    1    6    6    0    0 -0.30372679103E+02 -0.60141166951E+02 -0.32467120757E+02  0.74790196740E+02  0.00000000000E+00 0. -1.
        -14    1    6    6    0    0 -0.24280035083E+01  0.22095618587E+02 -0.32977269015E+02  0.39769483696E+02  0.00000000000E+00 0.  1.
</event>
<event>
12    1  0.8500177E-002  0.2093780E+03  0.7818608E-02  0.1142287E+00
         21   -1    0    0  503  502  0.00000000000E+00  0.00000000000E+00  0.26947651328E+03  0.26947651328E+03  0.00000000000E+00 0.  1.
         21   -1    0    0  501  503 -0.00000000000E+00 -0.00000000000E+00 -0.23852098514E+03  0.23852098514E+03  0.00000000000E+00 0.  1.
          6    2    1    2  501    0  0.11715851871E+03 -0.21731673822E+02 -0.12854842299E+03  0.24569058526E+03  0.17216498622E+03 0.  0.
         24    2    3    3    0    0  0.11325123404E+02 -0.28692623083E+02 -0.10873553927E+03  0.13769149851E+03  0.78638452568E+02 0.  0.
         -6    2    1    2    0  502 -0.11715851871E+03  0.21731673822E+02  0.15950395112E+03  0.26230691316E+03  0.17077769794E+03 0.  0.
        -24    2    5    5    0    0 -0.67489540208E+02 -0.54816305070E+02  0.80926954046E+02  0.14179535783E+03  0.77440856608E+02 0.  0.
          5    1    3    3  501    0  0.10583339531E+03  0.69609492603E+01 -0.19812883717E+02  0.10799908675E+03  0.47000000000E+01 0. -1.
        -13    1    4    4    0    0  0.12002378567E+00 -0.44613246534E+02 -0.23822776429E+02  0.50575496526E+02  0.00000000000E+00 0.  1.
         14    1    4    4    0    0  0.11205099618E+02  0.15920623452E+02 -0.84912762842E+02  0.87116001986E+02  0.00000000000E+00 0. -1.
         -5    1    5    5    0  502 -0.49668978506E+02  0.76547978892E+02  0.78576997075E+02  0.12051155533E+03  0.47000000000E+01 0.  1.
         11    1    6    6    0    0 -0.78024989138E+02 -0.25278826534E+02  0.43077927607E+02  0.92642462445E+02  0.00000000000E+00 0. -1.
        -12    1    6    6    0    0  0.10535448930E+02 -0.29537478536E+02  0.37849026439E+02  0.49152895386E+02  0.00000000000E+00 0.  1.
</event>
<event>
12    1  0.8500177E-002  0.2192044E+03  0.7818608E-02  0.1134493E+00
         21   -1    0    0  501  502  0.00000000000E+00  0.00000000000E+00  0.21442342764E+03  0.21442342764E+03  0.00000000000E+00 0. -1.
         21   -1    0    0  502  503 -0.00000000000E+00 -0.00000000000E+00 -0.29707014763E+03  0.29707014763E+03  0.00000000000E+00 0. -1.
         -6    2    1    2    0  503  0.93609278524E+02  0.96684581456E+02 -0.16815956598E+03  0.27627562632E+03  0.17303172180E+03 0.  0.
        -24    2    3    3    0    0  0.59155903814E+02  0.12996608631E+03 -0.15880200281E+03  0.22724147921E+03  0.77653134047E+02 0.  0.
          6    2    1    2  501    0 -0.93609278524E+02 -0.96684581456E+02  0.85512846002E+02  0.23521794895E+03  0.17292897779E+03 0.  0.
         24    2    5    5    0    0 -0.12129610190E+02  0.23176865785E+01  0.66820396006E+02  0.10555730298E+03  0.80776727929E+02 0.  0.
          5    1    5    5  501    0 -0.81479668334E+02 -0.99002268035E+02  0.18692449996E+02  0.12966064597E+03  0.47000000000E+01 0. -1.
        -11    1    6    6    0    0  0.30777470918E+02  0.15262882932E+02  0.16306725943E+02  0.38027853245E+02  0.00000000000E+00 0.  1.
         12    1    6    6    0    0 -0.42907081108E+02 -0.12945196353E+02  0.50513670063E+02  0.67529449731E+02  0.00000000000E+00 0. -1.
         -5    1    3    3    0  503  0.34453374710E+02 -0.33281504858E+02 -0.93575631718E+01  0.49034147113E+02  0.47000000000E+01 0.  1.
         11    1    4    4    0    0  0.54506313214E+02  0.82961067142E+02 -0.55675352244E+02  0.11381222118E+03  0.00000000000E+00 0. -1.
        -12    1    4    4    0    0  0.46495905996E+01  0.47005019172E+02 -0.10312665057E+03  0.11342925803E+03  0.00000000000E+00 0.  1.
</event>
<event>
12    1  0.8500177E-002  0.1929470E+03  0.7818608E-02  0.1156010E+00
         21   -1    0    0  503  502  0.00000000000E+00  0.00000000000E+00  0.78972555228E+03  0.78972555228E+03  0.00000000000E+00 0. -1.
         21   -1    0    0  501  503 -0.00000000000E+00 -0.00000000000E+00 -0.58923957239E+02  0.58923957239E+02  0.00000000000E+00 0.  1.
          6    2    1    2  501    0  0.73410045697E+02 -0.52045053551E+02  0.17467868887E+03  0.26027138599E+03  0.17067755451E+03 0.  0.
         24    2    3    3    0    0  0.55375887138E+02 -0.10031277614E+03  0.11479619195E+03  0.18113222150E+03  0.80632338716E+02 0.  0.
         -6    2    1    2    0  502 -0.73410045697E+02  0.52045053551E+02  0.55612290617E+03  0.58837812352E+03  0.16975985117E+03 0.  0.
        -24    2    5    5    0    0 -0.10756530561E+03  0.47301335899E+02  0.51712200088E+03  0.53610724014E+03  0.78664463306E+02 0.  0.
          5    1    3    3  501    0  0.18034158558E+02  0.48267722589E+02  0.59882496919E+02  0.79139164490E+02  0.47000000000E+01 0. -1.
        -11    1    4    4    0    0 -0.14140439043E+02 -0.52549546330E+02  0.33016783246E+02  0.63651510679E+02  0.00000000000E+00 0.  1.
         12    1    4    4    0    0  0.69516326181E+02 -0.47763229810E+02  0.81779408704E+02  0.11748071082E+03  0.00000000000E+00 0. -1.
         -5    1    5    5    0  502  0.34155259910E+02  0.47437176520E+01  0.39000905291E+02  0.52270883388E+02  0.47000000000E+01 0.  1.
         13    1    6    6    0    0 -0.60178309841E+02  0.54499865692E+02  0.42031308790E+03  0.42808265113E+03  0.00000000000E+00 0. -1.
        -14    1    6    6    0    0 -0.47386995765E+02 -0.71985297933E+01  0.96808912979E+02  0.10802458901E+03  0.00000000000E+00 0.  1.
</event>
<event>
12    1  0.8500177E-002  0.2469251E+03  0.7818608E-02  0.1115332E+00
         21   -1    0    0  503  502  0.00000000000E+00  0.00000000000E+00  0.55184432524E+03  0.55184432524E+03  0.00000000000E+00 0.  1.
         21   -1    0    0  501  503 -0.00000000000E+00 -0.00000000000E+00 -0.34162166995E+03  0.34162166995E+03  0.00000000000E+00 0. -1.
          6    2    1    2  501    0 -0.34943306918E+02  0.17342528253E+03 -0.26246789082E+03  0.36036288249E+03  0.17226331603E+03 0.  0.
         24    2    3    3    0    0 -0.56274584771E+02  0.34000385159E+02 -0.14441765517E+03  0.17637300897E+03  0.76994312046E+02 0.  0.
         -6    2    1    2    0  502  0.34943306918E+02 -0.17342528253E+03  0.47269054611E+03  0.53310311270E+03  0.17165434182E+03 0.  0.
        -24    2    5    5    0    0  0.68477725088E+02 -0.16867480386E+03  0.32307234246E+03  0.37962731293E+03  0.81245122755E+02 0.  0.
          5    1    3    3  501    0  0.21331277853E+02  0.13942489737E+03 -0.11805023565E+03  0.18398987352E+03  0.47000000000E+01 0. -1.
        -11    1    4    4    0    0 -0.47064704491E+02  0.22801677935E+02 -0.28513171836E+02  0.59565123131E+02  0.00000000000E+00 0.  1.
         12    1    4    4    0    0 -0.92098802805E+01  0.11198707224E+02 -0.11590448333E+03  0.11680788584E+03  0.00000000000E+00 0. -1.
         -5    1    5    5    0  502 -0.33534418169E+02 -0.47504786674E+01  0.14961820365E+03  0.15347579977E+03  0.47000000000E+01 0.  1.
         13    1    6    6    0    0 -0.18180101647E+02 -0.35997985587E+02  0.77457616336E+02  0.87327277472E+02  0.00000000000E+00 0. -1.
        -14    1    6    6    0    0  0.86657826734E+02 -0.13267681827E+03  0.24561472612E+03  0.29230003546E+03  0.00000000000E+00 0.  1.
</event>
<event>
12    1  0.8500177E-002  0.2464269E+03  0.7818608E-02  0.1115798E+00
         21   -1    0    0  503  502  0.00000000000E+00  0.00000000000E+00  0.46080188754E+03  0.46080188754E+03  0.00000000000E+00 0.  1.
         21   -1    0    0  501  503 -0.00000000000E+00 -0.00000000000E+00 -0.13107582512E+03  0.13107582512E+03  0.00000000000E+00 0.  1.
          6    2    1    2  501    0  0.29897200035E+02  0.17388773098E+03  0.16551661058E+03  0.29685341493E+03  0.17203318292E+03 0.  0.
         24    2    3    3    0    0  0.84311781168E+02  0.10820800561E+03  0.12411522940E+03  0.20192745785E+03  0.80948496854E+02 0.  0.
         -6    2    1    2    0  502 -0.29897200035E+02 -0.17388773098E+03  0.16420945184E+03  0.29502429773E+03  0.17012879422E+03 0.  0.
        -24    2    5    5    0    0  0.36663737728E+02 -0.81927321683E+02  0.12773379166E+03  0.17569433880E+03  0.80599401058E+02 0.  0.
          5    1    3    3  501    0 -0.54414581133E+02  0.65679725370E+02  0.41401381176E+02  0.94925957082E+02  0.47000000000E+01 0. -1.
        -13    1    4    4    0    0  0.34322510513E+02  0.23362775504E+02 -0.24176595890E+01  0.41589651177E+02  0.00000000000E+00 0.  1.
         14    1    4    4    0    0  0.49989270654E+02  0.84845230106E+02  0.12653288899E+03  0.16033780667E+03  0.00000000000E+00 0. -1.
         -5    1    5    5    0  502 -0.66560937763E+02 -0.91960409297E+02  0.36475660179E+02  0.11932995893E+03  0.47000000000E+01 0.  1.
         11    1    6    6    0    0  0.27273503531E+02 -0.51686799404E+02  0.17503409938E+02  0.61006053691E+02  0.00000000000E+00 0. -1.
        -12    1    6    6    0    0  0.93902341972E+01 -0.30240522279E+02  0.11023038172E+03  0.11468828510E+03  0.00000000000E+00 0.  1.
</event>
<event>
12    1  0.8500177E-002  0.2062600E+03  0.7818608E-02  0.1145130E+00
         21   -1    0    0  501  502  0.00000000000E+00  0.00000000000E+00  0.46031201405E+03  0.46031201405E+03  0.00000000000E+00 0. -1.
         21   -1    0    0  502  503 -0.00000000000E+00 -0.00000000000E+00 -0.97967417103E+02  0.97967417103E+02  0.00000000000E+00 0. -1.
         -6    2    1    2    0  503  0.10717194298E+03  0.26252657305E+02  0.10884942695E+03  0.23321957075E+03  0.17426457775E+03 0.  0.
        -24    2    3    3    0    0  0.56042724539E+02  0.62794771282E+02  0.14711882627E+02  0.11993457473E+03  0.84165862744E+02 0.  0.
          6    2    1    2  501    0 -0.10717194298E+03 -0.26252657305E+02  0.25349516999E+03  0.32505986040E+03  0.17096515509E+03 0.  0.
         24    2    5    5    0    0 -0.16520085028E+01 -0.21131373535E+02  0.48400887741E+02  0.94307961747E+02  0.78115821926E+02 0.  0.
          5    1    5    5  501    0 -0.10551993447E+03 -0.51212837697E+01  0.20509428225E+03  0.23075189865E+03  0.47000000000E+01 0. -1.
        -11    1    6    6    0    0  0.30577089094E+02 -0.25171617902E+02  0.47458080368E+02  0.61812928400E+02  0.00000000000E+00 0.  1.
         12    1    6    6    0    0 -0.32229097597E+02  0.40402443667E+01  0.94280737368E+00  0.32495033347E+02  0.00000000000E+00 0. -1.
         -5    1    3    3    0  503  0.51129218438E+02 -0.36542113977E+02  0.94137544326E+02  0.11328499602E+03  0.47000000000E+01 0.  1.
         11    1    4    4    0    0  0.61268810592E+02  0.74310838689E+01 -0.23611110161E+01  0.61762958187E+02  0.00000000000E+00 0. -1.
        -12    1    4    4    0    0 -0.52260860531E+01  0.55363687413E+02  0.17072993643E+02  0.58171616544E+02  0.00000000000E+00 0.  1.
</event>
<event>
12    1  0.8500177E-002  0.1842844E+03  0.7818608E-02  0.1164125E+00
         21   -1    0    0  503  502  0.00000000000E+00  0.00000000000E+00  0.36373051421E+03  0.36373051421E+03  0.00000000000E+00 0.  1.
         21   -1    0    0  501  503 -0.00000000000E+00 -0.00000000000E+00 -0.96973563623E+02  0.96973563623E+02  0.00000000000E+00 0.  1.
          6    2    1    2  501    0  0.52393704045E+02 -0.36322542544E+02  0.83302201738E+02  0.20067254753E+03  0.17107246183E+03 0.  0.
         24    2    3    3    0    0  0.37724959921E+02  0.10779871688E+02  0.11186310781E+03  0.14347442836E+03  0.80821893505E+02 0.  0.
         -6    2    1    2    0  502 -0.52393704045E+02  0.36322542544E+02  0.18345474884E+03  0.26003153030E+03  0.17290553651E+03 0.  0.
        -24    2    5    5    0    0 -0.28170839066E+02 -0.42684185960E+02  0.12731785583E+03  0.16002027547E+03  0.82347533307E+02 0.  0.
          5    1    3    3  501    0  0.14668744123E+02 -0.47102414232E+02 -0.28560906072E+02  0.57198119167E+02  0.47000000000E+01 0. -1.
        -13    1    4    4    0    0  0.61398460710E+02 -0.41472279052E+01  0.82329469579E+02  0.10278673085E+03  0.00000000000E+00 0.  1.
         14    1    4    4    0    0 -0.23673500789E+02  0.14927099593E+02  0.29533638231E+02  0.40687697514E+02  0.00000000000E+00 0. -1.
         -5    1    5    5    0  502 -0.24222864979E+02  0.79006728503E+02  0.56136893011E+02  0.10001125483E+03  0.47000000000E+01 0.  1.
         13    1    6    6    0    0  0.26975774388E+01 -0.15094253498E+02 -0.88455118132E+01  0.17701878203E+02  0.00000000000E+00 0. -1.
        -14    1    6    6    0    0 -0.30868416504E+02 -0.27589932462E+02  0.13616336765E+03  0.14231839726E+03  0.00000000000E+00 0.  1.
</event>
<event>
12    1  0.8500177E-002  0.1880408E+03  0.7818608E-02  0.1160625E+00
         21   -1    0    0  503  502  0.00000000000E+00  0.00000000000E+00  0.33545558609E+02  0.33545558609E+02  0.00000000000E+00 0.  1.
         21   -1    0    0  501  503 -0.00000000000E+00 -0.00000000000E+00 -0.10533494051E+04  0.10533494051E+04  0.00000000000E+00 0.  1.
          6    2    1    2  501    0  0.46523174496E+02 -0.53590581116E+02 -0.45841352596E+03  0.49484900079E+03  0.17232590244E+03 0.  0.
         24    2    3    3    0    0  0.24464445552E+01  0.16023553405E+02 -0.11092645746E+03  0.13769603830E+03  0.79954866283E+02 0.  0.
         -6    2    1    2    0  502 -0.46523174496E+02  0.53590581116E+02 -0.56139032049E+03  0.59204596288E+03  0.17413493064E+03 0.  0.
        -24    2    5    5    0    0  0.10615028899E+02  0.88849649852E+02 -0.38960251228E+03  0.40754361258E+03  0.79339394139E+02 0.  0.
          5    1    3    3  501    0  0.44076729941E+02 -0.69614134521E+02 -0.34748706850E+03  0.35715296250E+03  0.47000000000E+01 0. -1.
        -11    1    4    4    0    0  0.11355420184E+01 -0.28484883993E+02 -0.75792508211E+02  0.80976430971E+02  0.00000000000E+00 0.  1.
         12    1    4    4    0    0  0.13109025367E+01  0.44508437398E+02 -0.35133949251E+02  0.56719607325E+02  0.00000000000E+00 0. -1.
         -5    1    5    5    0  502 -0.57138203395E+02 -0.35259068736E+02 -0.17178780821E+03  0.18450235030E+03  0.47000000000E+01 0.  1.
         13    1    6    6    0    0 -0.25030293149E+02  0.52176394453E+01 -0.12979715764E+03  0.13229150188E+03  0.00000000000E+00 0. -1.
        -14    1    6    6    0    0  0.35645322048E+02  0.83632010406E+02 -0.25980535463E+03  0.27525211070E+03  0.00000000000E+00 0.  1.
</event>
<event>
12    1  0.8500177E-002  0.1822527E+03  0.7818608E-02  0.1167472E+00
         21   -1    0    0  501  502  0.00000000000E+00  0.00000000000E+00  0.20433254357E+03  0.20433254357E+03  0.00000000000E+00 0.  1.
         21   -1    0    0  502  503 -0.00000000000E+00 -0.00000000000E+00 -0.30785528955E+03  0.30785528955E+03  0.00000000000E+00 0.  1.
         -6    2    1    2    0  503  0.14919073969E+02 -0.55573397652E+02 -0.23220421926E+03  0.29518611396E+03  0.17293079869E+03 0.  0.
        -24    2    3    3    0    0 -0.16836862863E+02  0.34393701618E+02 -0.89183186263E+02  0.12319883433E+03  0.75880863237E+02 0.  0.
          6    2    1    2  501    0 -0.14919073969E+02  0.55573397652E+02  0.12868147328E+03  0.21700171916E+03  0.16498437278E+03 0.  0.
         24    2    5    5    0    0  0.49235517688E+01  0.97903666709E+02  0.98399752263E+02  0.16110311361E+03  0.81623113479E+02 0.  0.
          5    1    5    5  501    0 -0.19842625738E+02 -0.42330269057E+02  0.30281721015E+02  0.55898605548E+02  0.47000000000E+01 0. -1.
        -13    1    6    6    0    0 -0.11423057511E+01  0.95404667768E+02  0.11131955068E+03  0.14661308897E+03  0.00000000000E+00 0.  1.
         14    1    6    6    0    0  0.60658575199E+01  0.24989989407E+01 -0.12919798414E+02  0.14490024645E+02  0.00000000000E+00 0. -1.
         -5    1    3    3    0  503  0.31755936832E+02 -0.89967099270E+02 -0.14302103300E+03  0.17198727963E+03  0.47000000000E+01 0.  1.
         13    1    4    4    0    0  0.14364807541E+02  0.42283158295E+01  0.78466054073E+01  0.16905489252E+02  0.00000000000E+00 0. -1.
        -14    1    4    4    0    0 -0.31201670404E+02  0.30165385788E+02 -0.97029791670E+02  0.10629334508E+03  0.00000000000E+00 0.  1.
</event>
<event>
12    1  0.8500177E-002  0.2115433E+03  0.7818608E-02  0.1140778E+00
         21   -1    0    0  503  502  0.00000000000E+00  0.00000000000E+00  0.16648040367E+03  0.16648040367E+03  0.00000000000E+00 0.  1.
         21   -1    0    0  501  503 -0.00000000000E+00 -0.00000000000E+00 -0.42653244543E+03  0.42653244543E+03  0.00000000000E+00 0.  1.
          6    2    1    2  501    0 -0.67628114983E+02  0.10023648382E+03  0.52267066694E+02  0.21579437416E+03  0.17092235382E+03 0.  0.
         24    2    3    3    0    0 -0.10395527375E+03  0.46160033667E+02  0.12127076642E+02  0.13913125574E+03  0.79202226541E+02 0.  0.
         -6    2    1    2    0  502  0.67628114983E+02 -0.10023648382E+03 -0.31231910845E+03  0.37721847493E+03  0.17357890916E+03 0.  0.
        -24    2    5    5    0    0  0.60203105433E+02 -0.47571137432E+02 -0.30315300440E+03  0.32304397041E+03  0.81044652668E+02 0.  0.
          5    1    3    3  501    0  0.36327158764E+02  0.54076450149E+02  0.40139990051E+02  0.76663118420E+02  0.47000000000E+01 0. -1.
        -13    1    4    4    0    0 -0.91779414218E+02  0.43482776923E+02 -0.21025190840E+02  0.10371244580E+03  0.00000000000E+00 0.  1.
         14    1    4    4    0    0 -0.12175859529E+02  0.26772567445E+01  0.33152267482E+02  0.35418809948E+02  0.00000000000E+00 0. -1.
         -5    1    5    5    0  502  0.74250095494E+01 -0.52665346384E+02 -0.91661040514E+01  0.54174504521E+02  0.47000000000E+01 0.  1.
         13    1    6    6    0    0  0.35866652819E+02 -0.67737572413E+01 -0.34505754573E+02  0.50228952510E+02  0.00000000000E+00 0. -1.
        -14    1    6    6    0    0  0.24336452614E+02 -0.40797380190E+02 -0.26864724982E+03  0.27281501790E+03  0.00000000000E+00 0.  1.
</event>
<event>
12    1  0.8500177E-002  0.1978809E+03  0.7818608E-02  0.1152123E+00
         21   -1    0    0  503  502  0.00000000000E+00  0.00000000000E+00  0.14260581451E+03  0.14260581451E+03  0.00000000000E+00 0. -1.
         21   -1    0    0  501  503 -0.00000000000E+00 -0.00000000000E+00 -0.27236572234E+03  0.27236572234E+03  0.00000000000E+00 0. -1.
          6    2    1    2  501    0 -0.44018823869E+02  0.81261468980E+02 -0.48884839393E+02  0.20120147750E+03  0.17190469403E+03 0.  0.
         24    2    3    3    0    0 -0.14404531723E+02  0.83246013919E+02 -0.92319259656E+02  0.14838496889E+03  0.79736214623E+02 0.  0.
         -6    2    1    2    0  502  0.44018823869E+02 -0.81261468980E+02 -0.80875068439E+02  0.21377005935E+03  0.17497365055E+03 0.  0.
        -24    2    5    5    0    0  0.25341468546E+02  0.26555565537E+02 -0.33892554975E+02  0.94594545487E+02  0.80324558288E+02 0.  0.
          5    1    3    3  501    0 -0.29614292146E+02 -0.19845449386E+01  0.43434420263E+02  0.52816508608E+02  0.47000000000E+01 0. -1.
        -13    1    4    4    0    0  0.11417525598E+02  0.84747123393E+02 -0.86977590167E+02  0.12197350534E+03  0.00000000000E+00 0.  1.
         14    1    4    4    0    0 -0.25822057321E+02 -0.15011094742E+01 -0.53416694881E+01  0.26411463550E+02  0.00000000000E+00 0. -1.
         -5    1    5    5    0  502  0.18677355323E+02 -0.10781703452E+03 -0.46982513464E+02  0.11917551387E+03  0.47000000000E+01 0.  1.
         11    1    6    6    0    0  0.71176249704E+01 -0.23327310265E+02 -0.33559826562E+02  0.41485972910E+02  0.00000000000E+00 0. -1.
        -12    1    6    6    0    0  0.18223843576E+02  0.49882875802E+02 -0.33272841277E+00  0.53108572577E+02  0.00000000000E+00 0.  1.
</event>
<event>
12    1  0.8500177E-002  0.2006551E+03  0.7818608E-02  0.1149222E+00
         21   -1    0    0  503  502  0.00000000000E+00  0.00000000000E+00  0.16216282609E+03  0.16216282609E+03  0.00000000000E+00 0. -1.
         21   -1    0    0  501  503 -0.00000000000E+00 -0.00000000000E+00 -0.33397023093E+03  0.33397023093E+03  0.00000000000E+00 0. -1.
          6    2    1    2  501    0 -0.81486546051E+02  0.63903943469E+02 -0.21167879464E+03  0.29155493679E+03  0.17167585121E+03 0.  0.
         24    2    3    3    0    0 -0.67875322434E+01 -0.21278535102E+02 -0.63079081575E+02  0.10463259451E+03  0.80437321266E+02 0.  0.
         -6    2    1    2    0  502  0.81486546051E+02 -0.63903943469E+02  0.39871389806E+02  0.20457812022E+03  0.17186828785E+03 0.  0.
        -24    2    5    5    0    0  0.32734985149E+02 -0.10347303348E+03  0.34385081911E+02  0.14137513652E+03  0.83823310940E+02 0.  0.
          5    1    3    3  501    0 -0.74699013808E+02  0.85182478571E+02 -0.14859971307E+03  0.18692234228E+03  0.47000000000E+01 0. -1.
        -11    1    4    4    0    0  0.27731807578E+02  0.47748131139E+01 -0.53331394997E+02  0.60299997381E+02  0.00000000000E+00 0.  1.
         12    1    4    4    0    0 -0.34519339822E+02 -0.26053348216E+02 -0.97476865775E+01  0.44332597133E+02  0.00000000000E+00 0. -1.
         -5    1    5    5    0  502  0.48751560902E+02  0.39569090011E+02  0.54863078943E+01  0.63202983703E+02  0.47000000000E+01 0.  1.
         11    1    6    6    0    0  0.65483387171E+01 -0.63305067245E+02  0.59605903671E+02  0.87196766174E+02  0.00000000000E+00 0. -1.
        -12    1    6    6    0    0  0.26186646432E+02 -0.40167966236E+02 -0.25220821759E+02  0.54178370344E+02  0.00000000000E+00 0.  1.
</event>
<event>
12    1  0.8500177E-002  0.2332769E+03  0.7818608E-02  0.1124508E+00
         21   -1    0    0  503  502  0.00000000000E+00  0.00000000000E+00  0.16618445249E+03  0.16618445249E+03  0.00000000000E+00 0.  1.
         21   -1    0    0  501  503 -0.00000000000E+00 -0.00000000000E+00 -0.48958390625E+03  0.48958390625E+03  0.00000000000E+00 0. -1.
          6    2    1    2  501    0 -0.10037156172E+03  0.11983579557E+03 -0.35090149445E+03  0.42087584024E+03  0.17195797682E+03 0.  0.
         24    2    3    3    0    0 -0.10065828974E+02  0.73641313349E+02 -0.27858487288E+03  0.29621293754E+03  0.67883790596E+02 0.  0.
         -6    2    1    2    0  502  0.10037156172E+03 -0.11983579557E+03  0.27502040691E+02  0.23489251849E+03  0.17315618586E+03 0.  0.
        -24    2    5    5    0    0  0.99846635374E+02 -0.79574268185E+02 -0.42036194702E+02  0.15440076540E+03  0.75968019178E+02 0.  0.
          5    1    3    3  501    0 -0.90305732744E+02  0.46194482218E+02 -0.72316621570E+02  0.12466290270E+03  0.47000000000E+01 0. -1.
        -13    1    4    4    0    0  0.23227930513E+02  0.96843193260E+01 -0.11024845125E+03  0.11308423320E+03  0.00000000000E+00 0.  1.
         14    1    4    4    0    0 -0.33293759487E+02  0.63956994023E+02 -0.16833642164E+03  0.18312870434E+03  0.00000000000E+00 0. -1.
         -5    1    5    5    0  502  0.52492634332E+00 -0.40261527382E+02  0.69538235393E+02  0.80491753095E+02  0.47000000000E+01 0.  1.
         11    1    6    6    0    0  0.75483274831E+02 -0.91515851641E+02 -0.45484348241E+02  0.12704999731E+03  0.00000000000E+00 0. -1.
        -12    1    6    6    0    0  0.24363360543E+02  0.11941583455E+02  0.34481535391E+01  0.27350768091E+02  0.00000000000E+00 0.  1.
</event>
<event>
12    1  0.8500177E-002  0.2348514E+03  0.7818608E-02  0.1123668E+00
         21   -1    0    0  501  502  0.00000000000E+00  0.00000000000E+00  0.35416099377E+03  0.35416099377E+03  0.00000000000E+00 0.  1.
         21   -1    0    0  502  503 -0.00000000000E+00 -0.00000000000E+00 -0.19568382112E+03  0.19568382112E+03  0.00000000000E+00 0. -1.
         -6    2    1    2    0  503 -0.76384753868E+02 -0.13948503046E+03 -0.47634710649E+02  0.23737514502E+03  0.16966787989E+03 0.  0.
        -24    2    3    3    0    0 -0.42358256283E+02 -0.11147700389E+03 -0.95481702554E+02  0.17215492787E+03  0.79367621837E+02 0.  0.
          6    2    1    2  501    0  0.76384753868E+02  0.13948503046E+03  0.20611188330E+03  0.31246966987E+03  0.17281343062E+03 0.  0.
         24    2    5    5    0    0  0.45887519031E+02  0.36178909523E+02  0.66998265469E+02  0.13646704312E+03  0.10353699042E+03 0.  0.
          5    1    5    5  501    0  0.30497234837E+02  0.10330612094E+03  0.13911361783E+03  0.17600262674E+03  0.47000000000E+01 0. -1.
        -11    1    6    6    0    0 -0.98989422186E+01 -0.78014882776E+01  0.64145225413E+02  0.65371723395E+02  0.00000000000E+00 0.  1.
         12    1    6    6    0    0  0.55786461250E+02  0.43980397801E+02  0.28530400565E+01  0.71095319727E+02  0.00000000000E+00 0. -1.
         -5    1    3    3    0  503 -0.34026497584E+02 -0.28008026571E+02  0.47846991905E+02  0.65220217146E+02  0.47000000000E+01 0.  1.
         13    1    4    4    0    0 -0.45038075289E+02 -0.12304631195E+03 -0.84043964790E+02  0.15566698792E+03  0.00000000000E+00 0. -1.
        -14    1    4    4    0    0  0.26798190052E+01  0.11569308056E+02 -0.11437737765E+02  0.16487939955E+02  0.00000000000E+00 0.  1.
</event>
<event>
12    1  0.8500177E-002  0.2072493E+03  0.7818608E-02  0.1143895E+00
         21   -1    0    0  501  502  0.00000000000E+00  0.00000000000E+00  0.17803732864E+04  0.17803732864E+04  0.00000000000E+00 0.  1.
         21   -1    0    0  502  503 -0.00000000000E+00 -0.00000000000E+00 -0.24055512026E+02  0.24055512026E+02  0.00000000000E+00 0.  1.
         -6    2    1    2    0  503  0.23240697592E+02  0.11300371570E+03  0.89383689854E+03  0.91754928708E+03  0.17216946083E+03 0.  0.
        -24    2    3    3    0    0  0.24129265547E+02  0.39705031032E+02  0.75365497359E+03  0.75928827226E+03  0.79775624337E+02 0.  0.
          6    2    1    2  501    0 -0.23240697592E+02 -0.11300371570E+03  0.86248087579E+03  0.88687951131E+03  0.17138271990E+03 0.  0.
         24    2    5    5    0    0 -0.33711387011E+01 -0.12902286880E+03  0.47880517551E+03  0.50232711484E+03  0.80124084799E+02 0.  0.
          5    1    5    5  501    0 -0.19869558890E+02  0.16019153097E+02  0.38367570029E+03  0.38455239646E+03  0.47000000000E+01 0. -1.
        -13    1    6    6    0    0 -0.82440991980E-01  0.35674804951E+01  0.11573442209E+03  0.11578942167E+03  0.00000000000E+00 0.  1.
         14    1    6    6    0    0 -0.32886977091E+01 -0.13259034929E+03  0.36307075341E+03  0.38653769317E+03  0.00000000000E+00 0. -1.
         -5    1    3    3    0  503 -0.88856795529E+00  0.73298684668E+02  0.14018192495E+03  0.15826101482E+03  0.47000000000E+01 0.  1.
         11    1    4    4    0    0  0.43239798522E+02  0.52746065346E+02  0.51071308990E+03  0.51524721036E+03  0.00000000000E+00 0. -1.
        -12    1    4    4    0    0 -0.19110532975E+02 -0.13041034314E+02  0.24294188369E+03  0.24404106191E+03  0.00000000000E+00 0.  1.
</event>
<event>
12    1  0.8500177E-002  0.2132967E+03  0.7818608E-02  0.1139030E+00
         21   -1    0    0  501  502  0.00000000000E+00  0.00000000000E+00  0.28544957358E+03  0.28544957358E+03  0.00000000000E+00 0.  1.
         21   -1    0    0  502  503 -0.00000000000E+00 -0.00000000000E+00 -0.59843717019E+03  0.59843717019E+03  0.00000000000E+00 0. -1.
         -6    2    1    2    0  503 -0.12443208769E+03 -0.12186545435E+02 -0.53514321219E+03  0.57608484415E+03  0.17281097699E+03 0.  0.
        -24    2    3    3    0    0 -0.69261154832E+02  0.42738219305E+02 -0.44303431847E+03  0.45539225980E+03  0.66925630289E+02 0.  0.
          6    2    1    2  501    0  0.12443208769E+03  0.12186545435E+02  0.22215561558E+03  0.30780189961E+03  0.17250227690E+03 0.  0.
         24    2    5    5    0    0  0.32544977983E+02  0.35001638809E+02  0.18226871815E+03  0.20495821239E+03  0.80633075713E+02 0.  0.
          5    1    5    5  501    0  0.91887109702E+02 -0.22815093374E+02  0.39886897435E+02  0.10284368723E+03  0.47000000000E+01 0. -1.
        -11    1    6    6    0    0  0.22727939685E+02  0.43647508743E+02  0.43819723637E+02  0.65892582598E+02  0.00000000000E+00 0.  1.
         12    1    6    6    0    0  0.98170382983E+01 -0.86458699339E+01  0.13844899451E+03  0.13906562979E+03  0.00000000000E+00 0. -1.
         -5    1    3    3    0  503 -0.55170932854E+02 -0.54924764741E+02 -0.92108893726E+02  0.12069258435E+03  0.47000000000E+01 0.  1.
         11    1    4    4    0    0 -0.82687707946E+02  0.38870848012E+02 -0.38059220674E+03  0.39140596279E+03  0.00000000000E+00 0. -1.
        -12    1    4    4    0    0  0.13426553115E+02  0.38673712928E+01 -0.62442111723E+02  0.63986297015E+02  0.00000000000E+00 0.  1.
</event>
<event>
12    1  0.8500177E-002  0.2652896E+03  0.7818608E-02  0.1104016E+00
         21   -1    0    0  501  502  0.00000000000E+00  0.00000000000E+00  0.11919620568E+03  0.11919620568E+03  0.00000000000E+00 0.  1.
         21   -1    0    0  502  503 -0.00000000000E+00 -0.00000000000E+00 -0.10142563277E+04  0.10142563277E+04  0.00000000000E+00 0.  1.
         -6    2    1    2    0  503  0.89555995406E+02 -0.18119515760E+03 -0.81390391775E+03  0.85602704106E+03  0.17172869954E+03 0.  0.
        -24    2    3    3    0    0  0.94867426932E+02 -0.18419138614E+03 -0.56268052322E+03  0.60468569418E+03  0.78160873313E+02 0.  0.
          6    2    1    2  501    0 -0.89555995406E+02  0.18119515760E+03 -0.81156204311E+02  0.27742549237E+03  0.17183309597E+03 0.  0.
         24    2    5    5    0    0 -0.10738729461E+02  0.20101002380E+02 -0.34222055757E+02  0.91984416671E+02  0.82283735957E+02 0.  0.
          5    1    5    5  501    0 -0.78817265944E+02  0.16109415522E+03 -0.46934148554E+02  0.18544107570E+03  0.47000000000E+01 0. -1.
        -11    1    6    6    0    0 -0.43022945854E+02  0.14127179318E+02 -0.10259902037E+01  0.45294632368E+02  0.00000000000E+00 0.  1.
         12    1    6    6    0    0  0.32284216393E+02  0.59738230613E+01 -0.33196065554E+02  0.46689784303E+02  0.00000000000E+00 0. -1.
         -5    1    3    3    0  503 -0.53114315258E+01  0.29962285414E+01 -0.25122339453E+03  0.25134134688E+03  0.47000000000E+01 0.  1.
         11    1    4    4    0    0 -0.31262037459E+01 -0.64430677579E+02 -0.12909324288E+03  0.14431268385E+03  0.00000000000E+00 0. -1.
        -12    1    4    4    0    0  0.97993630678E+02 -0.11976070856E+03 -0.43358728034E+03  0.46037301033E+03  0.00000000000E+00 0.  1.
</event>
<event>
12    1  0.8500177E-002  0.2515307E+03  0.7818608E-02  0.1112493E+00
         21   -1    0    0  501  502  0.00000000000E+00  0.00000000000E+00  0.71874978906E+03  0.71874978906E+03  0.00000000000E+00 0. -1.
         21   -1    0    0  502  503 -0.00000000000E+00 -0.00000000000E+00 -0.91006313899E+02  0.91006313899E+02  0.00000000000E+00 0.  1.
         -6    2    1    2    0  503 -0.18153180706E+03  0.23062758753E+02  0.23597947933E+03  0.34419547518E+03  0.17116811226E+03 0.  0.
        -24    2    3    3    0    0 -0.50105627814E+02 -0.12835005655E+02  0.16419643166E+03  0.19012930104E+03  0.80705462246E+02 0.  0.
          6    2    1    2  501    0  0.18153180706E+03 -0.23062758753E+02  0.39176399583E+03  0.46556062778E+03  0.17257456909E+03 0.  0.
         24    2    5    5    0    0  0.14422081199E+03  0.71847241050E+01  0.16505772083E+03  0.23377442091E+03  0.80963978370E+02 0.  0.
          5    1    5    5  501    0  0.37310995066E+02 -0.30247482858E+02  0.22670627500E+03  0.23178620687E+03  0.47000000000E+01 0. -1.
        -13    1    6    6    0    0  0.90870609845E+02 -0.27465070456E+02  0.13051077897E+03  0.16138420386E+03  0.00000000000E+00 0.  1.
         14    1    6    6    0    0  0.53350202147E+02  0.34649794561E+02  0.34546941863E+02  0.72390217049E+02  0.00000000000E+00 0. -1.
         -5    1    3    3    0  503 -0.13142617924E+03  0.35897764407E+02  0.71783047673E+02  0.15406617414E+03  0.47000000000E+01 0.  1.
         11    1    4    4    0    0 -0.27032286722E+02  0.43861652506E+01  0.15841296733E+03  0.16076271704E+03  0.00000000000E+00 0. -1.
        -12    1    4    4    0    0 -0.23073341092E+02 -0.17221170905E+02  0.57834643301E+01  0.29366584005E+02  0.00000000000E+00 0.  1.
</event>
<event>
12    1  0.8500177E-002  0.2505141E+03  0.7818608E-02  0.1112991E+00
         21   -1    0    0  503  502  0.00000000000E+00  0.00000000000E+00  0.10566716280E+03  0.10566716280E+03  0.00000000000E+00 0.  1.
         21   -1    0    0  501  503 -0.00000000000E+00 -0.00000000000E+00 -0.75715713906E+03  0.75715713906E+03  0.00000000000E+00 0. -1.
          6    2    1    2  501    0 -0.18117091270E+03 -0.11997783724E+02 -0.52612432659E+03  0.58269243680E+03  0.17250165930E+03 0.  0.
         24    2    3    3    0    0 -0.13833514674E+03  0.17096443593E+02 -0.21827737807E+03  0.27048543717E+03  0.78028563605E+02 0.  0.
         -6    2    1    2    0  502  0.18117091270E+03  0.11997783724E+02 -0.12536564967E+03  0.28013186506E+03  0.17259915782E+03 0.  0.
        -24    2    5    5    0    0  0.14087346708E+03  0.32714100684E+02 -0.15419977133E+03  0.22621946867E+03  0.80511691199E+02 0.  0.
          5    1    3    3  501    0 -0.42835765955E+02 -0.29094227318E+02 -0.30784694851E+03  0.31220699963E+03  0.47000000000E+01 0. -1.
        -13    1    4    4    0    0 -0.55154167922E+02 -0.23474041944E+02 -0.48433722059E+02  0.77063858695E+02  0.00000000000E+00 0.  1.
         14    1    4    4    0    0 -0.83180978817E+02  0.40570485537E+02 -0.16984365601E+03  0.19342157848E+03  0.00000000000E+00 0. -1.
         -5    1    5    5    0  502  0.40297445620E+02 -0.20716316960E+02  0.28834121657E+02  0.53912396381E+02  0.47000000000E+01 0.  1.
         11    1    6    6    0    0  0.76337574705E+02  0.56758075077E+02 -0.10435320801E+03  0.14120374081E+03  0.00000000000E+00 0. -1.
        -12    1    6    6    0    0  0.64535892370E+02 -0.24043974393E+02 -0.49846563322E+02  0.85015727860E+02  0.00000000000E+00 0.  1.
</event>
<event>
12    1  0.8500177E-002  0.1788835E+03  0.7818608E-02  0.1168963E+00
         21   -1    0    0  501  502  0.00000000000E+00  0.00000000000E+00  0.26995430445E+03  0.26995430445E+03  0.00000000000E+00 0.  1.
         21   -1    0    0  502  503 -0.00000000000E+00 -0.00000000000E+00 -0.31331816001E+03  0.31331816001E+03  0.00000000000E+00 0.  1.
         -6    2    1    2    0  503  0.45521622821E+02  0.42791274281E+01 -0.25174000117E+03  0.30864557503E+03  0.17262251801E+03 0.  0.
        -24    2    3    3    0    0 -0.27654523848E+02  0.18677848749E+02 -0.20584538272E+03  0.22095020674E+03  0.73027649210E+02 0.  0.
          6    2    1    2  501    0 -0.45521622821E+02 -0.42791274281E+01  0.20837614561E+03  0.27462688944E+03  0.17294155448E+03 0.  0.
         24    2    5    5    0    0 -0.36109982392E+02 -0.32687804802E+02  0.22204881726E+03  0.24139040533E+03  0.81186372785E+02 0.  0.
          5    1    5    5  501    0 -0.94116404291E+01  0.28408677373E+02 -0.13672671655E+02  0.33236484108E+02  0.47000000000E+01 0. -1.
        -13    1    6    6    0    0 -0.34805475254E+02  0.19935575297E+02  0.72619463447E+02  0.82960440822E+02  0.00000000000E+00 0.  1.
         14    1    6    6    0    0 -0.13045071384E+01 -0.52623380098E+02  0.14942935382E+03  0.15842996451E+03  0.00000000000E+00 0. -1.
         -5    1    3    3    0  503  0.73176146669E+02 -0.14398721321E+02 -0.45894618451E+02  0.87695368292E+02  0.47000000000E+01 0.  1.
         11    1    4    4    0    0 -0.13165309306E+02 -0.26775336223E+02 -0.52865682741E+02  0.60704401905E+02  0.00000000000E+00 0. -1.
        -12    1    4    4    0    0 -0.14489214542E+02  0.45453184973E+02 -0.15297969998E+03  0.16024580483E+03  0.00000000000E+00 0.  1.
</event>
<event>
12    1  0.8500177E-002  0.1814088E+03  0.7818608E-02  0.1166824E+00
         21   -1    0    0  501  502  0.00000000000E+00  0.00000000000E+00  0.13490080254E+03  0.13490080254E+03  0.00000000000E+00 0. -1.
         21   -1    0    0  502  503 -0.00000000000E+00 -0.00000000000E+00 -0.36249698083E+03  0.36249698083E+03  0.00000000000E+00 0. -1.
         -6    2    1    2    0  503 -0.45430269113E+02  0.28118062754E+02 -0.25694547969E+03  0.31363014089E+03  0.17172172529E+03 0.  0.
        -24    2    3    3    0    0 -0.81060805820E+02  0.60469851402E+02 -0.21140168284E+03  0.24720348354E+03  0.78685663235E+02 0.  0.
          6    2    1    2  501    0  0.45430269113E+02 -0.28118062754E+02  0.29349301402E+02  0.18376764248E+03  0.17336271262E+03 0.  0.
         24    2    5    5    0    0  0.16807709422E+02 -0.33628113802E+02 -0.48663800627E+02  0.10035453995E+03  0.79306488153E+02 0.  0.
          5    1    5    5  501    0  0.28622559691E+02  0.55100510475E+01  0.78013102029E+02  0.83413102532E+02  0.47000000000E+01 0. -1.
        -11    1    6    6    0    0  0.90008945518E+01  0.81848103740E+01  0.17730878374E+02  0.21503285133E+02  0.00000000000E+00 0.  1.
         12    1    6    6    0    0  0.78068148706E+01 -0.41812924176E+02 -0.66394679001E+02  0.78851254817E+02  0.00000000000E+00 0. -1.
         -5    1    3    3    0  503  0.35630536706E+02 -0.32351788647E+02 -0.45543796850E+02  0.66426657346E+02  0.47000000000E+01 0.  1.
         13    1    4    4    0    0  0.14936893651E+02  0.83730195333E+01 -0.16475736121E+02  0.23762746659E+02  0.00000000000E+00 0. -1.
        -14    1    4    4    0    0 -0.95997699471E+02  0.52096831868E+02 -0.19492594672E+03  0.22344073688E+03  0.00000000000E+00 0.  1.
</event>
<event>
12    1  0.8500177E-002  0.1950930E+03  0.7818608E-02  0.1154565E+00
         21   -1    0    0  501  502  0.00000000000E+00  0.00000000000E+00  0.50678686241E+03  0.50678686241E+03  0.00000000000E+00 0. -1.
         21   -1    0    0  502  503 -0.00000000000E+00 -0.00000000000E+00 -0.11552000348E+03  0.11552000348E+03  0.00000000000E+00 0. -1.
         -6    2    1    2    0  503 -0.16177375860E+02  0.84693833624E+02  0.10057779743E+02  0.19535208816E+03  0.17500436130E+03 0.  0.
        -24    2    3    3    0    0 -0.14495843532E+02  0.34160674544E+02  0.72421273867E+02  0.11492993253E+03  0.81160133794E+02 0.  0.
          6    2    1    2  501    0  0.16177375860E+02 -0.84693833624E+02  0.38120907919E+03  0.42695477773E+03  0.17185827657E+03 0.  0.
         24    2    5    5    0    0  0.21716313190E+02 -0.30176723107E+01  0.30050016937E+03  0.31189960280E+03  0.80624474143E+02 0.  0.
          5    1    5    5  501    0 -0.55389373308E+01 -0.81676161313E+02  0.80708909817E+02  0.11505517493E+03  0.47000000000E+01 0. -1.
        -13    1    6    6    0    0 -0.19915487770E+02 -0.24259181565E+02  0.70087125389E+02  0.76794138374E+02  0.00000000000E+00 0.  1.
         14    1    6    6    0    0  0.41631800960E+02  0.21241509254E+02  0.23041304398E+03  0.23510546443E+03  0.00000000000E+00 0. -1.
         -5    1    3    3    0  503 -0.16815323274E+01  0.50533159080E+02 -0.62363494124E+02  0.80422155634E+02  0.47000000000E+01 0.  1.
         13    1    4    4    0    0 -0.10452666094E+02  0.58368311485E+02  0.31324088460E+02  0.67062034952E+02  0.00000000000E+00 0. -1.
        -14    1    4    4    0    0 -0.40431774384E+01 -0.24207636941E+02  0.41097185407E+02  0.47867897576E+02  0.00000000000E+00 0.  1.
</event>
<event>
12    1  0.8500177E-002  0.1744666E+03  0.7818608E-02  0.1173320E+00
         21   -1    0    0  501  502  0.00000000000E+00  0.00000000000E+00  0.64914170634E+02  0.64914170634E+02  0.00000000000E+00 0.  1.
         21   -1    0    0  502  503 -0.00000000000E+00 -0.00000000000E+00 -0.49378550680E+03  0.49378550680E+03  0.00000000000E+00 0.  1.
         -6    2    1    2    0  503  0.26612260494E+02 -0.95786890911E+01 -0.15116005549E+03  0.23084182175E+03  0.17215870759E+03 0.  0.
        -24    2    3    3    0    0 -0.53346692092E+01 -0.70383162259E+02 -0.83067808314E+02  0.13400983116E+03  0.77949508308E+02 0.  0.
          6    2    1    2  501    0 -0.26612260494E+02  0.95786890911E+01 -0.27771128067E+03  0.32785785569E+03  0.17195131412E+03 0.  0.
         24    2    5    5    0    0 -0.19198264333E+02 -0.46713777880E+02 -0.24462654447E+03  0.26197539257E+03  0.78982337615E+02 0.  0.
          5    1    5    5  501    0 -0.74139961612E+01  0.56292466971E+02 -0.33084736204E+02  0.65882463118E+02  0.47000000000E+01 0. -1.
        -13    1    6    6    0    0  0.16249079106E+02 -0.37531041345E+02 -0.20052762487E+03  0.20465566196E+03  0.00000000000E+00 0.  1.
         14    1    6    6    0    0 -0.35447343439E+02 -0.91827365351E+01 -0.44098919596E+02  0.57319730606E+02  0.00000000000E+00 0. -1.
         -5    1    3    3    0  503  0.31946929703E+02  0.60804473168E+02 -0.68092247181E+02  0.96831990586E+02  0.47000000000E+01 0.  1.
         11    1    4    4    0    0 -0.54562990320E+01 -0.69159494662E+02 -0.97424400039E+02  0.11960067150E+03  0.00000000000E+00 0. -1.
        -12    1    4    4    0    0  0.12162982278E+00 -0.12236675970E+01  0.14356591725E+02  0.14409159662E+02  0.00000000000E+00 0.  1.
</event>
<event>
12    1  0.8500177E-002  0.3711061E+03  0.7818608E-02  0.1054417E+00
         21   -1    0    0  503  502  0.00000000000E+00  0.00000000000E+00  0.84692408863E+03  0.84692408863E+03  0.00000000000E+00 0. -1.
         21   -1    0    0  501  503 -0.00000000000E+00 -0.00000000000E+00 -0.25064405196E+03  0.25064405196E+03  0.00000000000E+00 0.  1.
          6    2    1    2  501    0 -0.37921955479E+02  0.32751586269E+03  0.62420950142E+03  0.72541251018E+03  0.16697632539E+03 0.  0.
         24    2    3    3    0    0 -0.10301857345E+02  0.14496361876E+03  0.18240387014E+03  0.24655710673E+03  0.79991599596E+02 0.  0.
         -6    2    1    2    0  502  0.37921955479E+02 -0.32751586269E+03 -0.27929464747E+02  0.37215563041E+03  0.17033802635E+03 0.  0.
        -24    2    5    5    0    0 -0.39439429141E+02 -0.15130758448E+03  0.12375555534E+02  0.17548146891E+03  0.78683784001E+02 0.  0.
          5    1    3    3  501    0 -0.27620098134E+02  0.18255224393E+03  0.44180563128E+03  0.47885540345E+03  0.47000000000E+01 0. -1.
        -13    1    4    4    0    0  0.92527010417E+01  0.14058999879E+03  0.13517017938E+03  0.19524891198E+03  0.00000000000E+00 0.  1.
         14    1    4    4    0    0 -0.19554558387E+02  0.43736199771E+01  0.47233690764E+02  0.51308194751E+02  0.00000000000E+00 0. -1.
         -5    1    5    5    0  502  0.77361384621E+02 -0.17620827821E+03 -0.40305020281E+02  0.19667416150E+03  0.47000000000E+01 0.  1.
         11    1    6    6    0    0  0.19688895798E+02 -0.45160596774E+02  0.21249687132E+02  0.53653343996E+02  0.00000000000E+00 0. -1.
        -12    1    6    6    0    0 -0.59128324939E+02 -0.10614698770E+03 -0.88741315977E+01  0.12182812491E+03  0.00000000000E+00 0.  1.
</event>
<event>
12    1  0.8500177E-002  0.4123595E+03  0.7818608E-02  0.1039845E+00
         21   -1    0    0  501  502  0.00000000000E+00  0.00000000000E+00  0.30532707633E+03  0.30532707633E+03  0.00000000000E+00 0. -1.
         21   -1    0    0  502  503 -0.00000000000E+00 -0.00000000000E+00 -0.55343509794E+03  0.55343509794E+03  0.00000000000E+00 0.  1.
         -6    2    1    2    0  503  0.33040719271E+03 -0.16938282684E+03 -0.10757996518E+03  0.42311499844E+03  0.17202731751E+03 0.  0.
        -24    2    3    3    0    0  0.20257318001E+03 -0.30393927945E+02 -0.65900913497E+02  0.22967590681E+03  0.80301977909E+02 0.  0.
          6    2    1    2  501    0 -0.33040719271E+03  0.16938282684E+03 -0.14052805644E+03  0.43564717583E+03  0.17939027883E+03 0.  0.
         24    2    5    5    0    0 -0.11446907432E+03  0.12770938580E+03 -0.37971322900E+02  0.19294175715E+03  0.79823831597E+02 0.  0.
          5    1    5    5  501    0 -0.21593811839E+03  0.41673441032E+02 -0.10255673354E+03  0.24270541868E+03  0.47000000000E+01 0. -1.
        -13    1    6    6    0    0 -0.71283764005E+02  0.11389506938E+03 -0.54060254757E+02  0.14483084265E+03  0.00000000000E+00 0.  1.
         14    1    6    6    0    0 -0.43185310312E+02  0.13814316425E+02  0.16088931857E+02  0.48110914493E+02  0.00000000000E+00 0. -1.
         -5    1    3    3    0  503  0.12783401270E+03 -0.13898889889E+03 -0.41679051678E+02  0.19343909162E+03  0.47000000000E+01 0.  1.
         13    1    4    4    0    0  0.15272940301E+03 -0.27155340531E+02 -0.84172585677E+02  0.17648996357E+03  0.00000000000E+00 0. -1.
        -14    1    4    4    0    0  0.49843776999E+02 -0.32385874147E+01  0.18271672180E+02  0.53185943239E+02  0.00000000000E+00 0.  1.
</event>
<event>
12    1  0.8500177E-002  0.2526648E+03  0.7818608E-02  0.1111736E+00
         21   -1    0    0  503  502  0.00000000000E+00  0.00000000000E+00  0.52200801804E+03  0.52200801804E+03  0.00000000000E+00 0. -1.
         21   -1    0    0  501  503 -0.00000000000E+00 -0.00000000000E+00 -0.13681970278E+03  0.13681970278E+03  0.00000000000E+00 0. -1.
          6    2    1    2  501    0  0.10253019603E+02 -0.18553176461E+03  0.83862798732E+02  0.26558914126E+03  0.17022767946E+03 0.  0.
         24    2    3    3    0    0 -0.57496499815E+01 -0.35709755134E+02  0.65902480483E+02  0.11377549567E+03  0.85401881674E+02 0.  0.
         -6    2    1    2    0  502 -0.10253019603E+02  0.18553176461E+03  0.30132551653E+03  0.39323857956E+03  0.17120850870E+03 0.  0.
        -24    2    5    5    0    0  0.59296613257E+02  0.10958387196E+03  0.15599063030E+03  0.21505453711E+03  0.79941627775E+02 0.  0.
          5    1    3    3  501    0  0.16002669584E+02 -0.14982200948E+03  0.17960318249E+02  0.15181364560E+03  0.47000000000E+01 0. -1.
        -13    1    4    4    0    0  0.37681292028E+02 -0.15680092726E+02  0.47258679796E+02  0.62442997148E+02  0.00000000000E+00 0.  1.
         14    1    4    4    0    0 -0.43430942009E+02 -0.20029662408E+02  0.18643800687E+02  0.51332498517E+02  0.00000000000E+00 0. -1.
         -5    1    5    5    0  502 -0.69549632860E+02  0.75947892650E+02  0.14533488623E+03  0.17818404245E+03  0.47000000000E+01 0.  1.
         11    1    6    6    0    0  0.38090452173E+02  0.94664594455E+02  0.15902650895E+03  0.18894893103E+03  0.00000000000E+00 0. -1.
        -12    1    6    6    0    0  0.21206161084E+02  0.14919277506E+02 -0.30358786513E+01  0.26105606072E+02  0.00000000000E+00 0.  1.
</event>
<event>
12    1  0.8500177E-002  0.1842701E+03  0.7818608E-02  0.1164564E+00
         21   -1    0    0  501  502  0.00000000000E+00  0.00000000000E+00  0.16305302233E+04  0.16305302233E+04  0.00000000000E+00 0. -1.
         21   -1    0    0  502  503 -0.00000000000E+00 -0.00000000000E+00 -0.50852202552E+02  0.50852202552E+02  0.00000000000E+00 0. -1.
         -6    2    1    2    0  503 -0.33835101369E+02 -0.44009756675E+02  0.14265904849E+03  0.23303877976E+03  0.17570940780E+03 0.  0.
        -24    2    3    3    0    0 -0.23129586426E+02  0.94935801419E+01  0.28747870169E+01  0.82909019697E+02  0.78997058898E+02 0.  0.
          6    2    1    2  501    0  0.33835101369E+02  0.44009756675E+02  0.14370189723E+04  0.14483436461E+04  0.17202940964E+03 0.  0.
         24    2    5    5    0    0  0.10161718687E+02 -0.14578669132E+02  0.12071134568E+04  0.12098658301E+04  0.79602959241E+02 0.  0.
          5    1    5    5  501    0  0.23673382682E+02  0.58588425807E+02  0.22990551547E+03  0.23847781601E+03  0.47000000000E+01 0. -1.
        -13    1    6    6    0    0 -0.28489992256E+02 -0.15100834984E+02  0.26420508982E+03  0.26616544547E+03  0.00000000000E+00 0.  1.
         14    1    6    6    0    0  0.38651710943E+02  0.52216585196E+00  0.94290836698E+03  0.94370038462E+03  0.00000000000E+00 0. -1.
         -5    1    3    3    0  503 -0.10705514943E+02 -0.53503336817E+02  0.13978426148E+03  0.15012976007E+03  0.47000000000E+01 0.  1.
         11    1    4    4    0    0  0.25468805347E+02 -0.42187910429E+01 -0.14374816731E+02  0.29548157298E+02  0.00000000000E+00 0. -1.
        -12    1    4    4    0    0 -0.48598391773E+02  0.13712371185E+02  0.17249603748E+02  0.53360862399E+02  0.00000000000E+00 0.  1.
</event>
<event>
12    1  0.8500177E-002  0.2157056E+03  0.7818608E-02  0.1137203E+00
         21   -1    0    0  501  502  0.00000000000E+00  0.00000000000E+00  0.16425774887E+04  0.16425774887E+04  0.00000000000E+00 0.  1.
         21   -1    0    0  502  503 -0.00000000000E+00 -0.00000000000E+00 -0.29361418252E+02  0.29361418252E+02  0.00000000000E+00 0. -1.
         -6    2    1    2    0  503 -0.67107881134E+02  0.11064137814E+03  0.64495864092E+03  0.67994527617E+03  0.17207250748E+03 0.  0.
        -24    2    3    3    0    0 -0.74731404890E+02  0.11348807655E+03  0.65040232686E+03  0.66908500348E+03  0.78658939072E+02 0.  0.
          6    2    1    2  501    0  0.67107881134E+02 -0.11064137814E+03  0.96825742955E+03  0.99199363079E+03  0.17258021728E+03 0.  0.
         24    2    5    5    0    0  0.10947372904E+03 -0.64950004584E+02  0.61523186387E+03  0.63348044177E+03  0.81143227283E+02 0.  0.
          5    1    5    5  501    0 -0.42365847905E+02 -0.45691373556E+02  0.35302556567E+03  0.35851318903E+03  0.47000000000E+01 0. -1.
        -11    1    6    6    0    0  0.29353765489E+01  0.13205640211E+02  0.12584329275E+03  0.12656832028E+03  0.00000000000E+00 0.  1.
         12    1    6    6    0    0  0.10653835249E+03 -0.78155644795E+02  0.48938857113E+03  0.50691212149E+03  0.00000000000E+00 0. -1.
         -5    1    3    3    0  503  0.76235237559E+01 -0.28466984126E+01 -0.54436859456E+01  0.10860272694E+02  0.47000000000E+01 0.  1.
         11    1    4    4    0    0 -0.39436095024E+01  0.28061334599E+01 -0.67230240432E+00  0.48865561928E+01  0.00000000000E+00 0. -1.
        -12    1    4    4    0    0 -0.70787795387E+02  0.11068194309E+03  0.65107462927E+03  0.66419844728E+03  0.00000000000E+00 0.  1.
</event>
<event>
12    1  0.8500177E-002  0.1957820E+03  0.7818608E-02  0.1153454E+00
         21   -1    0    0  501  502  0.00000000000E+00  0.00000000000E+00  0.49684505750E+03  0.49684505750E+03  0.00000000000E+00 0. -1.
         21   -1    0    0  502  503 -0.00000000000E+00 -0.00000000000E+00 -0.89163773552E+02  0.89163773552E+02  0.00000000000E+00 0. -1.
         -6    2    1    2    0  503  0.53741504332E+01  0.93277177959E+02  0.95193188605E+02  0.21725500716E+03  0.17148901294E+03 0.  0.
        -24    2    3    3    0    0  0.44050957503E+01  0.10262351460E+03  0.86178794615E+01  0.13004453056E+03  0.79286325836E+02 0.  0.
          6    2    1    2  501    0 -0.53741504332E+01 -0.93277177959E+02  0.31248809534E+03  0.36875382389E+03  0.17204958438E+03 0.  0.
         24    2    5    5    0    0 -0.23995204842E+02  0.10232632014E+02  0.96876908282E+02  0.12881362631E+03  0.80791944851E+02 0.  0.
          5    1    5    5  501    0  0.18621054409E+02 -0.10350980997E+03  0.21561118706E+03  0.23994019758E+03  0.47000000000E+01 0. -1.
        -11    1    6    6    0    0 -0.53116016452E+02  0.33971215472E+01  0.48911072578E+02  0.72285162096E+02  0.00000000000E+00 0.  1.
         12    1    6    6    0    0  0.29120811610E+02  0.68355104672E+01  0.47965835703E+02  0.56528464219E+02  0.00000000000E+00 0. -1.
         -5    1    3    3    0  503  0.96905468287E+00 -0.93463366399E+01  0.86575309143E+02  0.87210476600E+02  0.47000000000E+01 0.  1.
         13    1    4    4    0    0  0.41309390985E+02  0.57477659850E+02  0.11270493919E+02  0.71674062244E+02  0.00000000000E+00 0. -1.
        -14    1    4    4    0    0 -0.36904295235E+02  0.45145854749E+02 -0.26526144579E+01  0.58370468315E+02  0.00000000000E+00 0.  1.
</event>
<event>
12    1  0.8500177E-002  0.2018811E+03  0.7818608E-02  0.1148351E+00
         21   -1    0    0  503  502  0.00000000000E+00  0.00000000000E+00  0.41360765581E+03  0.41360765581E+03  0.00000000000E+00 0.  1.
         21   -1    0    0  501  503 -0.00000000000E+00 -0.00000000000E+00 -0.52003509286E+03  0.52003509286E+03  0.00000000000E+00 0. -1.
          6    2    1    2  501    0 -0.39664483349E+02 -0.96526190268E+02 -0.47368514426E+03  0.51455539700E+03  0.17175291568E+03 0.  0.
         24    2    3    3    0    0 -0.23023489501E+02 -0.92478459369E+02 -0.17069988983E+03  0.21105010677E+03  0.79506909517E+02 0.  0.
         -6    2    1    2    0  502  0.39664483349E+02  0.96526190268E+02  0.36725770721E+03  0.41908735167E+03  0.17281611088E+03 0.  0.
        -24    2    5    5    0    0  0.73675228348E+01  0.88493504538E+02  0.12329577589E+03  0.17282096819E+03  0.82339892862E+02 0.  0.
          5    1    3    3  501    0 -0.16640993848E+02 -0.40477308992E+01 -0.30298525442E+03  0.30350529023E+03  0.47000000000E+01 0. -1.
        -13    1    4    4    0    0 -0.26278689756E+01 -0.58083963567E+01 -0.91988613165E+02  0.92209262635E+02  0.00000000000E+00 0.  1.
         14    1    4    4    0    0 -0.20395620526E+02 -0.86670063012E+02 -0.78711276668E+02  0.11884084413E+03  0.00000000000E+00 0. -1.
         -5    1    5    5    0  502  0.32296960515E+02  0.80326857303E+01  0.24396193132E+03  0.24626638348E+03  0.47000000000E+01 0.  1.
         13    1    6    6    0    0 -0.30001169675E+02  0.84640442916E+01  0.20581673430E+02  0.37353922268E+02  0.00000000000E+00 0. -1.
        -14    1    6    6    0    0  0.37368692510E+02  0.80029460247E+02  0.10271410246E+03  0.13546704592E+03  0.00000000000E+00 0.  1.
</event>
<event>
12    1  0.8500177E-002  0.1768206E+03  0.7818608E-02  0.1171160E+00
         21   -1    0    0  503  502  0.00000000000E+00  0.00000000000E+00  0.12412448217E+03  0.12412448217E+03  0.00000000000E+00 0. -1.
         21   -1    0    0  501  503 -0.00000000000E+00 -0.00000000000E+00 -0.26878888426E+03  0.26878888426E+03  0.00000000000E+00 0. -1.
          6    2    1    2  501    0 -0.21034145801E+02  0.34801343843E+02 -0.12340149838E+03  0.21481893634E+03  0.17107213913E+03 0.  0.
         24    2    3    3    0    0 -0.47924031863E+02  0.81895387286E+02 -0.10131553766E+03  0.15607547236E+03  0.71352278242E+02 0.  0.
         -6    2    1    2    0  502  0.21034145801E+02 -0.34801343843E+02 -0.21262903709E+02  0.17809443009E+03  0.17208121958E+03 0.  0.
        -24    2    5    5    0    0  0.37611393219E+02 -0.12293852239E+02  0.49367438521E+02  0.10198840172E+03  0.79992089590E+02 0.  0.
          5    1    3    3  501    0  0.26889886062E+02 -0.47094043443E+02 -0.22085960721E+02  0.58743463987E+02  0.47000000000E+01 0. -1.
        -11    1    4    4    0    0 -0.20730525187E+02 -0.71522822838E+01 -0.36667710653E+02  0.42725060807E+02  0.00000000000E+00 0.  1.
         12    1    4    4    0    0 -0.27193506676E+02  0.89047669570E+02 -0.64647827010E+02  0.11335041155E+03  0.00000000000E+00 0. -1.
         -5    1    5    5    0  502 -0.16577247417E+02 -0.22507491604E+02 -0.70630342229E+02  0.76106028366E+02  0.47000000000E+01 0.  1.
         11    1    6    6    0    0 -0.22025991152E+02 -0.56229704352E+01  0.32486100550E+02  0.39649827385E+02  0.00000000000E+00 0. -1.
        -12    1    6    6    0    0  0.59637384371E+02 -0.66708818037E+01  0.16881337971E+02  0.62338574337E+02  0.00000000000E+00 0.  1.
</event>
<event>
12    1  0.8500177E-002  0.3986344E+03  0.7818608E-02  0.1044303E+00
         21   -1    0    0  501  502  0.00000000000E+00  0.00000000000E+00  0.21045670005E+03  0.21045670005E+03  0.00000000000E+00 0. -1.
         21   -1    0    0  502  503 -0.00000000000E+00 -0.00000000000E+00 -0.75672711385E+03  0.75672711385E+03  0.00000000000E+00 0. -1.
         -6    2    1    2    0  503  0.25310750815E+03  0.25391707026E+03 -0.30237208242E+03  0.50033814652E+03  0.17427591739E+03 0.  0.
        -24    2    3    3    0    0  0.18542878097E+03  0.25890637874E+03 -0.26815401817E+03  0.42419177934E+03  0.81337214367E+02 0.  0.
          6    2    1    2  501    0 -0.25310750815E+03 -0.25391707026E+03 -0.24389833138E+03  0.46684566738E+03  0.17297743161E+03 0.  0.
         24    2    5    5    0    0 -0.16872224184E+03 -0.78489535162E+02 -0.14292532396E+03  0.24749815436E+03  0.78739355846E+02 0.  0.
          5    1    5    5  501    0 -0.84385266311E+02 -0.17542753510E+03 -0.10097300742E+03  0.21934751302E+03  0.47000000000E+01 0. -1.
        -11    1    6    6    0    0 -0.59807228415E+02 -0.12503019323E+02 -0.74258658060E+01  0.61549764791E+02  0.00000000000E+00 0.  1.
         12    1    6    6    0    0 -0.10891501343E+03 -0.65986515839E+02 -0.13549945815E+03  0.18594838957E+03  0.00000000000E+00 0. -1.
         -5    1    3    3    0  503  0.67678727190E+02 -0.49893084794E+01 -0.34218064253E+02  0.76146367178E+02  0.47000000000E+01 0.  1.
         13    1    4    4    0    0  0.13191217696E+03  0.11752377449E+03 -0.15955101264E+03  0.23805290511E+03  0.00000000000E+00 0. -1.
        -14    1    4    4    0    0  0.53516604010E+02  0.14138260425E+03 -0.10860300553E+03  0.18613887423E+03  0.00000000000E+00 0.  1.
</event>
<event>
12    1  0.8500177E-002  0.2464140E+03  0.7818608E-02  0.1116103E+00
         21   -1    0    0  501  502  0.00000000000E+00  0.00000000000E+00  0.41067718896E+02  0.41067718896E+02  0.00000000000E+00 0.  1.
         21   -1    0    0  502  503 -0.00000000000E+00 -0.00000000000E+00 -0.15500723690E+04  0.15500723690E+04  0.00000000000E+00 0. -1.
         -6    2    1    2    0  503  0.17592421377E+03  0.27443752051E+02 -0.95117676980E+03  0.98257676839E+03  0.17034485571E+03 0.  0.
        -24    2    3    3    0    0  0.40260940505E+02 -0.10877082847E+02 -0.55051329200E+03  0.55781057089E+03  0.79677437632E+02 0.  0.
          6    2    1    2  501    0 -0.17592421377E+03 -0.27443752051E+02 -0.55782788033E+03  0.60856331953E+03  0.16575548643E+03 0.  0.
         24    2    5    5    0    0 -0.30158208916E+02 -0.41973364587E+00 -0.28995224860E+03  0.30236490376E+03  0.80265402369E+02 0.  0.
          5    1    5    5  501    0 -0.14576600485E+03 -0.27024018406E+02 -0.26787563173E+03  0.30619841577E+03  0.47000000000E+01 0. -1.
        -13    1    6    6    0    0 -0.47740823376E+02  0.22977501692E+02 -0.14238097409E+03  0.15191936540E+03  0.00000000000E+00 0.  1.
         14    1    6    6    0    0  0.17582614460E+02 -0.23397235338E+02 -0.14757127451E+03  0.15044553836E+03  0.00000000000E+00 0. -1.
         -5    1    3    3    0  503  0.13566327327E+03  0.38320834899E+02 -0.40066347780E+03  0.42476619750E+03  0.47000000000E+01 0.  1.
         13    1    4    4    0    0 -0.18493841913E+02  0.12834408540E+02 -0.22971193140E+03  0.23081229529E+03  0.00000000000E+00 0. -1.
        -14    1    4    4    0    0  0.58754782418E+02 -0.23711491387E+02 -0.32080136060E+03  0.32699827560E+03  0.00000000000E+00 0.  1.
</event>
<event>
12    1  0.8500177E-002  0.2405195E+03  0.7818608E-02  0.1119543E+00
         21   -1    0    0  501  502  0.00000000000E+00  0.00000000000E+00  0.26881592617E+03  0.26881592617E+03  0.00000000000E+00 0. -1.
         21   -1    0    0  502  503 -0.00000000000E+00 -0.00000000000E+00 -0.42890845072E+03  0.42890845072E+03  0.00000000000E+00 0.  1.
         -6    2    1    2    0  503 -0.10379143157E+02  0.16661073544E+03 -0.32664164244E+03  0.40564072704E+03  0.17315534377E+03 0.  0.
        -24    2    3    3    0    0 -0.54170822927E+02  0.17858916477E+03 -0.25830096609E+03  0.32345963413E+03  0.55481330213E+02 0.  0.
          6    2    1    2  501    0  0.10379143157E+02 -0.16661073544E+03  0.16654911789E+03  0.29208364986E+03  0.17235830723E+03 0.  0.
         24    2    5    5    0    0 -0.51895367867E+02 -0.14120779071E+03  0.10156721765E+03  0.19844518723E+03  0.80198648826E+02 0.  0.
          5    1    5    5  501    0  0.62274511024E+02 -0.25402944731E+02  0.64981900243E+02  0.93638462628E+02  0.47000000000E+01 0. -1.
        -11    1    6    6    0    0 -0.11632468928E+02 -0.10255906922E+03  0.29607519889E+02  0.10737915183E+03  0.00000000000E+00 0.  1.
         12    1    6    6    0    0 -0.40262898939E+02 -0.38648721485E+02  0.71959697760E+02  0.91066035409E+02  0.00000000000E+00 0. -1.
         -5    1    3    3    0  503  0.43791679770E+02 -0.11978429330E+02 -0.68340676354E+02  0.82181092904E+02  0.47000000000E+01 0.  1.
         11    1    4    4    0    0  0.79493952329E+01  0.30475562341E+02 -0.24967806427E+02  0.40191344123E+02  0.00000000000E+00 0. -1.
        -12    1    4    4    0    0 -0.62120218160E+02  0.14811360242E+03 -0.23333315966E+03  0.28326829001E+03  0.00000000000E+00 0.  1.
</event>
<event>
12    1  0.8500177E-002  0.2364750E+03  0.7818608E-02  0.1122168E+00
         21   -1    0    0  501  502  0.00000000000E+00  0.00000000000E+00  0.37018093414E+02  0.37018093414E+02  0.00000000000E+00 0.  1.
         21   -1    0    0  502  503 -0.00000000000E+00 -0.00000000000E+00 -0.17662098331E+04  0.17662098331E+04  0.00000000000E+00 0. -1.
         -6    2    1    2    0  503  0.15742475985E+03 -0.40538881843E+02 -0.12077367843E+04  0.12306699750E+04  0.17173960287E+03 0.  0.
        -24    2    3    3    0    0  0.49040584096E+02  0.28533565750E+02 -0.72737518938E+03  0.73338988846E+03  0.74611789316E+02 0.  0.
          6    2    1    2  501    0 -0.15742475985E+03  0.40538881843E+02 -0.52145495533E+03  0.57255795148E+03  0.17170143103E+03 0.  0.
         24    2    5    5    0    0 -0.10371158389E+03  0.69875736184E+01 -0.47785911572E+03  0.49552884798E+03  0.79966154632E+02 0.  0.
          5    1    5    5  501    0 -0.53713175961E+02  0.33551308225E+02 -0.43595839607E+02  0.77029103502E+02  0.47000000000E+01 0. -1.
        -13    1    6    6    0    0 -0.58415072808E+02 -0.11682899283E+02 -0.11634024196E+03  0.13070525149E+03  0.00000000000E+00 0.  1.
         14    1    6    6    0    0 -0.45296511078E+02  0.18670472901E+02 -0.36151887376E+03  0.36482359649E+03  0.00000000000E+00 0. -1.
         -5    1    3    3    0  503  0.10838417575E+03 -0.69072447593E+02 -0.48036159493E+03  0.49728008653E+03  0.47000000000E+01 0.  1.
         13    1    4    4    0    0  0.58349390509E+02  0.36718680829E+02 -0.40871311900E+03  0.41448682311E+03  0.00000000000E+00 0. -1.
        -14    1    4    4    0    0 -0.93088064128E+01 -0.81851150791E+01 -0.31866207038E+03  0.31890306534E+03  0.00000000000E+00 0.  1.
</event>
<event>
12    1  0.8500177E-002  0.1816680E+03  0.7818608E-02  0.1166679E+00
         21   -1    0    0  503  502  0.00000000000E+00  0.00000000000E+00  0.27767691397E+02  0.27767691397E+02  0.00000000000E+00 0.  1.
         21   -1    0    0  501  503 -0.00000000000E+00 -0.00000000000E+00 -0.15566916634E+04  0.15566916634E+04  0.00000000000E+00 0. -1.
          6    2    1    2  501    0 -0.16527506631E+02 -0.56069177540E+02 -0.36924447169E+03  0.41063663005E+03  0.16989423450E+03 0.  0.
         24    2    3    3    0    0 -0.15375058685E+02  0.88172299584E+01 -0.31645067381E+03  0.32684612277E+03  0.79832468618E+02 0.  0.
         -6    2    1    2    0  502  0.16527506631E+02  0.56069177540E+02 -0.11596795003E+04  0.11738227247E+04  0.17200678633E+03 0.  0.
        -24    2    5    5    0    0  0.25723800010E+02 -0.34374235213E+02 -0.56535474850E+03  0.57256688624E+03  0.79771834846E+02 0.  0.
          5    1    3    3  501    0 -0.11524479462E+01 -0.64886407498E+02 -0.52793797884E+02  0.83790507274E+02  0.47000000000E+01 0. -1.
        -13    1    4    4    0    0  0.22010855592E+02 -0.14552930303E+02 -0.47780749974E+02  0.54582649371E+02  0.00000000000E+00 0.  1.
         14    1    4    4    0    0 -0.37385914277E+02  0.23370160261E+02 -0.26866992383E+03  0.27226347340E+03  0.00000000000E+00 0. -1.
         -5    1    5    5    0  502 -0.91962933783E+01  0.90443412753E+02 -0.59432475181E+03  0.60125583850E+03  0.47000000000E+01 0.  1.
         11    1    6    6    0    0 -0.19129544322E+02 -0.41007139168E+02 -0.28108774835E+03  0.28470659845E+03  0.00000000000E+00 0. -1.
        -12    1    6    6    0    0  0.44853344331E+02  0.66329039548E+01 -0.28426700015E+03  0.28786028779E+03  0.00000000000E+00 0.  1.
</event>
<event>
12    1  0.8500177E-002  0.3094758E+03  0.7818608E-02  0.1080826E+00
         21   -1    0    0  501  502  0.00000000000E+00  0.00000000000E+00  0.37909336671E+03  0.37909336671E+03  0.00000000000E+00 0.  1.
         21   -1    0    0  502  503 -0.00000000000E+00 -0.00000000000E+00 -0.32059661171E+03  0.32059661171E+03  0.00000000000E+00 0. -1.
         -6    2    1    2    0  503  0.24458901638E+03  0.73184989712E+02 -0.13370893207E+03  0.33538474038E+03  0.17153721436E+03 0.  0.
        -24    2    3    3    0    0  0.16995581797E+03  0.90002291146E+01 -0.27126686995E+02  0.19022392348E+03  0.80518940195E+02 0.  0.
          6    2    1    2  501    0 -0.24458901638E+03 -0.73184989712E+02  0.19220568707E+03  0.36430523804E+03  0.17491555296E+03 0.  0.
         24    2    5    5    0    0 -0.13398122449E+03  0.13574523356E+02  0.92095235311E+02  0.19166257446E+03  0.10058714572E+03 0.  0.
          5    1    5    5  501    0 -0.11060779189E+03 -0.86759513068E+02  0.10011045176E+03  0.17264266358E+03  0.47000000000E+01 0. -1.
        -11    1    6    6    0    0  0.12527398137E+02  0.14168893223E+02  0.58434113582E+00  0.18921804719E+02  0.00000000000E+00 0.  1.
         12    1    6    6    0    0 -0.14650862263E+03 -0.59436986713E+00  0.91510894176E+02  0.17274076974E+03  0.00000000000E+00 0. -1.
         -5    1    3    3    0  503  0.74633198410E+02  0.64184760598E+02 -0.10658224508E+03  0.14516081690E+03  0.47000000000E+01 0.  1.
         11    1    4    4    0    0  0.13975828930E+03  0.35746940277E+02 -0.36513242199E+02  0.14880672036E+03  0.00000000000E+00 0. -1.
        -12    1    4    4    0    0  0.30197528668E+02 -0.26746711162E+02  0.93865552049E+01  0.41417203120E+02  0.00000000000E+00 0.  1.
</event>
<event>
12    1  0.8500177E-002  0.1846527E+03  0.7818608E-02  0.1163394E+00
         21   -1    0    0  501  502  0.00000000000E+00  0.00000000000E+00  0.10585951639E+03  0.10585951639E+03  0.00000000000E+00 0. -1.
         21   -1    0    0  502  503 -0.00000000000E+00 -0.00000000000E+00 -0.12028908691E+04  0.12028908691E+04  0.00000000000E+00 0. -1.
         -6    2    1    2    0  503  0.69225306264E+02  0.78940517003E+01 -0.11084818704E+04  0.11237429952E+04  0.17091460788E+03 0.  0.
        -24    2    3    3    0    0  0.53315818234E+02 -0.53057809537E+02 -0.40704225011E+03  0.41946473193E+03  0.67893742992E+02 0.  0.
          6    2    1    2  501    0 -0.69225306264E+02 -0.78940517003E+01  0.11450517687E+02  0.18500739029E+03  0.17100339478E+03 0.  0.
         24    2    5    5    0    0 -0.70165976327E+02  0.11111142470E+02  0.65666821467E+02  0.12735689280E+03  0.82830700713E+02 0.  0.
          5    1    5    5  501    0  0.94067006352E+00 -0.19005194171E+02 -0.54216303779E+02  0.57650497493E+02  0.47000000000E+01 0. -1.
        -13    1    6    6    0    0  0.13314744098E+02  0.55781647832E+01 -0.74505363304E+01  0.16245270831E+02  0.00000000000E+00 0.  1.
         14    1    6    6    0    0 -0.83480720426E+02  0.55329776870E+01  0.73117357797E+02  0.11111162197E+03  0.00000000000E+00 0. -1.
         -5    1    3    3    0  503  0.15909488030E+02  0.60951861237E+02 -0.70143962033E+03  0.70427826331E+03  0.47000000000E+01 0.  1.
         13    1    4    4    0    0 -0.76840441655E+01 -0.18322983713E+02 -0.19707954439E+03  0.19807857806E+03  0.00000000000E+00 0. -1.
        -14    1    4    4    0    0  0.60999862399E+02 -0.34734825824E+02 -0.20996270571E+03  0.22138615388E+03  0.00000000000E+00 0.  1.
</event>
<event>
12    1  0.8500177E-002  0.1834149E+03  0.7818608E-02  0.1164893E+00
         21   -1    0    0  503  502  0.00000000000E+00  0.00000000000E+00  0.14173299660E+03  0.14173299660E+03  0.00000000000E+00 0.  1.
         21   -1    0    0  501  503 -0.00000000000E+00 -0.00000000000E+00 -0.31999018744E+03  0.31999018744E+03  0.00000000000E+00 0. -1.
          6    2    1    2  501    0 -0.51247194687E+02  0.30682955494E+02 -0.20754041694E+03  0.27598533411E+03  0.17183469166E+03 0.  0.
         24    2    3    3    0    0  0.30456960013E+02  0.57571970492E+01 -0.55874477471E+02  0.10185460872E+03  0.79319810598E+02 0.  0.
         -6    2    1    2    0  502  0.51247194687E+02 -0.30682955494E+02  0.29283226099E+02  0.18573784994E+03  0.17341661641E+03 0.  0.
        -24    2    5    5    0    0  0.86376157697E+01 -0.12364464915E+02 -0.47913260897E+02  0.95557303713E+02  0.81289786100E+02 0.  0.
          5    1    3    3  501    0 -0.81704154700E+02  0.24925758445E+02 -0.15166593947E+03  0.17413072539E+03  0.47000000000E+01 0. -1.
        -13    1    4    4    0    0  0.14054537669E+02 -0.12148873175E+02  0.16913107698E+02  0.25123263334E+02  0.00000000000E+00 0.  1.
         14    1    4    4    0    0  0.16402422343E+02  0.17906070225E+02 -0.72787585170E+02  0.76731345384E+02  0.00000000000E+00 0. -1.
         -5    1    5    5    0  502  0.42609578918E+02 -0.18318490579E+02  0.77196486996E+02  0.90180546224E+02  0.47000000000E+01 0.  1.
         11    1    6    6    0    0  0.25787351219E+02  0.24459078624E+02 -0.40471801980E+01  0.35771688213E+02  0.00000000000E+00 0. -1.
        -12    1    6    6    0    0 -0.17149735450E+02 -0.36823543539E+02 -0.43866080699E+02  0.59785615500E+02  0.00000000000E+00 0.  1.
</event>
<event>
12    1  0.8500177E-002  0.2307327E+03  0.7818608E-02  0.1126777E+00
         21   -1    0    0  503  502  0.00000000000E+00  0.00000000000E+00  0.15473704818E+03  0.15473704818E+03  0.00000000000E+00 0. -1.
         21   -1    0    0  501  503 -0.00000000000E+00 -0.00000000000E+00 -0.36212610265E+03  0.36212610265E+03  0.00000000000E+00 0.  1.
          6    2    1    2  501    0  0.22718994164E+02  0.15158993859E+03 -0.38568363156E+02  0.23393399782E+03  0.17245850087E+03 0.  0.
         24    2    3    3    0    0  0.19395047656E+02  0.18152626361E+03 -0.25429708393E+02  0.20073841943E+03  0.79506545088E+02 0.  0.
         -6    2    1    2    0  502 -0.22718994164E+02 -0.15158993859E+03 -0.16882069132E+03  0.28292915301E+03  0.16748975380E+03 0.  0.
        -24    2    5    5    0    0 -0.70066998144E+02 -0.65045597923E+02 -0.64076912506E+02  0.13896698582E+03  0.77882336846E+02 0.  0.
          5    1    3    3  501    0  0.33239465084E+01 -0.29936325018E+02 -0.13138654763E+02  0.33195578394E+02  0.47000000000E+01 0. -1.
        -11    1    4    4    0    0 -0.16614028169E+02  0.51327319423E+02 -0.36596938421E+02  0.65190916184E+02  0.00000000000E+00 0.  1.
         12    1    4    4    0    0  0.36009075825E+02  0.13019894419E+03  0.11167230028E+02  0.13554750324E+03  0.00000000000E+00 0. -1.
         -5    1    5    5    0  502  0.47348003979E+02 -0.86544340667E+02 -0.10474377882E+03  0.14396216719E+03  0.47000000000E+01 0.  1.
         11    1    6    6    0    0 -0.39725386927E+02 -0.69032189413E+02 -0.71988212915E+02  0.10735852244E+03  0.00000000000E+00 0. -1.
        -12    1    6    6    0    0 -0.30341611217E+02  0.39865914891E+01  0.79113004090E+01  0.31608463378E+02  0.00000000000E+00 0.  1.
</event>
<event>
12    1  0.8500177E-002  0.3692498E+03  0.7818608E-02  0.1055263E+00
         21   -1    0    0  501  502  0.00000000000E+00  0.00000000000E+00  0.49679903555E+03  0.49679903555E+03  0.00000000000E+00 0. -1.
         21   -1    0    0  502  503 -0.00000000000E+00 -0.00000000000E+00 -0.56734411011E+03  0.56734411011E+03  0.00000000000E+00 0.  1.
         -6    2    1    2    0  503  0.27833267198E+03  0.17183229878E+03 -0.41892490940E+03  0.55648784303E+03  0.16487942422E+03 0.  0.
        -24    2    3    3    0    0  0.20448124758E+03  0.86410827973E+02 -0.19273285830E+03  0.30363255924E+03  0.75943166633E+02 0.  0.
          6    2    1    2  501    0 -0.27833267198E+03 -0.17183229878E+03  0.34837983484E+03  0.50765530262E+03  0.17131836377E+03 0.  0.
         24    2    5    5    0    0 -0.14818179181E+03 -0.16681061420E+03  0.24939159271E+03  0.34399336140E+03  0.79697187791E+02 0.  0.
          5    1    5    5  501    0 -0.13015088017E+03 -0.50216845849E+01  0.98988242132E+02  0.16366194123E+03  0.47000000000E+01 0. -1.
        -13    1    6    6    0    0 -0.32406676859E+02 -0.44261006942E+02  0.18070457610E+02  0.57756132824E+02  0.00000000000E+00 0.  1.
         14    1    6    6    0    0 -0.11577511495E+03 -0.12254960725E+03  0.23132113510E+03  0.28623722857E+03  0.00000000000E+00 0. -1.
         -5    1    3    3    0  503  0.73851424396E+02  0.85421470808E+02 -0.22619205110E+03  0.25285528379E+03  0.47000000000E+01 0.  1.
         13    1    4    4    0    0  0.61942209017E+02 -0.97097394831E+01 -0.50991247521E+02  0.80815986182E+02  0.00000000000E+00 0. -1.
        -14    1    4    4    0    0  0.14253903857E+03  0.96120567456E+02 -0.14174161078E+03  0.22281657306E+03  0.00000000000E+00 0.  1.
</event>
<event>
12    1  0.8500177E-002  0.2020326E+03  0.7818608E-02  0.1148354E+00
         21   -1    0    0  503  502  0.00000000000E+00  0.00000000000E+00  0.39655140253E+02  0.39655140253E+02  0.00000000000E+00 0.  1.
         21   -1    0    0  501  503 -0.00000000000E+00 -0.00000000000E+00 -0.10216704892E+04  0.10216704892E+04  0.00000000000E+00 0.  1.
          6    2    1    2  501    0 -0.37378938390E+02  0.98412675666E+02 -0.48724333176E+03  0.52746869588E+03  0.17243816580E+03 0.  0.
         24    2    3    3    0    0  0.25194463166E+02  0.10895585317E+03 -0.36304280356E+03  0.38791780775E+03  0.78574865170E+02 0.  0.
         -6    2    1    2    0  502  0.37378938390E+02 -0.98412675666E+02 -0.49477201718E+03  0.53385693356E+03  0.17065062778E+03 0.  0.
        -24    2    5    5    0    0  0.20177456643E+02 -0.78667214640E+02 -0.15546685316E+03  0.19351025951E+03  0.81735045664E+02 0.  0.
          5    1    3    3  501    0 -0.62573401556E+02 -0.10543177505E+02 -0.12420052820E+03  0.13955088814E+03  0.47000000000E+01 0. -1.
        -11    1    4    4    0    0 -0.45607444922E+01  0.10558683200E+03 -0.30126879863E+03  0.31926833308E+03  0.00000000000E+00 0.  1.
         12    1    4    4    0    0  0.29755207659E+02  0.33690211693E+01 -0.61774004931E+02  0.68649474664E+02  0.00000000000E+00 0. -1.
         -5    1    5    5    0  502  0.17201481746E+02 -0.19745461026E+02 -0.33930516402E+03  0.34034667405E+03  0.47000000000E+01 0.  1.
         13    1    6    6    0    0 -0.15591144744E+02  0.10339320405E+02 -0.33165632396E+02  0.38078136944E+02  0.00000000000E+00 0. -1.
        -14    1    6    6    0    0  0.35768601388E+02 -0.89006535046E+02 -0.12230122076E+03  0.15543212257E+03  0.00000000000E+00 0.  1.
</event>
<event>
12    1  0.8500177E-002  0.2036079E+03  0.7818608E-02  0.1149073E+00
         21   -1    0    0  501  502  0.00000000000E+00  0.00000000000E+00  0.48312223466E+03  0.48312223466E+03  0.00000000000E+00 0. -1.
         21   -1    0    0  502  503 -0.00000000000E+00 -0.00000000000E+00 -0.19072389928E+03  0.19072389928E+03  0.00000000000E+00 0. -1.
         -6    2    1    2    0  503  0.77626599993E+01 -0.88862218690E+02 -0.11078550188E+03  0.22216773852E+03  0.17067021947E+03 0.  0.
        -24    2    3    3    0    0  0.58028630167E+02 -0.35806430295E+02 -0.10201559321E+03  0.14840741222E+03  0.83475483670E+02 0.  0.
          6    2    1    2  501    0 -0.77626599993E+01  0.88862218690E+02  0.40318383726E+03  0.45167839542E+03  0.18302844986E+03 0.  0.
         24    2    5    5    0    0 -0.49855882447E+02  0.90585869214E+02  0.16547038064E+03  0.21021496587E+03  0.78220689681E+02 0.  0.
          5    1    5    5  501    0  0.42093222447E+02 -0.17236505239E+01  0.23771345662E+03  0.24146342954E+03  0.47000000000E+01 0. -1.
        -11    1    6    6    0    0  0.10809466002E+02  0.49201591328E+02  0.37985861912E+02  0.63091733608E+02  0.00000000000E+00 0.  1.
         12    1    6    6    0    0 -0.60665348448E+02  0.41384277886E+02  0.12748451872E+03  0.14712323227E+03  0.00000000000E+00 0. -1.
         -5    1    3    3    0  503 -0.50265970167E+02 -0.53055788395E+02 -0.87699086708E+01  0.73760326309E+02  0.47000000000E+01 0.  1.
         13    1    4    4    0    0  0.33954270975E+02  0.23943918488E+02 -0.53634138809E+02  0.67844119832E+02  0.00000000000E+00 0. -1.
        -14    1    4    4    0    0  0.24074359192E+02 -0.59750348783E+02 -0.48381454398E+02  0.80563292384E+02  0.00000000000E+00 0.  1.
</event>
<event>
12    1  0.8500177E-002  0.2262476E+03  0.7818608E-02  0.1129379E+00
         21   -1    0    0  501  502  0.00000000000E+00  0.00000000000E+00  0.83915899959E+03  0.83915899959E+03  0.00000000000E+00 0. -1.
         21   -1    0    0  502  503 -0.00000000000E+00 -0.00000000000E+00 -0.61337055700E+02  0.61337055700E+02  0.00000000000E+00 0. -1.
         -6    2    1    2    0  503 -0.14572342726E+03  0.13403903862E+02  0.35098003275E+03  0.41758230041E+03  0.17254857963E+03 0.  0.
        -24    2    3    3    0    0 -0.14726622044E+03  0.56005243321E+02  0.29027704992E+03  0.34325736207E+03  0.93492908518E+02 0.  0.
          6    2    1    2  501    0  0.14572342726E+03 -0.13403903862E+02  0.42684191115E+03  0.48291375489E+03  0.17203690202E+03 0.  0.
         24    2    5    5    0    0  0.13896057235E+03  0.44138970614E+02  0.34008535846E+03  0.37848335680E+03  0.79582101922E+02 0.  0.
          5    1    5    5  501    0  0.67628549138E+01 -0.57542874476E+02  0.86756552688E+02  0.10443039808E+03  0.47000000000E+01 0. -1.
        -13    1    6    6    0    0  0.12995729528E+02 -0.81664786813E+01  0.10956768249E+03  0.11063750452E+03  0.00000000000E+00 0.  1.
         14    1    6    6    0    0  0.12596484282E+03  0.52305449295E+02  0.23051767597E+03  0.26784585228E+03  0.00000000000E+00 0. -1.
         -5    1    3    3    0  503  0.15427931758E+01 -0.42601339459E+02  0.60702982825E+02  0.74324938334E+02  0.47000000000E+01 0.  1.
         13    1    4    4    0    0 -0.15293653423E+03  0.57602808675E+02  0.22700817988E+03  0.27971482049E+03  0.00000000000E+00 0. -1.
        -14    1    4    4    0    0  0.56703137973E+01 -0.15975653543E+01  0.63268870049E+02  0.63542541584E+02  0.00000000000E+00 0.  1.
</event>
<event>
12    1  0.8500177E-002  0.3093574E+03  0.7818608E-02  0.1080712E+00
         21   -1    0    0  501  502  0.00000000000E+00  0.00000000000E+00  0.41851461667E+03  0.41851461667E+03  0.00000000000E+00 0. -1.
         21   -1    0    0  502  503 -0.00000000000E+00 -0.00000000000E+00 -0.25498327176E+03  0.25498327176E+03  0.00000000000E+00 0.  1.
         -6    2    1    2    0  503  0.15210088801E+03 -0.20680843770E+03  0.19071911359E+03  0.36342234773E+03  0.17261984968E+03 0.  0.
        -24    2    3    3    0    0  0.17533578813E+03 -0.17528598046E+03  0.19325538711E+03  0.32389958749E+03  0.78073584408E+02 0.  0.
          6    2    1    2  501    0 -0.15210088801E+03  0.20680843770E+03 -0.27187768679E+02  0.31007554069E+03  0.17176511908E+03 0.  0.
         24    2    5    5    0    0 -0.79180643254E+02  0.18502265812E+03 -0.62942458328E+02  0.22585873643E+03  0.80916361010E+02 0.  0.
          5    1    5    5  501    0 -0.72920244761E+02  0.21785779581E+02  0.35754689650E+02  0.84216804261E+02  0.47000000000E+01 0. -1.
        -13    1    6    6    0    0  0.81331346168E+01  0.12879303015E+02 -0.24801556817E+02  0.29105696099E+02  0.00000000000E+00 0.  1.
         14    1    6    6    0    0 -0.87313777871E+02  0.17214335510E+03 -0.38140901511E+02  0.19675304033E+03  0.00000000000E+00 0. -1.
         -5    1    3    3    0  503 -0.23234900116E+02 -0.31522457240E+02 -0.25362735248E+01  0.39522760243E+02  0.47000000000E+01 0.  1.
         11    1    4    4    0    0  0.49886414683E+02 -0.98623203426E+02  0.10486784711E+03  0.15235634539E+03  0.00000000000E+00 0. -1.
        -12    1    4    4    0    0  0.12544937345E+03 -0.76662777031E+02  0.88387540001E+02  0.17154324209E+03  0.00000000000E+00 0.  1.
</event>
<event>
12    1  0.8500177E-002  0.2606217E+03  0.7818608E-02  0.1107339E+00
         21   -1    0    0  503  502  0.00000000000E+00  0.00000000000E+00  0.18081013957E+03  0.18081013957E+03  0.00000000000E+00 0. -1.
         21   -1    0    0  501  503 -0.00000000000E+00 -0.00000000000E+00 -0.38362620188E+03  0.38362620188E+03  0.00000000000E+00 0.  1.
          6    2    1    2  501    0  0.18727933373E+03 -0.33329617753E+02 -0.47991869932E+02  0.26129580632E+03  0.17259161787E+03 0.  0.
         24    2    3    3    0    0  0.38104208880E+02  0.18428935759E+02 -0.51231220940E+02  0.10329343567E+03  0.79078059196E+02 0.  0.
         -6    2    1    2    0  502 -0.18727933373E+03  0.33329617753E+02 -0.15482419237E+03  0.30314053513E+03  0.17815510442E+03 0.  0.
        -24    2    5    5    0    0 -0.87492317696E+02  0.79542778523E+02 -0.12344876217E+03  0.18868699687E+03  0.79882580313E+02 0.  0.
          5    1    3    3  501    0  0.14917512485E+03 -0.51758553511E+02  0.32393510076E+01  0.15800237065E+03  0.47000000000E+01 0. -1.
        -11    1    4    4    0    0 -0.50963537736E+01  0.20401937389E+02  0.13831281447E+02  0.25169748061E+02  0.00000000000E+00 0.  1.
         12    1    4    4    0    0  0.43200562654E+02 -0.19730016299E+01 -0.65062502386E+02  0.78123687610E+02  0.00000000000E+00 0. -1.
         -5    1    5    5    0  502 -0.99787016037E+02 -0.46213160771E+02 -0.31375430204E+02  0.11445353825E+03  0.47000000000E+01 0.  1.
         11    1    6    6    0    0 -0.43280168511E+02  0.10939842543E+01 -0.11082204558E+02  0.44689876323E+02  0.00000000000E+00 0. -1.
        -12    1    6    6    0    0 -0.44212149184E+02  0.78448794269E+02 -0.11236655761E+03  0.14399712055E+03  0.00000000000E+00 0.  1.
</event>
<event>
12    1  0.8500177E-002  0.2420547E+03  0.7818608E-02  0.1119360E+00
         21   -1    0    0  501  502  0.00000000000E+00  0.00000000000E+00  0.82829304701E+03  0.82829304701E+03  0.00000000000E+00 0. -1.
         21   -1    0    0  502  503 -0.00000000000E+00 -0.00000000000E+00 -0.40517881894E+03  0.40517881894E+03  0.00000000000E+00 0. -1.
         -6    2    1    2    0  503 -0.14202453091E+03 -0.79049000678E+02 -0.34969027366E+03  0.42529255715E+03  0.17936209127E+03 0.  0.
        -24    2    3    3    0    0 -0.44929150429E+02 -0.85705749117E+02 -0.27619405489E+03  0.30324498698E+03  0.79437158697E+02 0.  0.
          6    2    1    2  501    0  0.14202453091E+03  0.79049000678E+02  0.77280450174E+03  0.80817930879E+03  0.17177684759E+03 0.  0.
         24    2    5    5    0    0  0.28832574928E+02  0.89402182092E+02  0.40121941831E+03  0.41957003009E+03  0.78980510159E+02 0.  0.
          5    1    5    5  501    0  0.11319195599E+03 -0.10353181414E+02  0.37158508343E+03  0.38860927870E+03  0.47000000000E+01 0. -1.
        -13    1    6    6    0    0 -0.13304006177E+02 -0.33483607348E+01  0.15849166058E+02  0.20961969485E+02  0.00000000000E+00 0.  1.
         14    1    6    6    0    0  0.42136581106E+02  0.92750542827E+02  0.38537025225E+03  0.39860806061E+03  0.00000000000E+00 0. -1.
         -5    1    3    3    0  503 -0.97095380485E+02  0.66567484385E+01 -0.73496218774E+02  0.12204757017E+03  0.47000000000E+01 0.  1.
         13    1    4    4    0    0 -0.54065473854E+02 -0.93279672774E+02 -0.21068071823E+03  0.23666545555E+03  0.00000000000E+00 0. -1.
        -14    1    4    4    0    0  0.91363234246E+01  0.75739236577E+01 -0.65513336662E+02  0.66579531433E+02  0.00000000000E+00 0.  1.
</event>
<event>
12    1  0.8500177E-002  0.1902909E+03  0.7818608E-02  0.1158263E+00
         21   -1    0    0  503  502  0.00000000000E+00  0.00000000000E+00  0.97672366384E+03  0.97672366384E+03  0.00000000000E+00 0.  1.
         21   -1    0    0  501  503 -0.00000000000E+00 -0.00000000000E+00 -0.37024818793E+02  0.37024818793E+02  0.00000000000E+00 0.  1.
          6    2    1    2  501    0  0.80561541305E+02 -0.10862884089E+02  0.46301021019E+03  0.50048182455E+03  0.17174235872E+03 0.  0.
         24    2    3    3    0    0  0.44959715766E+02 -0.36153263544E+02  0.43932785871E+03  0.45058155355E+03  0.81770009496E+02 0.  0.
         -6    2    1    2    0  502 -0.80561541305E+02  0.10862884089E+02  0.47668863486E+03  0.51326665808E+03  0.17205360649E+03 0.  0.
        -24    2    5    5    0    0 -0.41829881679E+02 -0.34551428516E+01  0.45938677150E+03  0.46824897457E+03  0.80369268642E+02 0.  0.
          5    1    3    3  501    0  0.35601825539E+02  0.25290379456E+02  0.23682351481E+02  0.49900271005E+02  0.47000000000E+01 0. -1.
        -13    1    4    4    0    0  0.67919183248E+02 -0.29383816728E+02  0.28714406179E+03  0.29652678861E+03  0.00000000000E+00 0.  1.
         14    1    4    4    0    0 -0.22959467481E+02 -0.67694468164E+01  0.15218379692E+03  0.15405476494E+03  0.00000000000E+00 0. -1.
         -5    1    5    5    0  502 -0.38731659626E+02  0.14318026940E+02  0.17301863352E+02  0.45017683507E+02  0.47000000000E+01 0.  1.
         13    1    6    6    0    0 -0.50784213230E+02  0.14600611648E+02  0.42589660300E+03  0.42916212627E+03  0.00000000000E+00 0. -1.
        -14    1    6    6    0    0  0.89543315512E+01 -0.18055754500E+02  0.33490168500E+02  0.39086848303E+02  0.00000000000E+00 0.  1.
</event>
<event>
12    1  0.8500177E-002  0.1839885E+03  0.7818608E-02  0.1165830E+00
         21   -1    0    0  501  502  0.00000000000E+00  0.00000000000E+00  0.13574447472E+03  0.13574447472E+03  0.00000000000E+00 0.  1.
         21   -1    0    0  502  503 -0.00000000000E+00 -0.00000000000E+00 -0.37228552559E+03  0.37228552559E+03  0.00000000000E+00 0.  1.
         -6    2    1    2    0  503 -0.51301752950E+02 -0.31195951605E+02 -0.26853931202E+03  0.32127970753E+03  0.16583796647E+03 0.  0.
        -24    2    3    3    0    0  0.67083325229E+01 -0.50140329804E+02 -0.95763967866E+02  0.13798358366E+03  0.85496651507E+02 0.  0.
          6    2    1    2  501    0  0.51301752950E+02  0.31195951605E+02  0.31998261143E+02  0.18675029278E+03  0.17391585863E+03 0.  0.
         24    2    5    5    0    0  0.10211668219E+03  0.23451588711E+02  0.27208443972E+02  0.13491242497E+03  0.80518750571E+02 0.  0.
          5    1    5    5  501    0 -0.50814929240E+02  0.77443628937E+01  0.47898171714E+01  0.51837867808E+02  0.47000000000E+01 0. -1.
        -13    1    6    6    0    0  0.51400572765E+02 -0.13275071367E+02  0.45241503996E+02  0.69749839313E+02  0.00000000000E+00 0.  1.
         14    1    6    6    0    0  0.50716109426E+02  0.36726660078E+02 -0.18033060025E+02  0.65162585658E+02  0.00000000000E+00 0. -1.
         -5    1    3    3    0  503 -0.58010085473E+02  0.18944378200E+02 -0.17277534415E+03  0.18329612388E+03  0.47000000000E+01 0.  1.
         13    1    4    4    0    0 -0.16980471819E+02 -0.66362840033E+02 -0.53630237021E+02  0.86997501592E+02  0.00000000000E+00 0. -1.
        -14    1    4    4    0    0  0.23688804342E+02  0.16222510228E+02 -0.42133730845E+02  0.50986082063E+02  0.00000000000E+00 0.  1.
</event>
<event>
12    1  0.8500177E-002  0.2025480E+03  0.7818608E-02  0.1147609E+00
         21   -1    0    0  501  502  0.00000000000E+00  0.00000000000E+00  0.40101038563E+03  0.40101038563E+03  0.00000000000E+00 0. -1.
         21   -1    0    0  502  503 -0.00000000000E+00 -0.00000000000E+00 -0.10968790864E+03  0.10968790864E+03  0.00000000000E+00 0. -1.
         -6    2    1    2    0  503  0.12578559800E+02  0.10498290780E+03  0.21192598248E+03  0.29314485944E+03  0.17274737470E+03 0.  0.
        -24    2    3    3    0    0  0.22531261658E+02  0.71905935117E+02  0.22929957123E+03  0.25419522552E+03  0.79742072030E+02 0.  0.
          6    2    1    2  501    0 -0.12578559800E+02 -0.10498290780E+03  0.79396494499E+02  0.21755343483E+03  0.17276013016E+03 0.  0.
         24    2    5    5    0    0  0.26169597062E+02 -0.44592996012E+02  0.10476691870E+03  0.14130312644E+03  0.79480080421E+02 0.  0.
          5    1    5    5  501    0 -0.38748156863E+02 -0.60389911790E+02 -0.25370424199E+02  0.76250308395E+02  0.47000000000E+01 0. -1.
        -13    1    6    6    0    0 -0.70544734269E+01 -0.57721073820E+02  0.74311523211E+02  0.94359368588E+02  0.00000000000E+00 0.  1.
         14    1    6    6    0    0  0.33224070489E+02  0.13128077808E+02  0.30455395488E+02  0.46943757850E+02  0.00000000000E+00 0. -1.
         -5    1    3    3    0  503 -0.99527018574E+01  0.33076972685E+02 -0.17373588750E+02  0.38949633918E+02  0.47000000000E+01 0.  1.
         11    1    4    4    0    0 -0.49337387715E+01 -0.16037145714E+02  0.47630411005E+02  0.50499384881E+02  0.00000000000E+00 0. -1.
        -12    1    4    4    0    0  0.27465000429E+02  0.87943080831E+02  0.18166916023E+03  0.20369584064E+03  0.00000000000E+00 0.  1.
</event>
<event>
12    1  0.8500177E-002  0.1761927E+03  0.7818608E-02  0.1172013E+00
         21   -1    0    0  503  502  0.00000000000E+00  0.00000000000E+00  0.56884501235E+03  0.56884501235E+03  0.00000000000E+00 0. -1.
         21   -1    0    0  501  503 -0.00000000000E+00 -0.00000000000E+00 -0.58970375290E+02  0.58970375290E+02  0.00000000000E+00 0. -1.
          6    2    1    2  501    0  0.34290372308E+02  0.13247892449E+02  0.16496372933E+03  0.24136464986E+03  0.17231519353E+03 0.  0.
         24    2    3    3    0    0  0.59685109518E+02 -0.16043226989E+02  0.34880822468E+02  0.10554670181E+03  0.78126417145E+02 0.  0.
         -6    2    1    2    0  502 -0.34290372308E+02 -0.13247892449E+02  0.34491090773E+03  0.38645073778E+03  0.17037987607E+03 0.  0.
        -24    2    5    5    0    0  0.20711795588E+02  0.44406782225E+02  0.16260816930E+03  0.18743898329E+03  0.79315918642E+02 0.  0.
          5    1    3    3  501    0 -0.25394737210E+02  0.29291119438E+02  0.13008290686E+03  0.13581794805E+03  0.47000000000E+01 0. -1.
        -11    1    4    4    0    0  0.54834854559E+01 -0.66846694711E+00  0.47492234014E+02  0.47812422575E+02  0.00000000000E+00 0.  1.
         12    1    4    4    0    0  0.54201624062E+02 -0.15374760041E+02 -0.12611411546E+02  0.57734279232E+02  0.00000000000E+00 0. -1.
         -5    1    5    5    0  502 -0.55002167896E+02 -0.57654674674E+02  0.18230273843E+03  0.19901175449E+03  0.47000000000E+01 0.  1.
         13    1    6    6    0    0 -0.22686492775E+02  0.20703717460E+02  0.20380778450E+02  0.36860507339E+02  0.00000000000E+00 0. -1.
        -14    1    6    6    0    0  0.43398288362E+02  0.23703064765E+02  0.14222739085E+03  0.15057847595E+03  0.00000000000E+00 0.  1.
</event>
<event>
12    1  0.8500177E-002  0.2029670E+03  0.7818608E-02  0.1147359E+00
         21   -1    0    0  503  502  0.00000000000E+00  0.00000000000E+00  0.60260845568E+03  0.60260845568E+03  0.00000000000E+00 0. -1.
         21   -1    0    0  501  503 -0.00000000000E+00 -0.00000000000E+00 -0.71611237010E+02  0.71611237010E+02  0.00000000000E+00 0. -1.
          6    2    1    2  501    0  0.77666647779E+02 -0.75956592957E+02  0.33936501953E+03  0.39542914060E+03  0.17144700804E+03 0.  0.
         24    2    3    3    0    0  0.10181557510E+03 -0.10477180423E+03  0.28599587081E+03  0.32997806630E+03  0.75817833165E+02 0.  0.
         -6    2    1    2    0  502 -0.77666647779E+02  0.75956592957E+02  0.19163219914E+03  0.27879055209E+03  0.17087937264E+03 0.  0.
        -24    2    5    5    0    0 -0.47309723956E+02  0.11099199206E+03  0.17937491655E+03  0.23061013085E+03  0.80300930761E+02 0.  0.
          5    1    3    3  501    0 -0.24148927325E+02  0.28815211274E+02  0.53369148727E+02  0.65451074304E+02  0.47000000000E+01 0. -1.
        -13    1    4    4    0    0  0.53922308805E+02 -0.76202707043E+02  0.10457674322E+03  0.14018117980E+03  0.00000000000E+00 0.  1.
         14    1    4    4    0    0  0.47893266298E+02 -0.28569097188E+02  0.18141912759E+03  0.18979688650E+03  0.00000000000E+00 0. -1.
         -5    1    5    5    0  502 -0.30356923823E+02 -0.35035399100E+02  0.12257282585E+02  0.48180421236E+02  0.47000000000E+01 0.  1.
         11    1    6    6    0    0 -0.65691805632E+02  0.84618685569E+02  0.10696308320E+03  0.15138307845E+03  0.00000000000E+00 0. -1.
        -12    1    6    6    0    0  0.18382081676E+02  0.26373306489E+02  0.72411833355E+02  0.79227052398E+02  0.00000000000E+00 0.  1.
</event>
<event>
12    1  0.8500177E-002  0.1903605E+03  0.7818608E-02  0.1158327E+00
         21   -1    0    0  503  502  0.00000000000E+00  0.00000000000E+00  0.78064413180E+03  0.78064413180E+03  0.00000000000E+00 0. -1.
         21   -1    0    0  501  503 -0.00000000000E+00 -0.00000000000E+00 -0.24101366196E+03  0.24101366196E+03  0.00000000000E+00 0. -1.
          6    2    1    2  501    0 -0.72047279827E+02  0.37316955941E+02 -0.18954865405E+03  0.26804031541E+03  0.17127040813E+03 0.  0.
         24    2    3    3    0    0 -0.53793855283E+02 -0.25562891062E+02 -0.44814933498E+02  0.10911579706E+03  0.79690894326E+02 0.  0.
         -6    2    1    2    0  502  0.72047279827E+02 -0.37316955941E+02  0.72917912389E+03  0.75361747835E+03  0.17220262258E+03 0.  0.
        -24    2    5    5    0    0 -0.25300265894E+02 -0.39070850404E+02  0.40626449048E+03  0.41631113202E+03  0.78086411190E+02 0.  0.
          5    1    3    3  501    0 -0.18253424544E+02  0.62879847003E+02 -0.14473372055E+03  0.15892451835E+03  0.47000000000E+01 0. -1.
        -13    1    4    4    0    0 -0.60100641237E+02 -0.39316827291E+02 -0.55354981674E+02  0.90675652638E+02  0.00000000000E+00 0.  1.
         14    1    4    4    0    0  0.63067859537E+01  0.13753936229E+02  0.10540048176E+02  0.18440144424E+02  0.00000000000E+00 0. -1.
         -5    1    5    5    0  502  0.97347545720E+02  0.17538944630E+01  0.32291463341E+03  0.33730634632E+03  0.47000000000E+01 0.  1.
         13    1    6    6    0    0 -0.10224143643E+01  0.17145548719E+02  0.21034497587E+03  0.21104507586E+03  0.00000000000E+00 0. -1.
        -14    1    6    6    0    0 -0.24277851529E+02 -0.56216399123E+02  0.19591951462E+03  0.20526605616E+03  0.00000000000E+00 0.  1.
</event>
<event>
12    1  0.8500177E-002  0.2801237E+03  0.7818608E-02  0.1095634E+00
         21   -1    0    0  503  502  0.00000000000E+00  0.00000000000E+00  0.15270191393E+03  0.15270191393E+03  0.00000000000E+00 0. -1.
         21   -1    0    0  501  503 -0.00000000000E+00 -0.00000000000E+00 -0.54298034544E+03  0.54298034544E+03  0.00000000000E+00 0.  1.
          6    2    1    2  501    0 -0.18196640349E+03  0.12675286981E+03 -0.27593479272E+03  0.39320385865E+03  0.17114672833E+03 0.  0.
         24    2    3    3    0    0 -0.20288427712E+03  0.10866439862E+03 -0.27146028977E+03  0.36479855275E+03  0.80108137755E+02 0.  0.
         -6    2    1    2    0  502  0.18196640349E+03 -0.12675286981E+03 -0.11434363878E+03  0.30247840072E+03  0.17099898586E+03 0.  0.
        -24    2    5    5    0    0  0.43611685900E+02 -0.15252655493E+02 -0.37925724227E+01  0.93151016112E+02  0.80796692696E+02 0.  0.
          5    1    3    3  501    0  0.20917873624E+02  0.18088471190E+02 -0.44745029514E+01  0.28405305906E+02  0.47000000000E+01 0. -1.
        -11    1    4    4    0    0 -0.18613247140E+03  0.67300761077E+02 -0.23442353259E+03  0.30680463162E+03  0.00000000000E+00 0.  1.
         12    1    4    4    0    0 -0.16751805721E+02  0.41363637539E+02 -0.37036757180E+02  0.57993921128E+02  0.00000000000E+00 0. -1.
         -5    1    5    5    0  502  0.13835471759E+03 -0.11150021431E+03 -0.11055106636E+03  0.20932738461E+03  0.47000000000E+01 0.  1.
         11    1    6    6    0    0  0.61482896676E+02  0.96566544645E+01 -0.52628172481E+01  0.62458744820E+02  0.00000000000E+00 0. -1.
        -12    1    6    6    0    0 -0.17871210777E+02 -0.24909309958E+02  0.14702448253E+01  0.30692271292E+02  0.00000000000E+00 0.  1.
</event>
<event>
12    1  0.8500177E-002  0.1990857E+03  0.7818608E-02  0.1151199E+00
         21   -1    0    0  503  502  0.00000000000E+00  0.00000000000E+00  0.27582804978E+03  0.27582804978E+03  0.00000000000E+00 0.  1.
         21   -1    0    0  501  503 -0.00000000000E+00 -0.00000000000E+00 -0.14674051138E+03  0.14674051138E+03  0.00000000000E+00 0.  1.
          6    2    1    2  501    0 -0.42612769373E+02 -0.85980885308E+02  0.24707552068E+02  0.20061301466E+03  0.17443210075E+03 0.  0.
         24    2    3    3    0    0 -0.40705839806E+02 -0.12450745390E+03 -0.17072224066E+01  0.15362617418E+03  0.80243475205E+02 0.  0.
         -6    2    1    2    0  502  0.42612769373E+02  0.85980885308E+02  0.10437998633E+03  0.22195554650E+03  0.17076452303E+03 0.  0.
        -24    2    5    5    0    0  0.84031828265E+02  0.87451597566E+02  0.51852927947E+02  0.15488183111E+03  0.81182050929E+02 0.  0.
          5    1    3    3  501    0 -0.19069295667E+01  0.38526568595E+02  0.26414774475E+02  0.46986840484E+02  0.47000000000E+01 0. -1.
        -11    1    4    4    0    0  0.22747524063E+02 -0.52414493806E+02 -0.62497157678E+01  0.57478586962E+02  0.00000000000E+00 0.  1.
         12    1    4    4    0    0 -0.63453363870E+02 -0.72092960096E+02  0.45424933611E+01  0.96147587218E+02  0.00000000000E+00 0. -1.
         -5    1    5    5    0  502 -0.41419058892E+02 -0.14707122587E+01  0.52527058383E+02  0.67073715392E+02  0.47000000000E+01 0.  1.
         11    1    6    6    0    0 -0.87480581611E+00 -0.89504209865E+01  0.20886384569E+02  0.22740193083E+02  0.00000000000E+00 0. -1.
        -12    1    6    6    0    0  0.84906634081E+02  0.96402018553E+02  0.30966543378E+02  0.13214163803E+03  0.00000000000E+00 0.  1.
</event>
<event>
12    1  0.8500177E-002  0.1787962E+03  0.7818608E-02  0.1169206E+00
         21   -1    0    0  503  502  0.00000000000E+00  0.00000000000E+00  0.21246752561E+03  0.21246752561E+03  0.00000000000E+00 0. -1.
         21   -1    0    0  501  503 -0.00000000000E+00 -0.00000000000E+00 -0.19953354223E+03  0.19953354223E+03  0.00000000000E+00 0. -1.
          6    2    1    2  501    0 -0.43122075122E+02 -0.11116415639E+02 -0.96507085821E+02  0.20317897889E+03  0.17316175036E+03 0.  0.
         24    2    3    3    0    0 -0.72139642248E+02 -0.28674551521E+02 -0.15160601336E+02  0.11491999704E+03  0.83369082994E+02 0.  0.
         -6    2    1    2    0  502  0.43122075122E+02  0.11116415639E+02  0.10944106920E+03  0.20882208895E+03  0.17218080366E+03 0.  0.
        -24    2    5    5    0    0 -0.31131259103E+02  0.41179668908E+02  0.38518216025E+02  0.10172634701E+03  0.78738023125E+02 0.  0.
          5    1    3    3  501    0  0.29017567126E+02  0.17558135882E+02 -0.81346484485E+02  0.88258981841E+02  0.47000000000E+01 0. -1.
        -11    1    4    4    0    0 -0.41282918004E+02 -0.48920265244E+02 -0.35067604371E+02  0.72987728741E+02  0.00000000000E+00 0.  1.
         12    1    4    4    0    0 -0.30856724244E+02  0.20245713723E+02  0.19907003036E+02  0.41932268304E+02  0.00000000000E+00 0. -1.
         -5    1    5    5    0  502  0.74253334224E+02 -0.30063253269E+02  0.70922853171E+02  0.10709574194E+03  0.47000000000E+01 0.  1.
         11    1    6    6    0    0 -0.18158051419E+02  0.20171205165E+02  0.61982575875E+02  0.67664112063E+02  0.00000000000E+00 0. -1.
        -12    1    6    6    0    0 -0.12973207684E+02  0.21008463743E+02 -0.23464359850E+02  0.34062234947E+02  0.00000000000E+00 0.  1.
</event>
<event>
12    1  0.8500177E-002  0.1745460E+03  0.7818608E-02  0.1173240E+00
         21   -1    0    0  503  502  0.00000000000E+00  0.00000000000E+00  0.17426449243E+03  0.17426449243E+03  0.00000000000E+00 0. -1.
         21   -1    0    0  501  503 -0.00000000000E+00 -0.00000000000E+00 -0.20650198452E+03  0.20650198452E+03  0.00000000000E+00 0. -1.
          6    2    1    2  501    0  0.18311732398E+02  0.62407069364E+01 -0.90915434365E+02  0.19662136948E+03  0.17326303923E+03 0.  0.
         24    2    3    3    0    0  0.66022752323E+02  0.19298565826E+02 -0.14808346856E+02  0.10573007248E+03  0.78918455528E+02 0.  0.
         -6    2    1    2    0  502 -0.18311732398E+02 -0.62407069364E+01  0.58677942278E+02  0.18414510747E+03  0.17347061344E+03 0.  0.
        -24    2    5    5    0    0  0.26716361269E+02  0.44838553283E+02  0.59173164482E+01  0.97875798432E+02  0.82585697701E+02 0.  0.
          5    1    3    3  501    0 -0.47711019925E+02 -0.13057858890E+02 -0.76107087509E+02  0.90891296999E+02  0.47000000000E+01 0. -1.
        -13    1    4    4    0    0  0.55163869663E+02  0.18254574552E+02  0.25877146730E+02  0.63607458141E+02  0.00000000000E+00 0.  1.
         14    1    4    4    0    0  0.10858882659E+02  0.10439912745E+01 -0.40685493586E+02  0.42122614339E+02  0.00000000000E+00 0. -1.
         -5    1    5    5    0  502 -0.45028093666E+02 -0.51079260219E+02  0.52760625830E+02  0.86269309037E+02  0.47000000000E+01 0.  1.
         13    1    6    6    0    0  0.17536754623E+02  0.24642567813E+02  0.44242617022E+02  0.53592938640E+02  0.00000000000E+00 0. -1.
        -14    1    6    6    0    0  0.91796066458E+01  0.20195985470E+02 -0.38325300574E+02  0.44282859792E+02  0.00000000000E+00 0.  1.
</event>
<event>
12    1  0.8500177E-002  0.2247558E+03  0.7818608E-02  0.1130415E+00
         21   -1    0    0  503  502  0.00000000000E+00  0.00000000000E+00  0.58482146004E+03  0.58482146004E+03  0.00000000000E+00 0. -1.
         21   -1    0    0  501  503 -0.00000000000E+00 -0.00000000000E+00 -0.16487764758E+03  0.16487764758E+03  0.00000000000E+00 0. -1.
          6    2    1    2  501    0 -0.11096312358E+03  0.93375616470E+02 -0.48816369178E+02  0.22984214270E+03  0.17150088080E+03 0.  0.
         24    2    3    3    0    0  0.65279919864E+01  0.35889757897E+01 -0.27624089104E+02  0.80386444194E+02  0.75122531139E+02 0.  0.
         -6    2    1    2    0  502  0.11096312358E+03 -0.93375616470E+02  0.46876018163E+03  0.51985696492E+03  0.17170712142E+03 0.  0.
        -24    2    5    5    0    0  0.32262447788E+02 -0.10502425869E+03  0.20540214664E+03  0.24470422220E+03  0.74961016961E+02 0.  0.
          5    1    3    3  501    0 -0.11749111556E+03  0.89786640680E+02 -0.21192280074E+02  0.14945569850E+03  0.47000000000E+01 0. -1.
        -11    1    4    4    0    0  0.24037517496E+02 -0.97045777809E+01  0.16751259687E+02  0.30863988374E+02  0.00000000000E+00 0.  1.
         12    1    4    4    0    0 -0.17509525510E+02  0.13293553571E+02 -0.44375348791E+02  0.49522455820E+02  0.00000000000E+00 0. -1.
         -5    1    5    5    0  502  0.78700675788E+02  0.11648642221E+02  0.26335803499E+03  0.27515274272E+03  0.47000000000E+01 0.  1.
         11    1    6    6    0    0  0.42335497726E+02 -0.10032940234E+03  0.20658434652E+03  0.23352810446E+03  0.00000000000E+00 0. -1.
        -12    1    6    6    0    0 -0.10073049938E+02 -0.46948563462E+01 -0.11821998800E+01  0.11176117739E+02  0.00000000000E+00 0.  1.
</event>
<event>
12    1  0.8500177E-002  0.1753102E+03  0.7818608E-02  0.1172655E+00
         21   -1    0    0  501  502  0.00000000000E+00  0.00000000000E+00  0.70936933564E+02  0.70936933564E+02  0.00000000000E+00 0.  1.
         21   -1    0    0  502  503 -0.00000000000E+00 -0.00000000000E+00 -0.13421412538E+04  0.13421412538E+04  0.00000000000E+00 0.  1.
         -6    2    1    2    0  503 -0.25004975607E+02  0.61537318684E+01 -0.12172162664E+04  0.12296432674E+04  0.17246451414E+03 0.  0.
        -24    2    3    3    0    0 -0.63293267781E+02 -0.17772102087E+02 -0.47961070957E+03  0.49064226177E+03  0.79884359797E+02 0.  0.
          6    2    1    2  501    0  0.25004975607E+02 -0.61537318684E+01 -0.53988053817E+02  0.18343491995E+03  0.17340860037E+03 0.  0.
         24    2    5    5    0    0 -0.27601666562E+02 -0.65988247569E-01  0.25134104238E+02  0.88109554398E+02  0.79810488214E+02 0.  0.
          5    1    5    5  501    0  0.52606642168E+02 -0.60877436209E+01 -0.79122158055E+02  0.95325365553E+02  0.47000000000E+01 0. -1.
        -13    1    6    6    0    0  0.78602490853E+01  0.77340371708E+01  0.45267726393E+02  0.46591478829E+02  0.00000000000E+00 0.  1.
         14    1    6    6    0    0 -0.35461915647E+02 -0.78000254184E+01 -0.20133622155E+02  0.41518075569E+02  0.00000000000E+00 0. -1.
         -5    1    3    3    0  503  0.38288292174E+02  0.23925833955E+02 -0.73760555684E+03  0.73900100564E+03  0.47000000000E+01 0.  1.
         13    1    4    4    0    0 -0.29383447948E+02 -0.44466838621E+02 -0.17342849815E+03  0.18143354354E+03  0.00000000000E+00 0. -1.
        -14    1    4    4    0    0 -0.33909819832E+02  0.26694736534E+02 -0.30618221142E+03  0.30920871823E+03  0.00000000000E+00 0.  1.
</event>
<event>
12    1  0.8500177E-002  0.1860416E+03  0.7818608E-02  0.1162179E+00
         21   -1    0    0  503  502  0.00000000000E+00  0.00000000000E+00  0.53330200401E+02  0.53330200401E+02  0.00000000000E+00 0.  1.
         21   -1    0    0  501  503 -0.00000000000E+00 -0.00000000000E+00 -0.67786352454E+03  0.67786352454E+03  0.00000000000E+00 0.  1.
          6    2    1    2  501    0 -0.58451147897E+02  0.37376473169E+02 -0.38994074888E+03  0.43204776273E+03  0.17262081047E+03 0.  0.
         24    2    3    3    0    0 -0.95604187514E+02  0.49441644753E+02 -0.35412222046E+03  0.37884086754E+03  0.80828330345E+02 0.  0.
         -6    2    1    2    0  502  0.58451147897E+02 -0.37376473169E+02 -0.23459257525E+03  0.29914596220E+03  0.17216588774E+03 0.  0.
        -24    2    5    5    0    0  0.64841239058E+02  0.31336767276E+02 -0.18271314085E+03  0.21268262667E+03  0.81629826551E+02 0.  0.
          5    1    3    3  501    0  0.37153039616E+02 -0.12065171584E+02 -0.35818528421E+02  0.53206895195E+02  0.47000000000E+01 0. -1.
        -11    1    4    4    0    0 -0.52892016252E+02 -0.10910999892E+02 -0.93945543833E+02  0.10836226515E+03  0.00000000000E+00 0.  1.
         12    1    4    4    0    0 -0.42712171261E+02  0.60352644645E+02 -0.26017667663E+03  0.27047860239E+03  0.00000000000E+00 0. -1.
         -5    1    5    5    0  502 -0.63900911606E+01 -0.68713240445E+02 -0.51879434402E+02  0.86463335532E+02  0.47000000000E+01 0.  1.
         11    1    6    6    0    0  0.24715460599E+02  0.88236358828E+01 -0.15856227260E+03  0.16071933560E+03  0.00000000000E+00 0. -1.
        -12    1    6    6    0    0  0.40125778459E+02  0.22513131393E+02 -0.24150868250E+02  0.51963291075E+02  0.00000000000E+00 0.  1.
</event>
<event>
12    1  0.8500177E-002  0.2539965E+03  0.7818608E-02  0.1110855E+00
         21   -1    0    0  501  502  0.00000000000E+00  0.00000000000E+00  0.22449299216E+03  0.22449299216E+03  0.00000000000E+00 0. -1.
         21   -1    0    0  502  503 -0.00000000000E+00 -0.00000000000E+00 -0.87897926077E+03  0.87897926077E+03  0.00000000000E+00 0. -1.
         -6    2    1    2    0  503 -0.18495737029E+02 -0.18538187198E+03 -0.78009600917E+03  0.82040478629E+03  0.17264327120E+03 0.  0.
        -24    2    3    3    0    0 -0.52358517653E+02 -0.45908993052E+02 -0.40488124395E+03  0.41864916167E+03  0.80555874113E+02 0.  0.
          6    2    1    2  501    0  0.18495737029E+02  0.18538187198E+03  0.12560974057E+03  0.28306746664E+03  0.17216519102E+03 0.  0.
         24    2    5    5    0    0  0.70080102912E+02  0.86836542739E+02  0.96670636469E+02  0.16803838134E+03  0.80248860865E+02 0.  0.
          5    1    5    5  501    0 -0.51584365883E+02  0.98545329242E+02  0.28939104099E+02  0.11502908530E+03  0.47000000000E+01 0. -1.
        -11    1    6    6    0    0  0.58994613166E+02  0.51763985433E+02  0.17026332236E+02  0.80310463577E+02  0.00000000000E+00 0.  1.
         12    1    6    6    0    0  0.11085489745E+02  0.35072557306E+02  0.79644304233E+02  0.87727917766E+02  0.00000000000E+00 0. -1.
         -5    1    3    3    0  503  0.33862780624E+02 -0.13947287893E+03 -0.37521476522E+03  0.40175562462E+03  0.47000000000E+01 0.  1.
         11    1    4    4    0    0 -0.20693714944E+02 -0.54376165201E+02 -0.13800671776E+03  0.14976932706E+03  0.00000000000E+00 0. -1.
        -12    1    4    4    0    0 -0.31664802709E+02  0.84671721493E+01 -0.26687452619E+03  0.26887983461E+03  0.00000000000E+00 0.  1.
</event>
<event>
12    1  0.8500177E-002  0.1762042E+03  0.7818608E-02  0.1172661E+00
         21   -1    0    0  501  502  0.00000000000E+00  0.00000000000E+00  0.29975128398E+03  0.29975128398E+03  0.00000000000E+00 0. -1.
         21   -1    0    0  502  503 -0.00000000000E+00 -0.00000000000E+00 -0.10670099176E+03  0.10670099176E+03  0.00000000000E+00 0. -1.
         -6    2    1    2    0  503 -0.22755804432E+02 -0.94796562193E+01  0.50545632000E+02  0.18331059223E+03  0.17447126351E+03 0.  0.
        -24    2    3    3    0    0 -0.81236502264E+02 -0.15144587136E+02  0.20102861598E+02  0.11697104346E+03  0.80307983065E+02 0.  0.
          6    2    1    2  501    0  0.22755804432E+02  0.94796562193E+01  0.14250466022E+03  0.22314168351E+03  0.16993216946E+03 0.  0.
         24    2    5    5    0    0 -0.29268997177E+02 -0.38960711393E+02  0.45601607902E+02  0.10286973855E+03  0.78281959847E+02 0.  0.
          5    1    5    5  501    0  0.52024801610E+02  0.48440367613E+02  0.96903052320E+02  0.12027194497E+03  0.47000000000E+01 0. -1.
        -11    1    6    6    0    0 -0.53681390901E+02 -0.22752895505E+02  0.44847178136E+02  0.73557157162E+02  0.00000000000E+00 0.  1.
         12    1    6    6    0    0  0.24412393724E+02 -0.16207815889E+02  0.75442976671E+00  0.29312581386E+02  0.00000000000E+00 0. -1.
         -5    1    3    3    0  503  0.58480697831E+02  0.56649309170E+01  0.30442770402E+02  0.66339548769E+02  0.47000000000E+01 0.  1.
         13    1    4    4    0    0 -0.38578105193E+02  0.77847406154E+01  0.47216399319E+02  0.61467558528E+02  0.00000000000E+00 0. -1.
        -14    1    4    4    0    0 -0.42658397070E+02 -0.22929327752E+02 -0.27113537721E+02  0.55503484931E+02  0.00000000000E+00 0.  1.
</event>
<event>
12    1  0.8500177E-002  0.2244624E+03  0.7818608E-02  0.1131449E+00
         21   -1    0    0  503  502  0.00000000000E+00  0.00000000000E+00  0.11385143008E+04  0.11385143008E+04  0.00000000000E+00 0.  1.
         21   -1    0    0  501  503 -0.00000000000E+00 -0.00000000000E+00 -0.73713456887E+02  0.73713456887E+02  0.00000000000E+00 0.  1.
          6    2    1    2  501    0  0.10808158644E+03 -0.86312509915E+02  0.14664206849E+03  0.26811803990E+03  0.17678209291E+03 0.  0.
         24    2    3    3    0    0  0.14509043706E+03 -0.82500879217E+02  0.10338748317E+03  0.21087092029E+03  0.76941168109E+02 0.  0.
         -6    2    1    2    0  502 -0.10808158644E+03  0.86312509915E+02  0.91815877543E+03  0.94410971779E+03  0.17086879070E+03 0.  0.
        -24    2    5    5    0    0 -0.31864937442E+01  0.19825825391E+02  0.53659082630E+03  0.54281226017E+03  0.79449467132E+02 0.  0.
          5    1    3    3  501    0 -0.37008850618E+02 -0.38116306981E+01  0.43254585318E+02  0.57247119610E+02  0.47000000000E+01 0. -1.
        -13    1    4    4    0    0  0.39144435625E+02 -0.24121629540E+02 -0.77188947299E+01  0.46623182945E+02  0.00000000000E+00 0.  1.
         14    1    4    4    0    0  0.10594600143E+03 -0.58379249677E+02  0.11110637790E+03  0.16424773735E+03  0.00000000000E+00 0. -1.
         -5    1    5    5    0  502 -0.10489509270E+03  0.66486684523E+02  0.38156794914E+03  0.40129745763E+03  0.47000000000E+01 0.  1.
         11    1    6    6    0    0  0.16207834220E+02 -0.12426188169E+02  0.41103242791E+02  0.45897501136E+02  0.00000000000E+00 0. -1.
        -12    1    6    6    0    0 -0.19394327964E+02  0.32252013561E+02  0.49548758350E+03  0.49691475903E+03  0.00000000000E+00 0.  1.
</event>
<event>
12    1  0.8500177E-002  0.2218292E+03  0.7818608E-02  0.1132759E+00
         21   -1    0    0  501  502  0.00000000000E+00  0.00000000000E+00  0.41773758566E+03  0.41773758566E+03  0.00000000000E+00 0.  1.
         21   -1    0    0  502  503 -0.00000000000E+00 -0.00000000000E+00 -0.28994667115E+03  0.28994667115E+03  0.00000000000E+00 0.  1.
         -6    2    1    2    0  503 -0.11137015199E+03  0.84916890871E+02 -0.20920619733E+03  0.30491873086E+03  0.17202909731E+03 0.  0.
        -24    2    3    3    0    0 -0.14158152315E+03  0.54925213996E+02 -0.13553768220E+03  0.21970507144E+03  0.82690678387E+02 0.  0.
          6    2    1    2  501    0  0.11137015199E+03 -0.84916890871E+02  0.33699711185E+03  0.40276552595E+03  0.17040782374E+03 0.  0.
         24    2    5    5    0    0  0.71547690577E+02  0.15688761011E+02  0.20498906908E+03  0.23201559483E+03  0.80283924617E+02 0.  0.
          5    1    5    5  501    0  0.39822461410E+02 -0.10060565188E+03  0.13200804277E+03  0.17074993112E+03  0.47000000000E+01 0. -1.
        -13    1    6    6    0    0  0.27992282428E+02 -0.20463255076E+02  0.14678918646E+03  0.15082896919E+03  0.00000000000E+00 0.  1.
         14    1    6    6    0    0  0.43555408149E+02  0.36152016087E+02  0.58199882619E+02  0.81186625641E+02  0.00000000000E+00 0. -1.
         -5    1    3    3    0  503  0.30211371165E+02  0.29991676875E+02 -0.73668515134E+02  0.85213659419E+02  0.47000000000E+01 0.  1.
         13    1    4    4    0    0 -0.32289440860E+02  0.23243740647E+02 -0.87632420544E+02  0.96240950747E+02  0.00000000000E+00 0. -1.
        -14    1    4    4    0    0 -0.10929208229E+03  0.31681473349E+02 -0.47905261653E+02  0.12346412070E+03  0.00000000000E+00 0.  1.
</event>
<event>
12    1  0.8500177E-002  0.1854429E+03  0.7818608E-02  0.1162900E+00
         21   -1    0    0  503  502  0.00000000000E+00  0.00000000000E+00  0.54140120416E+03  0.54140120416E+03  0.00000000000E+00 0. -1.
         21   -1    0    0  501  503 -0.00000000000E+00 -0.00000000000E+00 -0.87931614474E+02  0.87931614474E+02  0.00000000000E+00 0.  1.
          6    2    1    2  501    0 -0.64606548838E+02  0.26206838768E+02  0.59136366736E+02  0.19357171023E+03  0.17062266138E+03 0.  0.
         24    2    3    3    0    0 -0.48301377575E+02 -0.76553714766E+01 -0.32282986849E+02  0.94616689623E+02  0.74286599917E+02 0.  0.
         -6    2    1    2    0  502  0.64606548838E+02 -0.26206838768E+02  0.39433322295E+03  0.43576110841E+03  0.17183785476E+03 0.  0.
        -24    2    5    5    0    0  0.26706492392E+02 -0.38696730168E+02  0.38234317556E+03  0.39382946281E+03  0.81882038473E+02 0.  0.
          5    1    3    3  501    0 -0.16305171263E+02  0.33862210244E+02  0.91419353585E+02  0.98955020603E+02  0.47000000000E+01 0. -1.
        -11    1    4    4    0    0 -0.32326130547E+02 -0.39685521011E+02 -0.28603297331E+02  0.58635039970E+02  0.00000000000E+00 0.  1.
         12    1    4    4    0    0 -0.15975247028E+02  0.32030149534E+02 -0.36796895183E+01  0.35981649653E+02  0.00000000000E+00 0. -1.
         -5    1    5    5    0  502  0.37900056446E+02  0.12489891400E+02  0.11990047393E+02  0.41931645594E+02  0.47000000000E+01 0.  1.
         11    1    6    6    0    0  0.47093164244E+02 -0.37823510765E+02  0.16820581615E+03  0.17872207662E+03  0.00000000000E+00 0. -1.
        -12    1    6    6    0    0 -0.20386671851E+02 -0.87321940249E+00  0.21413735940E+03  0.21510738619E+03  0.00000000000E+00 0.  1.
</event>
<event>
12    1  0.8500177E-002  0.2326247E+03  0.7818608E-02  0.1124908E+00
         21   -1    0    0  501  502  0.00000000000E+00  0.00000000000E+00  0.18830516200E+03  0.18830516200E+03  0.00000000000E+00 0.  1.
         21   -1    0    0  502  503 -0.00000000000E+00 -0.00000000000E+00 -0.29279324557E+03  0.29279324557E+03  0.00000000000E+00 0. -1.
         -6    2    1    2    0  503  0.11702879880E+03 -0.10385001635E+03 -0.17343800900E+02  0.23268668690E+03  0.17135262234E+03 0.  0.
        -24    2    3    3    0    0  0.75724537600E+02 -0.85671095936E+02  0.53733640962E+02  0.14836226646E+03  0.77783775066E+02 0.  0.
          6    2    1    2  501    0 -0.11702879880E+03  0.10385001635E+03 -0.87144282678E+02  0.24841172067E+03  0.17214439090E+03 0.  0.
         24    2    5    5    0    0  0.69901345783E+01  0.17272510703E+02 -0.32287609860E+02  0.87453015183E+02  0.79109661273E+02 0.  0.
          5    1    5    5  501    0 -0.12401893338E+03  0.86577505651E+02 -0.54856672818E+02  0.16095870549E+03  0.47000000000E+01 0. -1.
        -13    1    6    6    0    0  0.20451856466E+02 -0.13448495804E+02  0.15571682987E+02  0.29010649481E+02  0.00000000000E+00 0.  1.
         14    1    6    6    0    0 -0.13461721888E+02  0.30721006507E+02 -0.47859292847E+02  0.58442365701E+02  0.00000000000E+00 0. -1.
         -5    1    3    3    0  503  0.41304261198E+02 -0.18178920418E+02 -0.71077441863E+02  0.84324420439E+02  0.47000000000E+01 0.  1.
         13    1    4    4    0    0 -0.12887258324E+02 -0.10996760544E+02  0.22834587107E+02  0.28432877763E+02  0.00000000000E+00 0. -1.
        -14    1    4    4    0    0  0.88611795924E+02 -0.74674335393E+02  0.30899053856E+02  0.11992938869E+03  0.00000000000E+00 0.  1.
</event>
<event>
12    1  0.8500177E-002  0.1888923E+03  0.7818608E-02  0.1159657E+00
         21   -1    0    0  503  502  0.00000000000E+00  0.00000000000E+00  0.15923027517E+04  0.15923027517E+04  0.00000000000E+00 0.  1.
         21   -1    0    0  501  503 -0.00000000000E+00 -0.00000000000E+00 -0.35880826270E+02  0.35880826270E+02  0.00000000000E+00 0. -1.
          6    2    1    2  501    0  0.68263523864E+02  0.33467089502E+02  0.27859320766E+03  0.33659244300E+03  0.17291715519E+03 0.  0.
         24    2    3    3    0    0 -0.12850092709E+02  0.52534180750E+02  0.19666919470E+03  0.21964541798E+03  0.81488480562E+02 0.  0.
         -6    2    1    2    0  502 -0.68263523864E+02 -0.33467089502E+02  0.12778287178E+04  0.12915911350E+04  0.17199265452E+03 0.  0.
        -24    2    5    5    0    0 -0.85584375980E+02 -0.49486318689E+02  0.59316778243E+03  0.60650769917E+03  0.78930285040E+02 0.  0.
          5    1    3    3  501    0  0.81113616573E+02 -0.19067091247E+02  0.81924012958E+02  0.11694702502E+03  0.47000000000E+01 0. -1.
        -13    1    4    4    0    0  0.27640544406E+02  0.20872175606E+02  0.13495971730E+03  0.13933331512E+03  0.00000000000E+00 0.  1.
         14    1    4    4    0    0 -0.40490637115E+02  0.31662005144E+02  0.61709477404E+02  0.80312102856E+02  0.00000000000E+00 0. -1.
         -5    1    5    5    0  502  0.17320852115E+02  0.16019229186E+02  0.68466093539E+03  0.68508343584E+03  0.47000000000E+01 0.  1.
         13    1    6    6    0    0 -0.72057907237E+02 -0.13454847063E+02  0.50518334406E+03  0.51047388378E+03  0.00000000000E+00 0. -1.
        -14    1    6    6    0    0 -0.13526468743E+02 -0.36031471625E+02  0.87984438365E+02  0.96033815391E+02  0.00000000000E+00 0.  1.
</event>
<event>
12    1  0.8500177E-002  0.1889302E+03  0.7818608E-02  0.1160142E+00
         21   -1    0    0  503  502  0.00000000000E+00  0.00000000000E+00  0.25300464960E+03  0.25300464960E+03  0.00000000000E+00 0.  1.
         21   -1    0    0  501  503 -0.00000000000E+00 -0.00000000000E+00 -0.16102627131E+03  0.16102627131E+03  0.00000000000E+00 0.  1.
          6    2    1    2  501    0 -0.25888976595E+02  0.66684791920E+02 -0.30641590440E+02  0.19139885922E+03  0.17486427783E+03 0.  0.
         24    2    3    3    0    0 -0.24173643182E+02  0.83475943715E+02 -0.77753879881E+02  0.14113413039E+03  0.79502067402E+02 0.  0.
         -6    2    1    2    0  502  0.25888976595E+02 -0.66684791920E+02  0.12261996874E+03  0.22263206170E+03  0.17150008041E+03 0.  0.
        -24    2    5    5    0    0 -0.82714106401E+01  0.48304128460E+01  0.15102928032E+02  0.88978178062E+02  0.87162311889E+02 0.  0.
          5    1    3    3  501    0 -0.17153334130E+01 -0.16791151795E+02  0.47112289441E+02  0.50264728823E+02  0.47000000000E+01 0. -1.
        -11    1    4    4    0    0  0.20237833660E+02  0.45285899832E+02 -0.83219053613E+01  0.50295494269E+02  0.00000000000E+00 0.  1.
         12    1    4    4    0    0 -0.44411476842E+02  0.38190043883E+02 -0.69431974520E+02  0.90838636124E+02  0.00000000000E+00 0. -1.
         -5    1    5    5    0  502  0.34160387235E+02 -0.71515204766E+02  0.10751704070E+03  0.13365388364E+03  0.47000000000E+01 0.  1.
         11    1    6    6    0    0  0.24232616233E+00 -0.11673101183E+02  0.48976136667E+02  0.50348604509E+02  0.00000000000E+00 0. -1.
        -12    1    6    6    0    0 -0.85137368025E+01  0.16503514029E+02 -0.33873208635E+02  0.38629573553E+02  0.00000000000E+00 0.  1.
</event>
<event>
12    1  0.8500177E-002  0.1775536E+03  0.7818608E-02  0.1171051E+00
         21   -1    0    0  503  502  0.00000000000E+00  0.00000000000E+00  0.42628500031E+03  0.42628500031E+03  0.00000000000E+00 0. -1.
         21   -1    0    0  501  503 -0.00000000000E+00 -0.00000000000E+00 -0.93683223207E+02  0.93683223207E+02  0.00000000000E+00 0. -1.
          6    2    1    2  501    0  0.25894384304E+02  0.37505374745E+02  0.41481955898E+02  0.17897552493E+03  0.16803069239E+03 0.  0.
         24    2    3    3    0    0  0.43471473172E+02 -0.27178067472E+02 -0.23076866844E+02  0.85793802773E+02  0.64804463424E+02 0.  0.
         -6    2    1    2    0  502 -0.25894384304E+02 -0.37505374745E+02  0.29111982121E+03  0.34099269859E+03  0.17160448106E+03 0.  0.
        -24    2    5    5    0    0 -0.44532800873E+02 -0.14300863269E+02  0.29612019154E+03  0.31044873637E+03  0.80644683846E+02 0.  0.
          5    1    3    3  501    0 -0.17577088868E+02  0.64683442217E+02  0.64558822742E+02  0.93181722156E+02  0.47000000000E+01 0. -1.
        -11    1    4    4    0    0 -0.11501879086E+02 -0.14626061376E+02  0.92682950438E+01  0.20787404526E+02  0.00000000000E+00 0.  1.
         12    1    4    4    0    0  0.54973352259E+02 -0.12552006096E+02 -0.32345161887E+02  0.65006398248E+02  0.00000000000E+00 0. -1.
         -5    1    5    5    0  502  0.18638416569E+02 -0.23204511476E+02 -0.50003703275E+01  0.30543962225E+02  0.47000000000E+01 0.  1.
         11    1    6    6    0    0 -0.59733783676E+02  0.73297576152E+01  0.25135760589E+03  0.25846178885E+03  0.00000000000E+00 0. -1.
        -12    1    6    6    0    0  0.15200982803E+02 -0.21630620884E+02  0.44762585649E+02  0.51986947516E+02  0.00000000000E+00 0.  1.
</event>
<event>
12    1  0.8500177E-002  0.2272196E+03  0.7818608E-02  0.1129463E+00
         21   -1    0    0  501  502  0.00000000000E+00  0.00000000000E+00  0.13153411808E+03  0.13153411808E+03  0.00000000000E+00 0. -1.
         21   -1    0    0  502  503 -0.00000000000E+00 -0.00000000000E+00 -0.40014885832E+03  0.40014885832E+03  0.00000000000E+00 0.  1.
         -6    2    1    2    0  503  0.12789159648E+03 -0.74933485976E+02 -0.80255638911E+02  0.23654250087E+03  0.16595209962E+03 0.  0.
        -24    2    3    3    0    0  0.99059858368E+02 -0.97187660368E+02 -0.14414449791E+02  0.16115238490E+03  0.80647491773E+02 0.  0.
          6    2    1    2  501    0 -0.12789159648E+03  0.74933485976E+02 -0.18835910133E+03  0.29514047553E+03  0.17221341838E+03 0.  0.
         24    2    5    5    0    0 -0.14276227059E+03  0.93265412586E+02 -0.18842273883E+03  0.27107202042E+03  0.94326076248E+02 0.  0.
          5    1    5    5  501    0  0.14870674108E+02 -0.18331926610E+02  0.63637494059E-01  0.24068455110E+02  0.47000000000E+01 0. -1.
        -13    1    6    6    0    0 -0.35845270059E+02  0.79049796027E+02 -0.90464518983E+02  0.12536978437E+03  0.00000000000E+00 0.  1.
         14    1    6    6    0    0 -0.10691700053E+03  0.14215616558E+02 -0.97958219844E+02  0.14570223605E+03  0.00000000000E+00 0. -1.
         -5    1    3    3    0  503  0.28831738111E+02  0.22254174392E+02 -0.65841189120E+02  0.75390115964E+02  0.47000000000E+01 0.  1.
         13    1    4    4    0    0  0.81487683928E+02 -0.25032583045E+02  0.12465261433E+01  0.85255068314E+02  0.00000000000E+00 0. -1.
        -14    1    4    4    0    0  0.17572174439E+02 -0.72155077323E+02 -0.15660975934E+02  0.75897316588E+02  0.00000000000E+00 0.  1.
</event>
<event>
12    1  0.8500177E-002  0.1775845E+03  0.7818608E-02  0.1171229E+00
         21   -1    0    0  503  502  0.00000000000E+00  0.00000000000E+00  0.11512261429E+04  0.11512261429E+04  0.00000000000E+00 0.  1.
         21   -1    0    0  501  503 -0.00000000000E+00 -0.00000000000E+00 -0.26908598784E+02  0.26908598784E+02  0.00000000000E+00 0.  1.
          6    2    1    2  501    0  0.38206393037E+01  0.38407640398E+02  0.50842382466E+03  0.53715008617E+03  0.16895468465E+03 0.  0.
         24    2    3    3    0    0  0.26593349983E+02  0.45833898754E+02  0.17104160083E+03  0.19888598724E+03  0.86558963542E+02 0.  0.
         -6    2    1    2    0  502 -0.38206393037E+01 -0.38407640398E+02  0.61589371947E+03  0.64098465553E+03  0.17333929392E+03 0.  0.
        -24    2    5    5    0    0 -0.48321873131E+02  0.26411369999E+02  0.31952709491E+03  0.33432991469E+03  0.81525232856E+02 0.  0.
          5    1    3    3  501    0 -0.22772710679E+02 -0.74262583556E+01  0.33738222383E+03  0.33826409893E+03  0.47000000000E+01 0. -1.
        -13    1    4    4    0    0  0.40397924996E+02  0.62618987342E+02  0.15464092685E+03  0.17165939001E+03  0.00000000000E+00 0.  1.
         14    1    4    4    0    0 -0.13804575013E+02 -0.16785088588E+02  0.16400673975E+02  0.27226597236E+02  0.00000000000E+00 0. -1.
         -5    1    5    5    0  502  0.44501233827E+02 -0.64819010397E+02  0.29636662456E+03  0.30665474083E+03  0.47000000000E+01 0.  1.
         13    1    6    6    0    0 -0.59810066405E+02  0.95466579012E+01  0.30011500813E+03  0.30616564279E+03  0.00000000000E+00 0. -1.
        -14    1    6    6    0    0  0.11488193274E+02  0.16864712098E+02  0.19412086775E+02  0.28164271902E+02  0.00000000000E+00 0.  1.
</event>
<event>
12    1  0.8500177E-002  0.1737182E+03  0.7818608E-02  0.1174088E+00
         21   -1    0    0  501  502  0.00000000000E+00  0.00000000000E+00  0.47689189571E+02  0.47689189571E+02  0.00000000000E+00 0.  1.
         21   -1    0    0  502  503 -0.00000000000E+00 -0.00000000000E+00 -0.12077369704E+04  0.12077369704E+04  0.00000000000E+00 0.  1.
         -6    2    1    2    0  503 -0.79855179324E+01 -0.21113125497E+02 -0.10136731470E+04  0.10284509007E+04  0.17224538764E+03 0.  0.
        -24    2    3    3    0    0  0.28229165270E+02 -0.10401008671E+02 -0.25224916197E+03  0.26607643382E+03  0.79132560700E+02 0.  0.
          6    2    1    2  501    0  0.79855179324E+01  0.21113125497E+02 -0.14637463380E+03  0.22697525928E+03  0.17199622769E+03 0.  0.
         24    2    5    5    0    0 -0.66625160323E+02  0.75617998482E+01 -0.67696110598E+02  0.11760071128E+03  0.68928013891E+02 0.  0.
          5    1    5    5  501    0  0.74610678255E+02  0.13551325649E+02 -0.78678523206E+02  0.10937454800E+03  0.47000000000E+01 0. -1.
        -11    1    6    6    0    0  0.81273988130E+01 -0.15851911717E+02 -0.13346306986E+02  0.22258967333E+02  0.00000000000E+00 0.  1.
         12    1    6    6    0    0 -0.74752559136E+02  0.23413711566E+02 -0.54349803612E+02  0.95341743949E+02  0.00000000000E+00 0. -1.
         -5    1    3    3    0  503 -0.36214683202E+02 -0.10712116826E+02 -0.76142398504E+03  0.76237446686E+03  0.47000000000E+01 0.  1.
         11    1    4    4    0    0  0.53737179793E+02 -0.30247923108E+01 -0.12514210837E+03  0.13622547907E+03  0.00000000000E+00 0. -1.
        -12    1    4    4    0    0 -0.25508014523E+02 -0.73762163598E+01 -0.12710705360E+03  0.12985095475E+03  0.00000000000E+00 0.  1.
</event>
<event>
12    1  0.8500177E-002  0.2351367E+03  0.7818608E-02  0.1123517E+00
         21   -1    0    0  503  502  0.00000000000E+00  0.00000000000E+00  0.81811541601E+02  0.81811541601E+02  0.00000000000E+00 0.  1.
         21   -1    0    0  501  503 -0.00000000000E+00 -0.00000000000E+00 -0.68255291811E+03  0.68255291811E+03  0.00000000000E+00 0. -1.
          6    2    1    2  501    0 -0.12319259204E+03 -0.10119600327E+03 -0.24385659592E+03  0.33698172401E+03  0.16933279992E+03 0.  0.
         24    2    3    3    0    0 -0.14375295306E+03 -0.11086378538E+03 -0.24276263782E+03  0.31375498940E+03  0.80949395451E+02 0.  0.
         -6    2    1    2    0  502  0.12319259204E+03  0.10119600327E+03 -0.35688478058E+03  0.42738273570E+03  0.17283579014E+03 0.  0.
        -24    2    5    5    0    0  0.34783572479E+02  0.17349110207E+02 -0.24955204256E+03  0.26493624338E+03  0.80025636963E+02 0.  0.
          5    1    3    3  501    0  0.20560361025E+02  0.96677821097E+01 -0.10939581004E+01  0.23226734612E+02  0.47000000000E+01 0. -1.
        -11    1    4    4    0    0 -0.77886220302E+02 -0.48306101080E+02 -0.59660867835E+02  0.10935795291E+03  0.00000000000E+00 0.  1.
         12    1    4    4    0    0 -0.65866732761E+02 -0.62557684303E+02 -0.18310176999E+03  0.20439703648E+03  0.00000000000E+00 0. -1.
         -5    1    5    5    0  502  0.88409019558E+02  0.83846893066E+02 -0.10733273802E+03  0.16244649232E+03  0.47000000000E+01 0.  1.
         13    1    6    6    0    0  0.23560242722E+02  0.49199191520E+02 -0.16921470773E+03  0.17778994009E+03  0.00000000000E+00 0. -1.
        -14    1    6    6    0    0  0.11223329757E+02 -0.31850081313E+02 -0.80337334832E+02  0.87146303297E+02  0.00000000000E+00 0.  1.
</event>
<event>
12    1  0.8500177E-002  0.1926401E+03  0.7818608E-02  0.1158075E+00
         21   -1    0    0  501  502  0.00000000000E+00  0.00000000000E+00  0.25166827558E+03  0.25166827558E+03  0.00000000000E+00 0. -1.
         21   -1    0    0  502  503 -0.00000000000E+00 -0.00000000000E+00 -0.14297523686E+03  0.14297523686E+03  0.00000000000E+00 0. -1.
         -6    2    1    2    0  503  0.56392881302E+02 -0.46152871878E+02  0.31691870287E+02  0.19522958738E+03  0.17832546790E+03 0.  0.
        -24    2    3    3    0    0  0.92291861520E+02 -0.77192652566E+02  0.31968588102E+02  0.14753921793E+03  0.79179144276E+02 0.  0.
          6    2    1    2  501    0 -0.56392881302E+02  0.46152871878E+02  0.77001168426E+02  0.19941392506E+03  0.16889786537E+03 0.  0.
         24    2    5    5    0    0  0.26949638973E+02  0.32567705286E+02  0.67772061206E+02  0.11433867098E+03  0.81812840879E+02 0.  0.
          5    1    5    5  501    0 -0.83342520275E+02  0.13585166593E+02  0.92291072208E+01  0.85075254082E+02  0.47000000000E+01 0. -1.
        -13    1    6    6    0    0  0.22508066599E+02 -0.22905743777E+02  0.42368682883E+02  0.53163817106E+02  0.00000000000E+00 0.  1.
         14    1    6    6    0    0  0.44415723735E+01  0.55473449063E+02  0.25403378323E+02  0.61174853872E+02  0.00000000000E+00 0. -1.
         -5    1    3    3    0  503 -0.35898980218E+02  0.31039780688E+02 -0.27671781478E+00  0.47690369453E+02  0.47000000000E+01 0.  1.
         13    1    4    4    0    0  0.11160195189E+02 -0.36848210541E+02  0.41285812256E+02  0.56452270729E+02  0.00000000000E+00 0. -1.
        -14    1    4    4    0    0  0.81131666331E+02 -0.40344442025E+02 -0.93172241545E+01  0.91086947198E+02  0.00000000000E+00 0.  1.
</event>
<event>
12    1  0.8500177E-002  0.2219851E+03  0.7818608E-02  0.1132604E+00
         21   -1    0    0  503  502  0.00000000000E+00  0.00000000000E+00  0.14809030995E+04  0.14809030995E+04  0.00000000000E+00 0. -1.
         21   -1    0    0  501  503 -0.00000000000E+00 -0.00000000000E+00 -0.39502389574E+02  0.39502389574E+02  0.00000000000E+00 0. -1.
          6    2    1    2  501    0 -0.12960432169E+03 -0.52040746548E+02  0.41654032611E+03  0.47199917990E+03  0.17254524929E+03 0.  0.
         24    2    3    3    0    0 -0.94599782506E+02 -0.75026537301E+02  0.40222098807E+03  0.42749302547E+03  0.79940374236E+02 0.  0.
         -6    2    1    2    0  502  0.12960432169E+03  0.52040746548E+02  0.10248603838E+04  0.10484063092E+04  0.17120590904E+03 0.  0.
        -24    2    5    5    0    0  0.13728092428E+03  0.87710641049E+02  0.76852278778E+03  0.78944236430E+03  0.77799501861E+02 0.  0.
          5    1    3    3  501    0 -0.35004539189E+02  0.22985790753E+02  0.14319338037E+02  0.44506154431E+02  0.47000000000E+01 0. -1.
        -11    1    4    4    0    0  0.13158436754E+02 -0.98949618828E+01  0.77180771434E+02  0.78917211099E+02  0.00000000000E+00 0.  1.
         12    1    4    4    0    0 -0.10775821926E+03 -0.65131575419E+02  0.32504021664E+03  0.34857581437E+03  0.00000000000E+00 0. -1.
         -5    1    5    5    0  502 -0.76766025870E+01 -0.35669894501E+02  0.25633759606E+03  0.25896394489E+03  0.47000000000E+01 0.  1.
         13    1    6    6    0    0  0.49530210146E+02  0.77748808816E+02  0.40002861753E+03  0.41051311042E+03  0.00000000000E+00 0. -1.
        -14    1    6    6    0    0  0.87750714136E+02  0.99618322332E+01  0.36849417025E+03  0.37892925387E+03  0.00000000000E+00 0.  1.
</event>
<event>
12    1  0.8500177E-002  0.1789329E+03  0.7818608E-02  0.1169790E+00
         21   -1    0    0  501  502  0.00000000000E+00  0.00000000000E+00  0.71363002230E+03  0.71363002230E+03  0.00000000000E+00 0.  1.
         21   -1    0    0  502  503 -0.00000000000E+00 -0.00000000000E+00 -0.63526840066E+02  0.63526840066E+02  0.00000000000E+00 0.  1.
         -6    2    1    2    0  503  0.48222847048E+01  0.28040503882E+02  0.11154229201E+03  0.21085223628E+03  0.17665632836E+03 0.  0.
        -24    2    3    3    0    0  0.19914999019E+02  0.39165521718E+02  0.14535176187E+03  0.17190706585E+03  0.80587587965E+02 0.  0.
          6    2    1    2  501    0 -0.48222847048E+01 -0.28040503882E+02  0.53856089023E+03  0.56630462609E+03  0.17275292404E+03 0.  0.
         24    2    5    5    0    0 -0.43423749513E+02  0.66697881654E-01  0.15856289943E+03  0.18328941636E+03  0.81038204594E+02 0.  0.
          5    1    5    5  501    0  0.38601464808E+02 -0.28107201764E+02  0.37999799080E+03  0.38301520973E+03  0.47000000000E+01 0. -1.
        -13    1    6    6    0    0 -0.58931420556E+01 -0.18770037731E+02  0.13231262629E+03  0.13376724007E+03  0.00000000000E+00 0.  1.
         14    1    6    6    0    0 -0.37530607457E+02  0.18836735612E+02  0.26250273136E+02  0.49522176289E+02  0.00000000000E+00 0. -1.
         -5    1    3    3    0  503 -0.15092714315E+02 -0.11125017836E+02 -0.33809469859E+02  0.38945170424E+02  0.47000000000E+01 0.  1.
         13    1    4    4    0    0 -0.15081002834E+02  0.52250869205E+02  0.88676988928E+02  0.10402498904E+03  0.00000000000E+00 0. -1.
        -14    1    4    4    0    0  0.34996001853E+02 -0.13085347487E+02  0.56674772941E+02  0.67882076813E+02  0.00000000000E+00 0.  1.
</event>
<event>
12    1  0.8500177E-002  0.1915703E+03  0.7818608E-02  0.1157203E+00
         21   -1    0    0  503  502  0.00000000000E+00  0.00000000000E+00  0.15997890471E+03  0.15997890471E+03  0.00000000000E+00 0. -1.
         21   -1    0    0  501  503 -0.00000000000E+00 -0.00000000000E+00 -0.23635438114E+03  0.23635438114E+03  0.00000000000E+00 0. -1.
          6    2    1    2  501    0  0.27915118655E+02 -0.78613048067E+02 -0.22116147971E+01  0.19090826492E+03  0.17170267674E+03 0.  0.
         24    2    3    3    0    0  0.15677234026E+02 -0.12042665676E+03  0.75457469303E+01  0.14601461503E+03  0.80715389979E+02 0.  0.
         -6    2    1    2    0  502 -0.27915118655E+02  0.78613048067E+02 -0.74163861630E+02  0.20542502094E+03  0.17245258966E+03 0.  0.
        -24    2    5    5    0    0  0.15759497527E+01  0.10894783737E+03 -0.87894354993E+02  0.16069763552E+03  0.78906257918E+02 0.  0.
          5    1    3    3  501    0  0.12237884628E+02  0.41813608697E+02 -0.97573617274E+01  0.44893649889E+02  0.47000000000E+01 0. -1.
        -11    1    4    4    0    0 -0.21511841374E+02 -0.37887911809E+01 -0.64970621255E+01  0.22788726910E+02  0.00000000000E+00 0.  1.
         12    1    4    4    0    0  0.37189075400E+02 -0.11663786558E+03  0.14042809056E+02  0.12322588812E+03  0.00000000000E+00 0. -1.
         -5    1    5    5    0  502 -0.29491068407E+02 -0.30334789302E+02  0.13730493362E+02  0.44727385412E+02  0.47000000000E+01 0.  1.
         13    1    6    6    0    0 -0.35575424120E+02  0.68562691320E+02 -0.66061880983E+02  0.10163968497E+03  0.00000000000E+00 0. -1.
        -14    1    6    6    0    0  0.37151373873E+02  0.40385146049E+02 -0.21832474010E+02  0.59057950552E+02  0.00000000000E+00 0.  1.
</event>
<event>
12    1  0.8500177E-002  0.2538355E+03  0.7818608E-02  0.1110943E+00
         21   -1    0    0  503  502  0.00000000000E+00  0.00000000000E+00  0.28863615819E+03  0.28863615819E+03  0.00000000000E+00 0. -1.
         21   -1    0    0  501  503 -0.00000000000E+00 -0.00000000000E+00 -0.29177931285E+03  0.29177931285E+03  0.00000000000E+00 0.  1.
          6    2    1    2  501    0 -0.36358250831E+02 -0.18428965256E+03 -0.14245982143E+03  0.29086131490E+03  0.17035523279E+03 0.  0.
         24    2    3    3    0    0 -0.75244272404E+02 -0.68331546337E+02 -0.91829375107E+02  0.15840778656E+03  0.79558104284E+02 0.  0.
         -6    2    1    2    0  502  0.36358250831E+02  0.18428965256E+03  0.13931666677E+03  0.28955415614E+03  0.17072749414E+03 0.  0.
        -24    2    5    5    0    0 -0.43857741133E+02  0.11074285422E+03  0.63791186188E+02  0.15700256192E+03  0.79956286796E+02 0.  0.
          5    1    3    3  501    0  0.38886021573E+02 -0.11595810623E+03 -0.50630446320E+02  0.13245352833E+03  0.47000000000E+01 0. -1.
        -13    1    4    4    0    0 -0.79512375115E+00 -0.52982111715E+01 -0.53230593404E+02  0.53499526517E+02  0.00000000000E+00 0.  1.
         14    1    4    4    0    0 -0.74449148653E+02 -0.63033335166E+02 -0.38598781703E+02  0.10490826005E+03  0.00000000000E+00 0. -1.
         -5    1    5    5    0  502  0.80215991965E+02  0.73546798347E+02  0.75525480577E+02  0.13255159422E+03  0.47000000000E+01 0.  1.
         11    1    6    6    0    0  0.12855425540E+01  0.95148619284E+02  0.35965671862E+02  0.10172729193E+03  0.00000000000E+00 0. -1.
        -12    1    6    6    0    0 -0.45143283687E+02  0.15594234932E+02  0.27825514326E+02  0.55275269992E+02  0.00000000000E+00 0.  1.
</event>
<event>
12    1  0.8500177E-002  0.1734394E+03  0.7818608E-02  0.1174460E+00
         21   -1    0    0  501  502  0.00000000000E+00  0.00000000000E+00  0.28197581041E+03  0.28197581041E+03  0.00000000000E+00 0. -1.
         21   -1    0    0  502  503 -0.00000000000E+00 -0.00000000000E+00 -0.37526812870E+03  0.37526812870E+03  0.00000000000E+00 0. -1.
         -6    2    1    2    0  503 -0.15157077946E+02 -0.11402002489E+02 -0.32487441190E+03  0.36827246129E+03  0.17239918668E+03 0.  0.
        -24    2    3    3    0    0  0.36679962453E+01 -0.22115061816E+02 -0.33405774223E+03  0.34428128345E+03  0.80202848046E+02 0.  0.
          6    2    1    2  501    0  0.15157077946E+02  0.11402002489E+02  0.23158209361E+03  0.28897147782E+03  0.17179786449E+03 0.  0.
         24    2    5    5    0    0  0.86249443406E+01 -0.31797344465E+01  0.26296757742E+02  0.83011639641E+02  0.78197905804E+02 0.  0.
          5    1    5    5  501    0  0.65321336058E+01  0.14581736935E+02  0.20528533587E+03  0.20595983818E+03  0.47000000000E+01 0. -1.
        -13    1    6    6    0    0  0.43476044087E+02 -0.24227446100E+01  0.10799382993E+02  0.44862710282E+02  0.00000000000E+00 0.  1.
         14    1    6    6    0    0 -0.34851099746E+02 -0.75698983652E+00  0.15497374750E+02  0.38148929359E+02  0.00000000000E+00 0. -1.
         -5    1    3    3    0  503 -0.18825074192E+02  0.10713059327E+02  0.91833303307E+01  0.23991177846E+02  0.47000000000E+01 0.  1.
         11    1    4    4    0    0 -0.33529706792E+02 -0.19694528822E+02 -0.10037517076E+03  0.10764427810E+03  0.00000000000E+00 0. -1.
        -12    1    4    4    0    0  0.37197703037E+02 -0.24205329939E+01 -0.23368257147E+03  0.23663700534E+03  0.00000000000E+00 0.  1.
</event>
<event>
12    1  0.8500177E-002  0.1805642E+03  0.7818608E-02  0.1168293E+00
         21   -1    0    0  503  502  0.00000000000E+00  0.00000000000E+00  0.12831751989E+03  0.12831751989E+03  0.00000000000E+00 0.  1.
         21   -1    0    0  501  503 -0.00000000000E+00 -0.00000000000E+00 -0.36471309515E+03  0.36471309515E+03  0.00000000000E+00 0.  1.
          6    2    1    2  501    0 -0.52166066246E+02  0.19878955298E+02  0.22112402390E+02  0.17770567097E+03  0.16725392618E+03 0.  0.
         24    2    3    3    0    0 -0.44898398806E+02 -0.12641622486E+02 -0.44188586504E+02  0.10335301064E+03  0.80953917735E+02 0.  0.
         -6    2    1    2    0  502  0.52166066246E+02 -0.19878955298E+02 -0.25850797764E+03  0.31532494407E+03  0.17171771755E+03 0.  0.
        -24    2    5    5    0    0  0.71295591299E+01 -0.73601228847E+02 -0.18944159329E+03  0.21680273797E+03  0.75148775251E+02 0.  0.
          5    1    3    3  501    0 -0.72676674404E+01  0.32520577784E+02  0.66300988894E+02  0.74352660327E+02  0.47000000000E+01 0. -1.
        -11    1    4    4    0    0 -0.41512941999E+02 -0.34842158750E+02 -0.46438551619E+00  0.54198856387E+02  0.00000000000E+00 0.  1.
         12    1    4    4    0    0 -0.33854568073E+01  0.22200536264E+02 -0.43724200988E+02  0.49154154252E+02  0.00000000000E+00 0. -1.
         -5    1    5    5    0  502  0.45036507116E+02  0.53722273549E+02 -0.69066384355E+02  0.98522206108E+02  0.47000000000E+01 0.  1.
         11    1    6    6    0    0 -0.21212421448E+02 -0.63156598112E+02 -0.84528385144E+02  0.10762792669E+03  0.00000000000E+00 0. -1.
        -12    1    6    6    0    0  0.28341980578E+02 -0.10444630735E+02 -0.10491320814E+03  0.10917481127E+03  0.00000000000E+00 0.  1.
</event>
<event>
12    1  0.8500177E-002  0.1802018E+03  0.7818608E-02  0.1167829E+00
         21   -1    0    0  503  502  0.00000000000E+00  0.00000000000E+00  0.92856936591E+02  0.92856936591E+02  0.00000000000E+00 0. -1.
         21   -1    0    0  501  503 -0.00000000000E+00 -0.00000000000E+00 -0.52098246688E+03  0.52098246688E+03  0.00000000000E+00 0. -1.
          6    2    1    2  501    0 -0.22511654777E+02  0.45395819432E+02 -0.39058457971E+03  0.42976870683E+03  0.17198044203E+03 0.  0.
         24    2    3    3    0    0 -0.43852764911E+02  0.79182276050E+02 -0.19580699706E+03  0.23087837439E+03  0.82289402935E+02 0.  0.
         -6    2    1    2    0  502  0.22511654777E+02 -0.45395819432E+02 -0.37540950581E+02  0.18407069664E+03  0.17293103645E+03 0.  0.
        -24    2    5    5    0    0 -0.32439834753E+02 -0.95031229947E+01  0.30896317415E+02  0.89130181003E+02  0.76465381124E+02 0.  0.
          5    1    3    3  501    0  0.21341110135E+02 -0.33786456617E+02 -0.19477758266E+03  0.19889033244E+03  0.47000000000E+01 0. -1.
        -13    1    4    4    0    0 -0.67787446793E+02  0.48653580096E+02 -0.13786834043E+03  0.16115206512E+03  0.00000000000E+00 0.  1.
         14    1    4    4    0    0  0.23934681882E+02  0.30528695954E+02 -0.57938656625E+02  0.69726309274E+02  0.00000000000E+00 0. -1.
         -5    1    5    5    0  502  0.54951489529E+02 -0.35892696438E+02 -0.68437267996E+02  0.94940515639E+02  0.47000000000E+01 0.  1.
         11    1    6    6    0    0 -0.40204313250E+02  0.10601984318E+02 -0.10123215490E+02  0.42793321526E+02  0.00000000000E+00 0. -1.
        -12    1    6    6    0    0  0.77644784976E+01 -0.20105107313E+02  0.41019532905E+02  0.46336859477E+02  0.00000000000E+00 0.  1.
</event>
<event>
12    1  0.8500177E-002  0.1910825E+03  0.7818608E-02  0.1157798E+00
         21   -1    0    0  501  502  0.00000000000E+00  0.00000000000E+00  0.15291497968E+03  0.15291497968E+03  0.00000000000E+00 0. -1.
         21   -1    0    0  502  503 -0.00000000000E+00 -0.00000000000E+00 -0.30639299534E+03  0.30639299534E+03  0.00000000000E+00 0. -1.
         -6    2    1    2    0  503  0.63231745229E+02 -0.54280467537E+02  0.32292581154E+02  0.19379200927E+03  0.17195321834E+03 0.  0.
        -24    2    3    3    0    0 -0.28100830153E+02 -0.52248381973E+02  0.47939355063E+01  0.98272198703E+02  0.78197782233E+02 0.  0.
          6    2    1    2  501    0 -0.63231745229E+02  0.54280467537E+02 -0.18577059681E+03  0.26551596575E+03  0.17042121542E+03 0.  0.
         24    2    5    5    0    0 -0.19621438533E+02  0.75941543573E+02 -0.44546529776E+02  0.11605898807E+03  0.73028600612E+02 0.  0.
          5    1    5    5  501    0 -0.43610306695E+02 -0.21661076035E+02 -0.14122406704E+03  0.14945697768E+03  0.47000000000E+01 0. -1.
        -13    1    6    6    0    0  0.22708309224E+01  0.68672344724E+02 -0.57507141649E+02  0.89599770891E+02  0.00000000000E+00 0.  1.
         14    1    6    6    0    0 -0.21892269455E+02  0.72691988481E+01  0.12960611873E+02  0.26459217183E+02  0.00000000000E+00 0. -1.
         -5    1    3    3    0  503  0.91332575381E+02 -0.20320855645E+01  0.27498645647E+02  0.95519810563E+02  0.47000000000E+01 0.  1.
         11    1    4    4    0    0 -0.64508394718E+01 -0.31792906358E+01  0.35669195996E+02  0.36386986160E+02  0.00000000000E+00 0. -1.
        -12    1    4    4    0    0 -0.21649990681E+02 -0.49069091337E+02 -0.30875260490E+02  0.61885212542E+02  0.00000000000E+00 0.  1.
</event>
<event>
12    1  0.8500177E-002  0.1910895E+03  0.7818608E-02  0.1157751E+00
         21   -1    0    0  503  502  0.00000000000E+00  0.00000000000E+00  0.93475052754E+02  0.93475052754E+02  0.00000000000E+00 0.  1.
         21   -1    0    0  501  503 -0.00000000000E+00 -0.00000000000E+00 -0.38821013210E+03  0.38821013210E+03  0.00000000000E+00 0.  1.
          6    2    1    2  501    0 -0.80985956464E+02 -0.12621473097E+02 -0.14634394571E+03  0.24069016416E+03  0.17261859097E+03 0.  0.
         24    2    3    3    0    0 -0.50637477261E+02  0.53705478654E+02 -0.12417917905E+03  0.16431175359E+03  0.78290812484E+02 0.  0.
         -6    2    1    2    0  502  0.80985956464E+02  0.12621473097E+02 -0.14839113363E+03  0.24099502069E+03  0.17129111107E+03 0.  0.
        -24    2    5    5    0    0 -0.17537953264E+02  0.27925425790E+02 -0.95716351285E+02  0.12813273979E+03  0.78542790200E+02 0.  0.
          5    1    3    3  501    0 -0.30348479202E+02 -0.66326951751E+02 -0.22164766664E+02  0.76378410561E+02  0.47000000000E+01 0. -1.
        -11    1    4    4    0    0 -0.68341768177E+02  0.57701075787E+02 -0.10398626202E+03  0.13716105174E+03  0.00000000000E+00 0.  1.
         12    1    4    4    0    0  0.17704290916E+02 -0.39955971336E+01 -0.20192917029E+02  0.27150701859E+02  0.00000000000E+00 0. -1.
         -5    1    5    5    0  502  0.98523909727E+02 -0.15303952692E+02 -0.52674782345E+02  0.11286228090E+03  0.47000000000E+01 0.  1.
         11    1    6    6    0    0 -0.44640149002E+02  0.21910498400E+02 -0.33374118246E+02  0.59888601685E+02  0.00000000000E+00 0. -1.
        -12    1    6    6    0    0  0.27102195739E+02  0.60149273898E+01 -0.62342233039E+02  0.68244138105E+02  0.00000000000E+00 0.  1.
</event>
<event>
12    1  0.8500177E-002  0.1845095E+03  0.7818608E-02  0.1164201E+00
         21   -1    0    0  501  502  0.00000000000E+00  0.00000000000E+00  0.27587352203E+03  0.27587352203E+03  0.00000000000E+00 0.  1.
         21   -1    0    0  502  503 -0.00000000000E+00 -0.00000000000E+00 -0.12871013202E+03  0.12871013202E+03  0.00000000000E+00 0.  1.
         -6    2    1    2    0  503  0.18747278884E+02 -0.65666758813E+02  0.24987091451E+02  0.18329015189E+03  0.16824785693E+03 0.  0.
        -24    2    3    3    0    0  0.19819896669E+02 -0.36786705139E+02 -0.50111557953E+02  0.10268552949E+03  0.79290981501E+02 0.  0.
          6    2    1    2  501    0 -0.18747278884E+02  0.65666758813E+02  0.12217629855E+03  0.22129350217E+03  0.17140648323E+03 0.  0.
         24    2    5    5    0    0  0.19153861447E+01 -0.14970310771E+02  0.11208245922E+03  0.13730982334E+03  0.77869962192E+02 0.  0.
          5    1    5    5  501    0 -0.20662665029E+02  0.80637069584E+02  0.10093839333E+02  0.83983678829E+02  0.47000000000E+01 0. -1.
        -11    1    6    6    0    0  0.32874375641E+01  0.32049584316E+02  0.42924115126E+02  0.53669942798E+02  0.00000000000E+00 0.  1.
         12    1    6    6    0    0 -0.13720514194E+01 -0.47019895086E+02  0.69158344093E+02  0.83639880539E+02  0.00000000000E+00 0. -1.
         -5    1    3    3    0  503 -0.10726177848E+01 -0.28880053675E+02  0.75098649403E+02  0.80604622395E+02  0.47000000000E+01 0.  1.
         11    1    4    4    0    0 -0.25043699074E+01 -0.28856138247E+02  0.15554225177E+02  0.32876777579E+02  0.00000000000E+00 0. -1.
        -12    1    4    4    0    0  0.22324266577E+02 -0.79305668918E+01 -0.65665783130E+02  0.69808751911E+02  0.00000000000E+00 0.  1.
</event>
<event>
12    1  0.8500177E-002  0.2104822E+03  0.7818608E-02  0.1142005E+00
         21   -1    0    0  503  502  0.00000000000E+00  0.00000000000E+00  0.73543095833E+02  0.73543095833E+02  0.00000000000E+00 0.  1.
         21   -1    0    0  501  503 -0.00000000000E+00 -0.00000000000E+00 -0.12523219030E+04  0.12523219030E+04  0.00000000000E+00 0.  1.
          6    2    1    2  501    0 -0.11128280377E+03 -0.20269053177E+02 -0.10684931708E+04  0.10882399536E+04  0.17260893214E+03 0.  0.
         24    2    3    3    0    0 -0.13141178440E+03  0.27638069509E+02 -0.82822440453E+03  0.84237121148E+03  0.74837649007E+02 0.  0.
         -6    2    1    2    0  502  0.11128280377E+03  0.20269053177E+02 -0.11028563636E+03  0.23762504531E+03  0.17750505243E+03 0.  0.
        -24    2    5    5    0    0  0.53692564498E+02 -0.53921467005E+02 -0.87790771516E+02  0.14093493264E+03  0.79781072868E+02 0.  0.
          5    1    3    3  501    0  0.20128980636E+02 -0.47907122686E+02 -0.24026876631E+03  0.24586874207E+03  0.47000000000E+01 0. -1.
        -11    1    4    4    0    0 -0.69787158557E+02 -0.13219605065E+02 -0.54688062477E+03  0.55147386449E+03  0.00000000000E+00 0.  1.
         12    1    4    4    0    0 -0.61624625846E+02  0.40857674574E+02 -0.28134377976E+03  0.29089734700E+03  0.00000000000E+00 0. -1.
         -5    1    5    5    0  502  0.57590239269E+02  0.74190520182E+02 -0.22494864843E+02  0.96690112671E+02  0.47000000000E+01 0.  1.
         11    1    6    6    0    0  0.14613162060E+02 -0.26744186013E+02 -0.88216615426E+02  0.93332562528E+02  0.00000000000E+00 0. -1.
        -12    1    6    6    0    0  0.39079402438E+02 -0.27177280992E+02  0.42584390962E+00  0.47602370110E+02  0.00000000000E+00 0.  1.
</event>
<event>
12    1  0.8500177E-002  0.2424379E+03  0.7818608E-02  0.1118267E+00
         21   -1    0    0  501  502  0.00000000000E+00  0.00000000000E+00  0.91292051227E+02  0.91292051227E+02  0.00000000000E+00 0.  1.
         21   -1    0    0  502  503 -0.00000000000E+00 -0.00000000000E+00 -0.64263648895E+03  0.64263648895E+03  0.00000000000E+00 0. -1.
         -6    2    1    2    0  503 -0.12011295941E+03 -0.12103561151E+03 -0.28215069163E+03  0.37165600220E+03  0.17158796261E+03 0.  0.
        -24    2    3    3    0    0  0.33469275365E-01 -0.23280523696E+02 -0.13103944771E+03  0.15521219989E+03  0.79859290224E+02 0.  0.
          6    2    1    2  501    0  0.12011295941E+03  0.12103561151E+03 -0.26919374610E+03  0.36227253798E+03  0.17233507061E+03 0.  0.
         24    2    5    5    0    0  0.29783427021E+02  0.12327412487E+03 -0.13630243202E+03  0.20150367681E+03  0.77083178484E+02 0.  0.
          5    1    5    5  501    0  0.90329532394E+02 -0.22385133657E+01 -0.13289131407E+03  0.16076886117E+03  0.47000000000E+01 0. -1.
        -13    1    6    6    0    0  0.21849830435E+02  0.10280273454E+02  0.16906873354E+00  0.24148037116E+02  0.00000000000E+00 0.  1.
         14    1    6    6    0    0  0.79335965856E+01  0.11299385142E+03 -0.13647150076E+03  0.17735563970E+03  0.00000000000E+00 0. -1.
         -5    1    3    3    0  503 -0.12014642869E+03 -0.97755087810E+02 -0.15111124392E+03  0.21644380231E+03  0.47000000000E+01 0.  1.
         13    1    4    4    0    0  0.38769870562E+01  0.26945870478E+02 -0.21653494400E+02  0.34784835549E+02  0.00000000000E+00 0. -1.
        -14    1    4    4    0    0 -0.38435177808E+01 -0.50226394175E+02 -0.10938595331E+03  0.12042736434E+03  0.00000000000E+00 0.  1.
</event>
<event>
12    1  0.8500177E-002  0.2018180E+03  0.7818608E-02  0.1148405E+00
         21   -1    0    0  503  502  0.00000000000E+00  0.00000000000E+00  0.24869385451E+03  0.24869385451E+03  0.00000000000E+00 0.  1.
         21   -1    0    0  501  503 -0.00000000000E+00 -0.00000000000E+00 -0.25570277796E+03  0.25570277796E+03  0.00000000000E+00 0.  1.
          6    2    1    2  501    0  0.43412155392E+02  0.94739402986E+02 -0.15533189840E+03  0.25467329437E+03  0.17283031704E+03 0.  0.
         24    2    3    3    0    0 -0.63633091001E+01  0.11234580877E+03 -0.14603663807E+03  0.20085810827E+03  0.79719555612E+02 0.  0.
         -6    2    1    2    0  502 -0.43412155392E+02 -0.94739402986E+02  0.14832297495E+03  0.24972333810E+03  0.17176108692E+03 0.  0.
        -24    2    5    5    0    0 -0.60889961959E+02 -0.72547676659E-01  0.56195101566E+02  0.11639321296E+03  0.81742876462E+02 0.  0.
          5    1    3    3  501    0  0.49775464492E+02 -0.17606405788E+02 -0.92952603348E+01  0.53815186099E+02  0.47000000000E+01 0. -1.
        -13    1    4    4    0    0  0.16605719398E+01  0.76506989368E+02 -0.14518969106E+03  0.16412228158E+03  0.00000000000E+00 0.  1.
         14    1    4    4    0    0 -0.80238810399E+01  0.35838819405E+02 -0.84694701143E+00  0.36735826689E+02  0.00000000000E+00 0. -1.
         -5    1    5    5    0  502  0.17477806567E+02 -0.94666855309E+02  0.92127873387E+02  0.13333012515E+03  0.47000000000E+01 0.  1.
         11    1    6    6    0    0 -0.46765832611E+02 -0.37661948984E+02  0.43952767228E+02  0.74413112071E+02  0.00000000000E+00 0. -1.
        -12    1    6    6    0    0 -0.14124129348E+02  0.37589401308E+02  0.12242334337E+02  0.41980100887E+02  0.00000000000E+00 0.  1.
</event>
<event>
12    1  0.8500177E-002  0.1875471E+03  0.7818608E-02  0.1160961E+00
         21   -1    0    0  501  502  0.00000000000E+00  0.00000000000E+00  0.56779776895E+03  0.56779776895E+03  0.00000000000E+00 0.  1.
         21   -1    0    0  502  503 -0.00000000000E+00 -0.00000000000E+00 -0.61883546320E+02  0.61883546320E+02  0.00000000000E+00 0.  1.
         -6    2    1    2    0  503 -0.63779550120E+02  0.30883999092E+02  0.27480742555E+03  0.33205021206E+03  0.17238494649E+03 0.  0.
        -24    2    3    3    0    0  0.11304106484E+02 -0.32536413787E+02  0.11319002625E+03  0.14283610578E+03  0.80023559193E+02 0.  0.
          6    2    1    2  501    0  0.63779550120E+02 -0.30883999092E+02  0.23110679708E+03  0.29763110322E+03  0.17364408867E+03 0.  0.
         24    2    5    5    0    0  0.10292150007E+03 -0.67014629492E+01  0.12659786340E+03  0.18334595755E+03  0.83372515560E+02 0.  0.
          5    1    5    5  501    0 -0.39141949948E+02 -0.24182536143E+02  0.10450893368E+03  0.11428514567E+03  0.47000000000E+01 0. -1.
        -11    1    6    6    0    0  0.39929997332E+02 -0.24881875241E+02  0.10374503002E+03  0.11391463320E+03  0.00000000000E+00 0.  1.
         12    1    6    6    0    0  0.62991502736E+02  0.18180412292E+02  0.22852833379E+02  0.69431324353E+02  0.00000000000E+00 0. -1.
         -5    1    3    3    0  503 -0.75083656604E+02  0.63420412880E+02  0.16161739930E+03  0.18921410628E+03  0.47000000000E+01 0.  1.
         11    1    4    4    0    0 -0.29237029166E+02 -0.14594426665E+02  0.82994894264E+02  0.89196152597E+02  0.00000000000E+00 0. -1.
        -12    1    4    4    0    0  0.40541135651E+02 -0.17941987122E+02  0.30195131989E+02  0.53639953184E+02  0.00000000000E+00 0.  1.
</event>
<event>
12    1  0.8500177E-002  0.1791741E+03  0.7818608E-02  0.1168784E+00
         21   -1    0    0  501  502  0.00000000000E+00  0.00000000000E+00  0.34959176206E+03  0.34959176206E+03  0.00000000000E+00 0.  1.
         21   -1    0    0  502  503 -0.00000000000E+00 -0.00000000000E+00 -0.17838095352E+03  0.17838095352E+03  0.00000000000E+00 0. -1.
         -6    2    1    2    0  503  0.41109250125E+02 -0.30162748413E+02 -0.98765372905E+02  0.20395032245E+03  0.17100109153E+03 0.  0.
        -24    2    3    3    0    0  0.65134626230E+02 -0.11109104631E+02 -0.33750876988E+01  0.10364251343E+03  0.79777488258E+02 0.  0.
          6    2    1    2  501    0 -0.41109250125E+02  0.30162748413E+02  0.26997618144E+03  0.32402239314E+03  0.17176615170E+03 0.  0.
         24    2    5    5    0    0 -0.97682903070E+01  0.86984998156E+02  0.18131515740E+03  0.21405016477E+03  0.72666892969E+02 0.  0.
          5    1    5    5  501    0 -0.31340959818E+02 -0.56822249743E+02  0.88661024042E+02  0.10997222837E+03  0.47000000000E+01 0. -1.
        -11    1    6    6    0    0  0.20439189900E+02  0.18896958834E+02  0.99880046955E+02  0.10368644712E+03  0.00000000000E+00 0.  1.
         12    1    6    6    0    0 -0.30207480207E+02  0.68088039322E+02  0.81435110446E+02  0.11036371765E+03  0.00000000000E+00 0. -1.
         -5    1    3    3    0  503 -0.24025376105E+02 -0.19053643782E+02 -0.95390285207E+02  0.10030780902E+03  0.47000000000E+01 0.  1.
         13    1    4    4    0    0  0.31737825309E+02  0.25608073958E+02  0.23635858922E+02  0.47135091325E+02  0.00000000000E+00 0. -1.
        -14    1    4    4    0    0  0.33396800921E+02 -0.36717178590E+02 -0.27010946621E+02  0.56507422103E+02  0.00000000000E+00 0.  1.
</event>
<event>
12    1  0.8500177E-002  0.2114146E+03  0.7818608E-02  0.1140790E+00
         21   -1    0    0  501  502  0.00000000000E+00  0.00000000000E+00  0.34431597983E+03  0.34431597983E+03  0.00000000000E+00 0. -1.
         21   -1    0    0  502  503 -0.00000000000E+00 -0.00000000000E+00 -0.16727627247E+03  0.16727627247E+03  0.00000000000E+00 0.  1.
         -6    2    1    2    0  503 -0.10304011355E+03 -0.63743528037E+02  0.21154689595E+03  0.29907892286E+03  0.17325013866E+03 0.  0.
        -24    2    3    3    0    0 -0.11238107437E+03 -0.47429273004E+02  0.23031535419E+03  0.27210201624E+03  0.78200403159E+02 0.  0.
          6    2    1    2  501    0  0.10304011355E+03  0.63743528037E+02 -0.34507188587E+02  0.21251332944E+03  0.17114516283E+03 0.  0.
         24    2    5    5    0    0  0.12923392410E+03  0.31010413869E+02 -0.55976864470E+02  0.16517825305E+03  0.80544354350E+02 0.  0.
          5    1    5    5  501    0 -0.26193810552E+02  0.32733114168E+02  0.21469675883E+02  0.47335076390E+02  0.47000000000E+01 0. -1.
        -13    1    6    6    0    0  0.92394592540E+02  0.49268553833E+02 -0.12688476810E+02  0.10547581984E+03  0.00000000000E+00 0.  1.
         14    1    6    6    0    0  0.36839331562E+02 -0.18258139964E+02 -0.43288387659E+02  0.59702433208E+02  0.00000000000E+00 0. -1.
         -5    1    3    3    0  503  0.93409608207E+01 -0.16314255033E+02 -0.18768458234E+02  0.26976906620E+02  0.47000000000E+01 0.  1.
         13    1    4    4    0    0 -0.67359755449E+02 -0.48781936843E+02  0.80822400222E+02  0.11597100670E+03  0.00000000000E+00 0. -1.
        -14    1    4    4    0    0 -0.45021318922E+02  0.13526638388E+01  0.14949295396E+03  0.15613100955E+03  0.00000000000E+00 0.  1.
</event>
<event>
12    1  0.8500177E-002  0.1815431E+03  0.7818608E-02  0.1167224E+00
         21   -1    0    0  501  502  0.00000000000E+00  0.00000000000E+00  0.12510331223E+03  0.12510331223E+03  0.00000000000E+00 0.  1.
         21   -1    0    0  502  503 -0.00000000000E+00 -0.00000000000E+00 -0.27931923023E+03  0.27931923023E+03  0.00000000000E+00 0.  1.
         -6    2    1    2    0  503  0.96475808555E+01  0.57077391468E+02 -0.22040484731E+02  0.18287611164E+03  0.17206680333E+03 0.  0.
        -24    2    3    3    0    0  0.91514876240E+01 -0.18251026958E+01  0.45624769256E+02  0.93040558962E+02  0.80547162064E+02 0.  0.
          6    2    1    2  501    0 -0.96475808555E+01 -0.57077391468E+02 -0.13217543327E+03  0.22154643082E+03  0.16811178250E+03 0.  0.
         24    2    5    5    0    0 -0.28859695994E+02  0.44729100437E+01 -0.11664533468E+03  0.15505719149E+03  0.97896422570E+02 0.  0.
          5    1    5    5  501    0  0.19212115138E+02 -0.61550301511E+02 -0.15530098587E+02  0.66489239327E+02  0.47000000000E+01 0. -1.
        -13    1    6    6    0    0  0.13035612110E+02 -0.35749838579E+02 -0.21834003412E+02  0.43871424031E+02  0.00000000000E+00 0.  1.
         14    1    6    6    0    0 -0.41895308104E+02  0.40222748622E+02 -0.94811331273E+02  0.11118576746E+03  0.00000000000E+00 0. -1.
         -5    1    3    3    0  503  0.49609323145E+00  0.58902494163E+02 -0.67665253987E+02  0.89835552674E+02  0.47000000000E+01 0.  1.
         13    1    4    4    0    0 -0.34127042516E+02  0.27969142022E+01  0.33395982815E+02  0.47830632738E+02  0.00000000000E+00 0. -1.
        -14    1    4    4    0    0  0.43278530140E+02 -0.46220168980E+01  0.12228786441E+02  0.45209926224E+02  0.00000000000E+00 0.  1.
</event>
<event>
12    1  0.8500177E-002  0.2117943E+03  0.7818608E-02  0.1140213E+00
         21   -1    0    0  501  502  0.00000000000E+00  0.00000000000E+00  0.30298611056E+03  0.30298611056E+03  0.00000000000E+00 0.  1.
         21   -1    0    0  502  503 -0.00000000000E+00 -0.00000000000E+00 -0.16523592625E+03  0.16523592625E+03  0.00000000000E+00 0. -1.
         -6    2    1    2    0  503 -0.10455785446E+03  0.62509131524E+02 -0.71438768780E+01  0.21160728095E+03  0.17287819388E+03 0.  0.
        -24    2    3    3    0    0 -0.55530476370E+02  0.82657218714E+02  0.46580336195E+02  0.13598975460E+03  0.80047710935E+02 0.  0.
          6    2    1    2  501    0  0.10455785446E+03 -0.62509131524E+02  0.14489406119E+03  0.25661475587E+03  0.17325445884E+03 0.  0.
         24    2    5    5    0    0  0.11483433036E+03 -0.75556330940E+02  0.16538260246E+03  0.22982472614E+03  0.81069827772E+02 0.  0.
          5    1    5    5  501    0 -0.10276475899E+02  0.13047199415E+02 -0.20488541268E+02  0.26790029727E+02  0.47000000000E+01 0. -1.
        -11    1    6    6    0    0  0.10214330254E+03 -0.91873793297E+02  0.13175078183E+03  0.19034788326E+03  0.00000000000E+00 0.  1.
         12    1    6    6    0    0  0.12691027819E+02  0.16317462358E+02  0.33631820633E+02  0.39476842883E+02  0.00000000000E+00 0. -1.
         -5    1    3    3    0  503 -0.49027378089E+02 -0.20148087190E+02 -0.53724213073E+02  0.75617526342E+02  0.47000000000E+01 0.  1.
         11    1    4    4    0    0 -0.54003108828E+02  0.52333026912E+02 -0.58233826645E+01  0.75425415177E+02  0.00000000000E+00 0. -1.
        -12    1    4    4    0    0 -0.15273675416E+01  0.30324191802E+02  0.52403718860E+02  0.60564339428E+02  0.00000000000E+00 0.  1.
</event>
<event>
12    1  0.8500177E-002  0.1956698E+03  0.7818608E-02  0.1153606E+00
         21   -1    0    0  503  502  0.00000000000E+00  0.00000000000E+00  0.11687050680E+03  0.11687050680E+03  0.00000000000E+00 0. -1.
         21   -1    0    0  501  503 -0.00000000000E+00 -0.00000000000E+00 -0.37054331180E+03  0.37054331180E+03  0.00000000000E+00 0. -1.
          6    2    1    2  501    0 -0.74070175297E+02  0.56723574680E+02 -0.21120425436E+03  0.28791300686E+03  0.17199624318E+03 0.  0.
         24    2    3    3    0    0  0.72254793340E+01  0.29278387143E+02 -0.34689292120E+02  0.91592239560E+02  0.79223480450E+02 0.  0.
         -6    2    1    2    0  502  0.74070175297E+02 -0.56723574680E+02 -0.42468550640E+02  0.19950081173E+03  0.17115209989E+03 0.  0.
        -24    2    5    5    0    0  0.98746316574E+02 -0.65750770579E+02  0.66526828057E+01  0.14359564391E+03  0.80631581237E+02 0.  0.
          5    1    3    3  501    0 -0.81295654631E+02  0.27445187536E+02 -0.17651496224E+03  0.19632076730E+03  0.47000000000E+01 0. -1.
        -11    1    4    4    0    0  0.41775084198E+02  0.73152578257E+01 -0.25982709354E+02  0.49737026873E+02  0.00000000000E+00 0.  1.
         12    1    4    4    0    0 -0.34549604864E+02  0.21963129318E+02 -0.87065827665E+01  0.41855212688E+02  0.00000000000E+00 0. -1.
         -5    1    5    5    0  502 -0.24676141277E+02  0.90271958996E+01 -0.49121233445E+02  0.55905167823E+02  0.47000000000E+01 0.  1.
         13    1    6    6    0    0  0.37686888578E+02 -0.72776623786E+02  0.25172494983E+01  0.81994360083E+02  0.00000000000E+00 0. -1.
        -14    1    6    6    0    0  0.61059427996E+02  0.70258532071E+01  0.41354333074E+01  0.61601283827E+02  0.00000000000E+00 0.  1.
</event>
<event>
12    1  0.8500177E-002  0.2024528E+03  0.7818608E-02  0.1148000E+00
         21   -1    0    0  501  502  0.00000000000E+00  0.00000000000E+00  0.20078189673E+03  0.20078189673E+03  0.00000000000E+00 0. -1.
         21   -1    0    0  502  503 -0.00000000000E+00 -0.00000000000E+00 -0.27040764078E+03  0.27040764078E+03  0.00000000000E+00 0. -1.
         -6    2    1    2    0  503  0.83663926299E+01  0.10350686001E+03 -0.15267432619E+03  0.25236498392E+03  0.17203188261E+03 0.  0.
        -24    2    3    3    0    0 -0.51881531891E+02  0.11284006281E+02 -0.76361140922E+02  0.11827300278E+03  0.73064746590E+02 0.  0.
          6    2    1    2  501    0 -0.83663926299E+01 -0.10350686001E+03  0.83048582141E+02  0.21882455360E+03  0.17379140274E+03 0.  0.
         24    2    5    5    0    0 -0.36639062593E+02 -0.10603886417E+03  0.11071407955E+03  0.17890933521E+03  0.84642076954E+02 0.  0.
          5    1    5    5  501    0  0.28272669963E+02  0.25320041559E+01 -0.27665497413E+02  0.39915218388E+02  0.47000000000E+01 0. -1.
        -13    1    6    6    0    0  0.28141727665E+01  0.13544162771E+02  0.57687587994E+01  0.14988078317E+02  0.00000000000E+00 0.  1.
         14    1    6    6    0    0 -0.39453235359E+02 -0.11958302694E+03  0.10494532075E+03  0.16392125689E+03  0.00000000000E+00 0. -1.
         -5    1    3    3    0  503  0.60247924521E+02  0.92222853732E+02 -0.76313185270E+02  0.13409198114E+03  0.47000000000E+01 0.  1.
         13    1    4    4    0    0  0.51145792443E+01  0.28750691835E+02 -0.35659702572E+02  0.46090949105E+02  0.00000000000E+00 0. -1.
        -14    1    4    4    0    0 -0.56996111136E+02 -0.17466685554E+02 -0.40701438350E+02  0.72182053674E+02  0.00000000000E+00 0.  1.
</event>
<event>
12    1  0.8500177E-002  0.1827596E+03  0.7818608E-02  0.1167642E+00
         21   -1    0    0  501  502  0.00000000000E+00  0.00000000000E+00  0.47199231317E+03  0.47199231317E+03  0.00000000000E+00 0.  1.
         21   -1    0    0  502  503 -0.00000000000E+00 -0.00000000000E+00 -0.16112872295E+03  0.16112872295E+03  0.00000000000E+00 0.  1.
         -6    2    1    2    0  503  0.32096831924E+02  0.53764844532E+02 -0.88466047666E+02  0.19395681150E+03  0.16084818311E+03 0.  0.
        -24    2    3    3    0    0 -0.40472223754E+02  0.16754337075E+02 -0.41947298332E+02  0.10003061950E+03  0.79547723370E+02 0.  0.
          6    2    1    2  501    0 -0.32096831924E+02 -0.53764844532E+02  0.39932963789E+03  0.43916422461E+03  0.17169796551E+03 0.  0.
         24    2    5    5    0    0 -0.36283032764E+02 -0.57656224583E+02  0.11963906843E+03  0.15937578354E+03  0.80289694134E+02 0.  0.
          5    1    5    5  501    0  0.41862008394E+01  0.38913800503E+01  0.27969056946E+03  0.27978844108E+03  0.47000000000E+01 0. -1.
        -13    1    6    6    0    0 -0.14422535436E+02 -0.49565225269E+02  0.12518917890E+03  0.13541436998E+03  0.00000000000E+00 0.  1.
         14    1    6    6    0    0 -0.21860497327E+02 -0.80909993135E+01 -0.55501104707E+01  0.23961413555E+02  0.00000000000E+00 0. -1.
         -5    1    3    3    0  503  0.72569055678E+02  0.37010507457E+02 -0.46518749333E+02  0.93926192001E+02  0.47000000000E+01 0.  1.
         13    1    4    4    0    0 -0.51931242106E+02  0.34030222338E+02 -0.11419670737E+02  0.63129381581E+02  0.00000000000E+00 0. -1.
        -14    1    4    4    0    0  0.11459018352E+02 -0.17275885263E+02 -0.30527627596E+02  0.36901237917E+02  0.00000000000E+00 0.  1.
</event>
<event>
12    1  0.8500177E-002  0.1832369E+03  0.7818608E-02  0.1164778E+00
         21   -1    0    0  503  502  0.00000000000E+00  0.00000000000E+00  0.23588989720E+03  0.23588989720E+03  0.00000000000E+00 0. -1.
         21   -1    0    0  501  503 -0.00000000000E+00 -0.00000000000E+00 -0.14265069468E+03  0.14265069468E+03  0.00000000000E+00 0. -1.
          6    2    1    2  501    0 -0.45711347215E+02 -0.42941400626E+02  0.58331051326E+02  0.19200814253E+03  0.17184622223E+03 0.  0.
         24    2    3    3    0    0 -0.29176753304E+01  0.33757058978E+02  0.23275584664E+01  0.87737181702E+02  0.80897117776E+02 0.  0.
         -6    2    1    2    0  502  0.45711347215E+02  0.42941400626E+02  0.34908151199E+02  0.18653244935E+03  0.17216934829E+03 0.  0.
        -24    2    5    5    0    0  0.21779630418E+02  0.47203549286E+02  0.86895710171E+02  0.12895042726E+03  0.79842475406E+02 0.  0.
          5    1    3    3  501    0 -0.42793671885E+02 -0.76698459604E+02  0.56003492860E+02  0.10427096083E+03  0.47000000000E+01 0. -1.
        -13    1    4    4    0    0  0.35267820051E+02  0.34344965992E+02 -0.22158882819E+01  0.49277844728E+02  0.00000000000E+00 0.  1.
         14    1    4    4    0    0 -0.38185495381E+02 -0.58790701459E+00  0.45434467483E+01  0.38459336974E+02  0.00000000000E+00 0. -1.
         -5    1    5    5    0  502  0.23931716797E+02 -0.42621486596E+01 -0.51987558973E+02  0.57582022090E+02  0.47000000000E+01 0.  1.
         11    1    6    6    0    0 -0.10261446610E+02  0.59546089609E+02  0.61720383457E+02  0.86373837523E+02  0.00000000000E+00 0. -1.
        -12    1    6    6    0    0  0.32041077029E+02 -0.12342540323E+02  0.25175326714E+02  0.42576589741E+02  0.00000000000E+00 0.  1.
</event>
<event>
12    1  0.8500177E-002  0.1728658E+03  0.7818608E-02  0.1175095E+00
         21   -1    0    0  503  502  0.00000000000E+00  0.00000000000E+00  0.14179261807E+04  0.14179261807E+04  0.00000000000E+00 0. -1.
         21   -1    0    0  501  503 -0.00000000000E+00 -0.00000000000E+00 -0.31158584980E+02  0.31158584980E+02  0.00000000000E+00 0. -1.
          6    2    1    2  501    0  0.74919766655E+01  0.11156063001E+02  0.28030638792E+03  0.32932391207E+03  0.17234262530E+03 0.  0.
         24    2    3    3    0    0  0.34191222742E+02  0.21679205945E+02  0.28732201338E+03  0.29940911173E+03  0.73843409517E+02 0.  0.
         -6    2    1    2    0  502 -0.74919766655E+01 -0.11156063001E+02  0.11064612078E+04  0.11197608536E+04  0.17154409772E+03 0.  0.
        -24    2    5    5    0    0 -0.62328402314E+02 -0.30480758323E+02  0.85461420366E+03  0.86124686769E+03  0.81035940392E+02 0.  0.
          5    1    3    3  501    0 -0.26699246077E+02 -0.10523142945E+02 -0.70156254638E+01  0.29914800336E+02  0.47000000000E+01 0. -1.
        -13    1    4    4    0    0 -0.40339325437E+01  0.18356794788E+02  0.22791462460E+03  0.22868826081E+03  0.00000000000E+00 0.  1.
         14    1    4    4    0    0  0.38225155286E+02  0.33224111579E+01  0.59407388785E+02  0.70720850920E+02  0.00000000000E+00 0. -1.
         -5    1    5    5    0  502  0.54836425648E+02  0.19324695323E+02  0.25184700416E+03  0.25851398595E+03  0.47000000000E+01 0.  1.
         13    1    6    6    0    0 -0.45294139771E+02  0.16509794973E+02  0.58907822198E+03  0.59104761571E+03  0.00000000000E+00 0. -1.
        -14    1    6    6    0    0 -0.17034262543E+02 -0.46990553297E+02  0.26553598168E+03  0.27019925197E+03  0.00000000000E+00 0.  1.
</event>
<event>
12    1  0.8500177E-002  0.5483996E+03  0.7818608E-02  0.1001896E+00
         21   -1    0    0  501  502  0.00000000000E+00  0.00000000000E+00  0.76984707566E+03  0.76984707566E+03  0.00000000000E+00 0.  1.
         21   -1    0    0  502  503 -0.00000000000E+00 -0.00000000000E+00 -0.47058867632E+03  0.47058867632E+03  0.00000000000E+00 0. -1.
         -6    2    1    2    0  503  0.33105345047E+03 -0.40172987841E+03 -0.10653091186E+03  0.55865100961E+03  0.17250748703E+03 0.  0.
        -24    2    3    3    0    0  0.11987720029E+03 -0.22198710350E+03 -0.93781574431E+02  0.28100463492E+03  0.80745302495E+02 0.  0.
          6    2    1    2  501    0 -0.33105345047E+03  0.40172987841E+03  0.40578931120E+03  0.68178474236E+03  0.17082794722E+03 0.  0.
         24    2    5    5    0    0 -0.70278376585E+02  0.98382028067E+02  0.78915695752E+02  0.16516882318E+03  0.80218323678E+02 0.  0.
          5    1    5    5  501    0 -0.26077507388E+03  0.30334785035E+03  0.32687361545E+03  0.51661591918E+03  0.47000000000E+01 0. -1.
        -11    1    6    6    0    0 -0.56406742033E+02  0.26836443321E+02  0.66507139841E+02  0.91242067528E+02  0.00000000000E+00 0.  1.
         12    1    6    6    0    0 -0.13871634551E+02  0.71545584747E+02  0.12408555910E+02  0.73926755655E+02  0.00000000000E+00 0. -1.
         -5    1    3    3    0  503  0.21117625018E+03 -0.17974277492E+03 -0.12749337430E+02  0.27764637470E+03  0.47000000000E+01 0.  1.
         11    1    4    4    0    0  0.13026101109E+03 -0.21322432373E+03 -0.95105978263E+02  0.26735311919E+03  0.00000000000E+00 0. -1.
        -12    1    4    4    0    0 -0.10383810806E+02 -0.87627797700E+01  0.13244038317E+01  0.13651515727E+02  0.00000000000E+00 0.  1.
</event>
<event>
12    1  0.8500177E-002  0.1861927E+03  0.7818608E-02  0.1162332E+00
         21   -1    0    0  501  502  0.00000000000E+00  0.00000000000E+00  0.44457146777E+02  0.44457146777E+02  0.00000000000E+00 0. -1.
         21   -1    0    0  502  503 -0.00000000000E+00 -0.00000000000E+00 -0.15183471347E+04  0.15183471347E+04  0.00000000000E+00 0. -1.
         -6    2    1    2    0  503  0.27558747547E+02 -0.61212734160E+02 -0.12862034032E+04  0.12996102899E+04  0.17366988129E+03 0.  0.
        -24    2    3    3    0    0 -0.15103021283E+02 -0.56064571857E+02 -0.11911948947E+04  0.11952300389E+04  0.79108983807E+02 0.  0.
          6    2    1    2  501    0 -0.27558747547E+02  0.61212734160E+02 -0.18768658471E+03  0.26319399162E+03  0.17186721548E+03 0.  0.
         24    2    5    5    0    0 -0.86117925455E+02  0.41286980187E+02 -0.12403123577E+03  0.17431032362E+03  0.76677439033E+02 0.  0.
          5    1    5    5  501    0  0.58559177908E+02  0.19925753973E+02 -0.63655348935E+02  0.88883667997E+02  0.47000000000E+01 0. -1.
        -11    1    6    6    0    0 -0.19065960731E+02 -0.32094853296E+01 -0.80557576012E+02  0.82845245534E+02  0.00000000000E+00 0.  1.
         12    1    6    6    0    0 -0.67051964725E+02  0.44496465516E+02 -0.43473659762E+02  0.91465078090E+02  0.00000000000E+00 0. -1.
         -5    1    3    3    0  503  0.42661768830E+02 -0.51481623027E+01 -0.95008508545E+02  0.10438025096E+03  0.47000000000E+01 0.  1.
         13    1    4    4    0    0  0.27885866305E+02 -0.52249774587E+01 -0.23220605108E+03  0.23393283670E+03  0.00000000000E+00 0. -1.
        -14    1    4    4    0    0 -0.42988887587E+02 -0.50839594399E+02 -0.95898884361E+03  0.96129720221E+03  0.00000000000E+00 0.  1.
</event>
<event>
12    1  0.8500177E-002  0.1869243E+03  0.7818608E-02  0.1161434E+00
         21   -1    0    0  503  502  0.00000000000E+00  0.00000000000E+00  0.12299311374E+03  0.12299311374E+03  0.00000000000E+00 0.  1.
         21   -1    0    0  501  503 -0.00000000000E+00 -0.00000000000E+00 -0.28611767243E+03  0.28611767243E+03  0.00000000000E+00 0. -1.
          6    2    1    2  501    0 -0.55186488823E+02  0.46459743408E+02 -0.10284830408E+03  0.21270836475E+03  0.17164794923E+03 0.  0.
         24    2    3    3    0    0 -0.70615843893E+02  0.27374625654E+02 -0.11958355369E+02  0.11844607380E+03  0.90280134009E+02 0.  0.
         -6    2    1    2    0  502  0.55186488823E+02 -0.46459743408E+02 -0.60276254611E+02  0.19640242142E+03  0.17244311516E+03 0.  0.
        -24    2    5    5    0    0  0.37175517937E+02 -0.87137608325E+02 -0.27788720697E+01  0.12355241960E+03  0.79262199949E+02 0.  0.
          5    1    3    3  501    0  0.15429355070E+02  0.19085117755E+02 -0.90889948716E+02  0.94262290950E+02  0.47000000000E+01 0. -1.
        -13    1    4    4    0    0  0.29223992244E+01  0.45166259905E+01  0.30184453491E+02  0.30660097196E+02  0.00000000000E+00 0.  1.
         14    1    4    4    0    0 -0.73538243117E+02  0.22857999663E+02 -0.42142808860E+02  0.87785976602E+02  0.00000000000E+00 0. -1.
         -5    1    5    5    0  502  0.18010970886E+02  0.40677864916E+02 -0.57497382541E+02  0.72850001823E+02  0.47000000000E+01 0.  1.
         13    1    6    6    0    0  0.61406518973E+02 -0.52500474895E+02 -0.68793726939E+01  0.81082588792E+02  0.00000000000E+00 0. -1.
        -14    1    6    6    0    0 -0.24231001037E+02 -0.34637133430E+02  0.41005006241E+01  0.42469830808E+02  0.00000000000E+00 0.  1.
</event>
<event>
12    1  0.8500177E-002  0.2013685E+03  0.7818608E-02  0.1150042E+00
         21   -1    0    0  503  502  0.00000000000E+00  0.00000000000E+00  0.18020397408E+03  0.18020397408E+03  0.00000000000E+00 0.  1.
         21   -1    0    0  501  503 -0.00000000000E+00 -0.00000000000E+00 -0.10437782572E+04  0.10437782572E+04  0.00000000000E+00 0.  1.
          6    2    1    2  501    0  0.95405020460E+02 -0.45139357172E+02 -0.97474095826E+03  0.99396639787E+03  0.16343067305E+03 0.  0.
         24    2    3    3    0    0  0.88447653260E+02 -0.25390420978E+02 -0.38802472666E+03  0.40685784585E+03  0.80637816077E+02 0.  0.
         -6    2    1    2    0  502 -0.95405020460E+02  0.45139357172E+02  0.11116667511E+03  0.23001583344E+03  0.17149219948E+03 0.  0.
        -24    2    5    5    0    0 -0.97741073880E+02 -0.24657623129E+01  0.12730695495E+03  0.17947571888E+03  0.80281226835E+02 0.  0.
          5    1    3    3  501    0  0.69573671999E+01 -0.19748936194E+02 -0.58671623160E+03  0.58710855202E+03  0.47000000000E+01 0. -1.
        -13    1    4    4    0    0  0.60538536702E+02 -0.46342294223E+02 -0.33363281521E+03  0.34223292951E+03  0.00000000000E+00 0.  1.
         14    1    4    4    0    0  0.27909116558E+02  0.20951873245E+02 -0.54391911454E+02  0.64624916333E+02  0.00000000000E+00 0. -1.
         -5    1    5    5    0  502  0.23360534202E+01  0.47605119485E+02 -0.16140279834E+02  0.50540114562E+02  0.47000000000E+01 0.  1.
         11    1    6    6    0    0 -0.25028003578E+02 -0.36493791303E+02  0.60952061154E+02  0.75321653763E+02  0.00000000000E+00 0. -1.
        -12    1    6    6    0    0 -0.72713070302E+02  0.34028028990E+02  0.66354893794E+02  0.10415406512E+03  0.00000000000E+00 0.  1.
</event>
<event>
12    1  0.8500177E-002  0.2364496E+03  0.7818608E-02  0.1122204E+00
         21   -1    0    0  501  502  0.00000000000E+00  0.00000000000E+00  0.10247328064E+04  0.10247328064E+04  0.00000000000E+00 0.  1.
         21   -1    0    0  502  503 -0.00000000000E+00 -0.00000000000E+00 -0.56987441728E+02  0.56987441728E+02  0.00000000000E+00 0.  1.
         -6    2    1    2    0  503  0.22942293393E+02 -0.16058703285E+03  0.37163449825E+03  0.44047770411E+03  0.17202867083E+03 0.  0.
        -24    2    3    3    0    0 -0.21847990949E+02 -0.52103300777E+02  0.26329660621E+03  0.28068384144E+03  0.79159505714E+02 0.  0.
          6    2    1    2  501    0 -0.22942293393E+02  0.16058703285E+03  0.59611086646E+03  0.64124254404E+03  0.17184088931E+03 0.  0.
         24    2    5    5    0    0 -0.60078761948E+02  0.64450106572E+02  0.20563593770E+03  0.23736857128E+03  0.79337417922E+02 0.  0.
          5    1    5    5  501    0  0.37136468555E+02  0.96136926280E+02  0.39047492875E+03  0.40387397276E+03  0.47000000000E+01 0. -1.
        -13    1    6    6    0    0 -0.25303767405E+01 -0.57650693574E+01  0.90626806135E+02  0.90845235546E+02  0.00000000000E+00 0.  1.
         14    1    6    6    0    0 -0.57548385208E+02  0.70215175930E+02  0.11500913157E+03  0.14652333574E+03  0.00000000000E+00 0. -1.
         -5    1    3    3    0  503  0.44790284342E+02 -0.10848373208E+03  0.10833789204E+03  0.15979386267E+03  0.47000000000E+01 0.  1.
         13    1    4    4    0    0  0.22603110380E+02 -0.34663738115E+02  0.17977415843E+03  0.18447553599E+03  0.00000000000E+00 0. -1.
        -14    1    4    4    0    0 -0.44451101329E+02 -0.17439562662E+02  0.83522447780E+02  0.96208305454E+02  0.00000000000E+00 0.  1.
</event>
<event>
12    1  0.8500177E-002  0.2038835E+03  0.7818608E-02  0.1150281E+00
         21   -1    0    0  503  502  0.00000000000E+00  0.00000000000E+00  0.32203085739E+02  0.32203085739E+02  0.00000000000E+00 0. -1.
         21   -1    0    0  501  503 -0.00000000000E+00 -0.00000000000E+00 -0.12611365286E+04  0.12611365286E+04  0.00000000000E+00 0. -1.
          6    2    1    2  501    0  0.70542569609E+02  0.82944844247E+02 -0.80175140830E+03  0.82726888197E+03  0.17237279672E+03 0.  0.
         24    2    3    3    0    0  0.35662532617E+02  0.18574159053E+02 -0.67652358722E+03  0.68213343053E+03  0.77492176123E+02 0.  0.
         -6    2    1    2    0  502 -0.70542569609E+02 -0.82944844247E+02 -0.42718203454E+03  0.46607073235E+03  0.15126577803E+03 0.  0.
        -24    2    5    5    0    0  0.12400035212E+02 -0.51449879869E+02 -0.25941940792E+03  0.27623449406E+03  0.78779537276E+02 0.  0.
          5    1    3    3  501    0  0.34880036991E+02  0.64370685193E+02 -0.12522782108E+03  0.14513545144E+03  0.47000000000E+01 0. -1.
        -11    1    4    4    0    0  0.16402881825E+01 -0.28817878567E+02 -0.20890177744E+03  0.21088649385E+03  0.00000000000E+00 0.  1.
         12    1    4    4    0    0  0.34022244435E+02  0.47392037620E+02 -0.46762180978E+03  0.47124693668E+03  0.00000000000E+00 0. -1.
         -5    1    5    5    0  502 -0.82942604821E+02 -0.31494964377E+02 -0.16776262662E+03  0.18983623828E+03  0.47000000000E+01 0.  1.
         13    1    6    6    0    0 -0.30623589713E+02 -0.13068203078E+02 -0.13593492681E+03  0.13995315826E+03  0.00000000000E+00 0. -1.
        -14    1    6    6    0    0  0.43023624925E+02 -0.38381676791E+02 -0.12348448111E+03  0.13628133581E+03  0.00000000000E+00 0.  1.
</event>
<event>
12    1  0.8500177E-002  0.1821524E+03  0.7818608E-02  0.1166833E+00
         21   -1    0    0  503  502  0.00000000000E+00  0.00000000000E+00  0.28300934914E+02  0.28300934914E+02  0.00000000000E+00 0.  1.
         21   -1    0    0  501  503 -0.00000000000E+00 -0.00000000000E+00 -0.11636735981E+04  0.11636735981E+04  0.00000000000E+00 0.  1.
          6    2    1    2  501    0  0.19275623556E+02 -0.46635296340E+02 -0.49591727568E+03  0.52831188719E+03  0.17502315648E+03 0.  0.
         24    2    3    3    0    0 -0.49898367492E+02 -0.49054407466E+02 -0.36823593368E+03  0.38300012500E+03  0.78709662234E+02 0.  0.
         -6    2    1    2    0  502 -0.19275623556E+02  0.46635296340E+02 -0.63945538751E+03  0.66366264582E+03  0.17028950149E+03 0.  0.
        -24    2    5    5    0    0 -0.35034976869E+02 -0.28010773275E+02 -0.45625997229E+03  0.46516064814E+03  0.78671552946E+02 0.  0.
          5    1    3    3  501    0  0.69173991048E+02  0.24191111256E+01 -0.12768134200E+03  0.14531176219E+03  0.47000000000E+01 0. -1.
        -11    1    4    4    0    0 -0.37679346306E+01 -0.44920854549E+02 -0.27739131748E+03  0.28103028932E+03  0.00000000000E+00 0.  1.
         12    1    4    4    0    0 -0.46130432861E+02 -0.41335529165E+01 -0.90844616198E+02  0.10196983568E+03  0.00000000000E+00 0. -1.
         -5    1    5    5    0  502  0.15759353313E+02  0.74646069615E+02 -0.18319541522E+03  0.19850199768E+03  0.47000000000E+01 0.  1.
         11    1    6    6    0    0 -0.11872321512E+01 -0.17043115557E+02 -0.38625451238E+03  0.38663215805E+03  0.00000000000E+00 0. -1.
        -12    1    6    6    0    0 -0.33847744718E+02 -0.10967657718E+02 -0.70005459909E+02  0.78528490087E+02  0.00000000000E+00 0.  1.
</event>
<event>
12    1  0.8500177E-002  0.1798619E+03  0.7818608E-02  0.1168029E+00
         21   -1    0    0  503  502  0.00000000000E+00  0.00000000000E+00  0.54988358805E+03  0.54988358805E+03  0.00000000000E+00 0. -1.
         21   -1    0    0  501  503 -0.00000000000E+00 -0.00000000000E+00 -0.39907410117E+03  0.39907410117E+03  0.00000000000E+00 0. -1.
          6    2    1    2  501    0 -0.83802769981E+00 -0.51859844537E+02 -0.36277521636E+03  0.40491502341E+03  0.17222129023E+03 0.  0.
         24    2    3    3    0    0  0.11098094659E+02 -0.77926742221E+02 -0.13193088772E+03  0.17224970963E+03  0.77900311119E+02 0.  0.
         -6    2    1    2    0  502  0.83802769981E+00  0.51859844537E+02  0.51358470324E+03  0.54404266581E+03  0.17182266748E+03 0.  0.
        -24    2    5    5    0    0  0.28045926025E+02  0.62728200356E+02  0.17585162574E+03  0.20500857826E+03  0.79895693232E+02 0.  0.
          5    1    3    3  501    0 -0.11936122359E+02  0.26066897684E+02 -0.23084432864E+03  0.23266531378E+03  0.47000000000E+01 0. -1.
        -13    1    4    4    0    0  0.30626748232E+02 -0.29854595423E+01 -0.22206755635E+02  0.37947999576E+02  0.00000000000E+00 0.  1.
         14    1    4    4    0    0 -0.19528653573E+02 -0.74941282679E+02 -0.10972413209E+03  0.13430171005E+03  0.00000000000E+00 0. -1.
         -5    1    5    5    0  502 -0.27207898325E+02 -0.10868355819E+02  0.33773307749E+03  0.33903408755E+03  0.47000000000E+01 0.  1.
         11    1    6    6    0    0 -0.10694155650E+02  0.65645780177E+02  0.10917349294E+03  0.12783812022E+03  0.00000000000E+00 0. -1.
        -12    1    6    6    0    0  0.38740081675E+02 -0.29175798216E+01  0.66678132803E+02  0.77170458041E+02  0.00000000000E+00 0.  1.
</event>
<event>
12    1  0.8500177E-002  0.2020185E+03  0.7818608E-02  0.1148542E+00
         21   -1    0    0  503  502  0.00000000000E+00  0.00000000000E+00  0.29027144268E+03  0.29027144268E+03  0.00000000000E+00 0. -1.
         21   -1    0    0  501  503 -0.00000000000E+00 -0.00000000000E+00 -0.57522708425E+03  0.57522708425E+03  0.00000000000E+00 0. -1.
          6    2    1    2  501    0 -0.92668182720E+02 -0.43812753139E+02 -0.51955120761E+03  0.55744499518E+03  0.17408192294E+03 0.  0.
         24    2    3    3    0    0 -0.46557857115E+02  0.18125347752E+02 -0.13086909495E+03  0.16113909670E+03  0.79642489800E+02 0.  0.
         -6    2    1    2    0  502  0.92668182720E+02  0.43812753139E+02  0.23459556604E+03  0.30805353176E+03  0.17133286140E+03 0.  0.
        -24    2    5    5    0    0  0.49698741789E+02 -0.61354930488E+01  0.22195083019E+03  0.24079894458E+03  0.78831158057E+02 0.  0.
          5    1    3    3  501    0 -0.46110325605E+02 -0.61938100890E+02 -0.38868211266E+03  0.39630589848E+03  0.47000000000E+01 0. -1.
        -13    1    4    4    0    0 -0.16052800433E+02 -0.31655771491E+02 -0.45281343212E+02  0.57534166489E+02  0.00000000000E+00 0.  1.
         14    1    4    4    0    0 -0.30505056682E+02  0.49781119243E+02 -0.85587751739E+02  0.10360493021E+03  0.00000000000E+00 0. -1.
         -5    1    5    5    0  502  0.42969440930E+02  0.49948246187E+02  0.12644735849E+02  0.67254587173E+02  0.47000000000E+01 0.  1.
         11    1    6    6    0    0  0.32158904707E+02 -0.33288550475E+02  0.60665605550E+02  0.76306214959E+02  0.00000000000E+00 0. -1.
        -12    1    6    6    0    0  0.17539837083E+02  0.27153057426E+02  0.16128522464E+03  0.16449272962E+03  0.00000000000E+00 0.  1.
</event>
<event>
12    1  0.8500177E-002  0.1814212E+03  0.7818608E-02  0.1166592E+00
         21   -1    0    0  503  502  0.00000000000E+00  0.00000000000E+00  0.14820001263E+03  0.14820001263E+03  0.00000000000E+00 0. -1.
         21   -1    0    0  501  503 -0.00000000000E+00 -0.00000000000E+00 -0.53867029446E+03  0.53867029446E+03  0.00000000000E+00 0. -1.
          6    2    1    2  501    0 -0.21247890734E+02 -0.51440737021E+02 -0.45870786322E+03  0.49304038980E+03  0.17198342919E+03 0.  0.
         24    2    3    3    0    0 -0.46806595726E+02  0.15241890824E+02 -0.16160244123E+03  0.18743681975E+03  0.81203692934E+02 0.  0.
         -6    2    1    2    0  502  0.21247890734E+02  0.51440737021E+02  0.68237581381E+02  0.19382991728E+03  0.17267323775E+03 0.  0.
        -24    2    5    5    0    0 -0.75927438718E+01  0.75358966560E+02  0.95645260951E+02  0.14717014009E+03  0.82306807677E+02 0.  0.
          5    1    3    3  501    0  0.25558704992E+02 -0.66682627845E+02 -0.29710542198E+03  0.30560357005E+03  0.47000000000E+01 0. -1.
        -13    1    4    4    0    0 -0.10394512972E+02  0.17327231462E+02  0.15426609460E+01  0.20264714478E+02  0.00000000000E+00 0.  1.
         14    1    4    4    0    0 -0.36412082754E+02 -0.20853406388E+01 -0.16314510218E+03  0.16717210527E+03  0.00000000000E+00 0. -1.
         -5    1    5    5    0  502  0.28840634606E+02 -0.23918229539E+02 -0.27407679570E+02  0.46659777198E+02  0.47000000000E+01 0.  1.
         11    1    6    6    0    0  0.17283089283E+02  0.78764739441E+02  0.49452247059E+02  0.94594471792E+02  0.00000000000E+00 0. -1.
        -12    1    6    6    0    0 -0.24875833155E+02 -0.34057728815E+01  0.46193013893E+02  0.52575668294E+02  0.00000000000E+00 0.  1.
</event>
<event>
12    1  0.8500177E-002  0.1734580E+03  0.7818608E-02  0.1174538E+00
         21   -1    0    0  501  502  0.00000000000E+00  0.00000000000E+00  0.36992583526E+03  0.36992583526E+03  0.00000000000E+00 0.  1.
         21   -1    0    0  502  503 -0.00000000000E+00 -0.00000000000E+00 -0.16307806172E+03  0.16307806172E+03  0.00000000000E+00 0.  1.
         -6    2    1    2    0  503 -0.20885344835E+02 -0.67544009814E+01 -0.85930152216E+02  0.19270021872E+03  0.17107765392E+03 0.  0.
        -24    2    3    3    0    0  0.95566334173E+01 -0.36301908082E+02  0.85799672247E+01  0.88998618476E+02  0.80237026867E+02 0.  0.
          6    2    1    2  501    0  0.20885344835E+02  0.67544009814E+01  0.29277792575E+03  0.34030367826E+03  0.17206353499E+03 0.  0.
         24    2    5    5    0    0  0.12489074749E+02 -0.30892282801E+02  0.28851243011E+03  0.30121333925E+03  0.79873295206E+02 0.  0.
          5    1    5    5  501    0  0.83962700855E+01  0.37646683782E+02  0.42654956333E+01  0.39090339013E+02  0.47000000000E+01 0. -1.
        -13    1    6    6    0    0  0.39095109345E+02 -0.27864679774E+02  0.24831497266E+03  0.25291341127E+03  0.00000000000E+00 0.  1.
         14    1    6    6    0    0 -0.26606034596E+02 -0.30276030267E+01  0.40197457454E+02  0.48299927979E+02  0.00000000000E+00 0. -1.
         -5    1    3    3    0  503 -0.30441978252E+02  0.29547507101E+02 -0.94510119440E+02  0.10370160024E+03  0.47000000000E+01 0.  1.
         11    1    4    4    0    0  0.33991498835E-02 -0.58604703757E+02 -0.86510803344E+01  0.59239788192E+02  0.00000000000E+00 0. -1.
        -12    1    4    4    0    0  0.95532342675E+01  0.22302795675E+02  0.17231047559E+02  0.29758830284E+02  0.00000000000E+00 0.  1.
</event>
<event>
12    1  0.8500177E-002  0.2014814E+03  0.7818608E-02  0.1148538E+00
         21   -1    0    0  503  502  0.00000000000E+00  0.00000000000E+00  0.91787560415E+03  0.91787560415E+03  0.00000000000E+00 0. -1.
         21   -1    0    0  501  503 -0.00000000000E+00 -0.00000000000E+00 -0.49450871611E+02  0.49450871611E+02  0.00000000000E+00 0.  1.
          6    2    1    2  501    0 -0.84118794108E+02 -0.63189471955E+02  0.59189024928E+03  0.62517727327E+03  0.17159159339E+03 0.  0.
         24    2    3    3    0    0 -0.92807424340E+02 -0.54071229573E+02  0.24434372487E+03  0.27737084539E+03  0.75457366166E+02 0.  0.
         -6    2    1    2    0  502  0.84118794108E+02  0.63189471955E+02  0.27653448325E+03  0.34214920249E+03  0.17183095021E+03 0.  0.
        -24    2    5    5    0    0 -0.18693610152E+02  0.10508059811E+01  0.83882366788E+02  0.11506214373E+03  0.76501569971E+02 0.  0.
          5    1    3    3  501    0  0.86886302324E+01 -0.91182423821E+01  0.34754652442E+03  0.34780642788E+03  0.47000000000E+01 0. -1.
        -13    1    4    4    0    0 -0.84654227281E+02 -0.11639444651E+02  0.13466643251E+03  0.15948938182E+03  0.00000000000E+00 0.  1.
         14    1    4    4    0    0 -0.81531970586E+01 -0.42431784922E+02  0.10967729236E+03  0.11788146357E+03  0.00000000000E+00 0. -1.
         -5    1    5    5    0  502  0.10281240426E+03  0.62138665974E+02  0.19265211646E+03  0.22708705876E+03  0.47000000000E+01 0.  1.
         11    1    6    6    0    0 -0.32978985137E+01  0.15696714726E+02 -0.99358957349E+01  0.18867565075E+02  0.00000000000E+00 0. -1.
        -12    1    6    6    0    0 -0.15395711638E+02 -0.14645908745E+02  0.93818262523E+02  0.96194578655E+02  0.00000000000E+00 0.  1.
</event>
<event>
12    1  0.8500177E-002  0.2833940E+03  0.7818608E-02  0.1094009E+00
         21   -1    0    0  501  502  0.00000000000E+00  0.00000000000E+00  0.12769166126E+03  0.12769166126E+03  0.00000000000E+00 0. -1.
         21   -1    0    0  502  503 -0.00000000000E+00 -0.00000000000E+00 -0.73276404552E+03  0.73276404552E+03  0.00000000000E+00 0.  1.
         -6    2    1    2    0  503  0.77477318001E+02 -0.20987292071E+03 -0.13803600158E+03  0.31416352368E+03  0.17203314862E+03 0.  0.
        -24    2    3    3    0    0  0.24396190941E+02 -0.17280961995E+03 -0.15710149530E+03  0.24651090093E+03  0.75022700383E+02 0.  0.
          6    2    1    2  501    0 -0.77477318001E+02  0.20987292071E+03 -0.46703638268E+03  0.54629218310E+03  0.17396203298E+03 0.  0.
         24    2    5    5    0    0 -0.48433601718E+02  0.14023937310E+03 -0.17138491742E+03  0.24112952595E+03  0.82205613097E+02 0.  0.
          5    1    5    5  501    0 -0.29043716283E+02  0.69633547616E+02 -0.29565146526E+03  0.30516265715E+03  0.47000000000E+01 0. -1.
        -11    1    6    6    0    0 -0.67424876251E+01  0.13248124670E+02 -0.74703756322E+02  0.76168399979E+02  0.00000000000E+00 0.  1.
         12    1    6    6    0    0 -0.41691114093E+02  0.12699124843E+03 -0.96681161101E+02  0.16496112597E+03  0.00000000000E+00 0. -1.
         -5    1    3    3    0  503  0.53081127060E+02 -0.37063300764E+02  0.19065493724E+02  0.67652622746E+02  0.47000000000E+01 0.  1.
         11    1    4    4    0    0  0.45799665937E+02 -0.77437831946E+02 -0.94285098724E+02  0.13032231988E+03  0.00000000000E+00 0. -1.
        -12    1    4    4    0    0 -0.21403474996E+02 -0.95371788002E+02 -0.62816396578E+02  0.11618858105E+03  0.00000000000E+00 0.  1.
</event>
<event>
12    1  0.8500177E-002  0.2106746E+03  0.7818608E-02  0.1141203E+00
         21   -1    0    0  501  502  0.00000000000E+00  0.00000000000E+00  0.68647468654E+03  0.68647468654E+03  0.00000000000E+00 0.  1.
         21   -1    0    0  502  503 -0.00000000000E+00 -0.00000000000E+00 -0.69177959510E+02  0.69177959510E+02  0.00000000000E+00 0.  1.
         -6    2    1    2    0  503 -0.80713743567E+02  0.91654890212E+02  0.40862007100E+03  0.45973269622E+03  0.17166380590E+03 0.  0.
        -24    2    3    3    0    0 -0.67031721069E+02  0.65957580700E+02  0.12393056266E+03  0.17351991591E+03  0.76855206562E+02 0.  0.
          6    2    1    2  501    0  0.80713743567E+02 -0.91654890212E+02  0.20867665603E+03  0.29591994983E+03  0.17060874137E+03 0.  0.
         24    2    5    5    0    0  0.11175006214E+03 -0.37979401381E+02  0.11096507926E+03  0.18010132694E+03  0.78693886893E+02 0.  0.
          5    1    5    5  501    0 -0.31036318569E+02 -0.53675488831E+02  0.97711576769E+02  0.11581862288E+03  0.47000000000E+01 0. -1.
        -13    1    6    6    0    0  0.64323140485E+02 -0.25378231689E+02  0.12756934759E+02  0.70315435219E+02  0.00000000000E+00 0.  1.
         14    1    6    6    0    0  0.47426921651E+02 -0.12601169693E+02  0.98208144505E+02  0.10978589173E+03  0.00000000000E+00 0. -1.
         -5    1    3    3    0  503 -0.13682022498E+02  0.25697309512E+02  0.28468950834E+03  0.28621278031E+03  0.47000000000E+01 0.  1.
         11    1    4    4    0    0 -0.73136372002E+02  0.45183823636E+02  0.12515137414E+03  0.15183337339E+03  0.00000000000E+00 0. -1.
        -12    1    4    4    0    0  0.61046509324E+01  0.20773757064E+02 -0.12208114814E+01  0.21686542515E+02  0.00000000000E+00 0.  1.
</event>
<event>
12    1  0.8500177E-002  0.2906010E+03  0.7818608E-02  0.1090088E+00
         21   -1    0    0  503  502  0.00000000000E+00  0.00000000000E+00  0.13164625724E+03  0.13164625724E+03  0.00000000000E+00 0. -1.
         21   -1    0    0  501  503 -0.00000000000E+00 -0.00000000000E+00 -0.65171952216E+03  0.65171952216E+03  0.00000000000E+00 0. -1.
          6    2    1    2  501    0 -0.28723462729E+02 -0.23228601086E+03 -0.31137955795E+03  0.42591803324E+03  0.17224144035E+03 0.  0.
         24    2    3    3    0    0  0.27990475271E+02 -0.39627341014E+02 -0.79940238138E+02  0.11945419754E+03  0.74330819825E+02 0.  0.
         -6    2    1    2    0  502  0.28723462729E+02  0.23228601086E+03 -0.20869370697E+03  0.35744774615E+03  0.17156339863E+03 0.  0.
        -24    2    5    5    0    0 -0.65861605711E+01  0.21897776863E+03 -0.12223014293E+03  0.26299184790E+03  0.78929484706E+02 0.  0.
          5    1    3    3  501    0 -0.56713938000E+02 -0.19265866985E+03 -0.23143931981E+03  0.30646383569E+03  0.47000000000E+01 0. -1.
        -13    1    4    4    0    0  0.20995553272E+02 -0.34800127322E+02 -0.16212536208E+01  0.40675429710E+02  0.00000000000E+00 0.  1.
         14    1    4    4    0    0  0.69949219995E+01 -0.48272136925E+01 -0.78318984517E+02  0.78778767835E+02  0.00000000000E+00 0. -1.
         -5    1    5    5    0  502  0.35309623300E+02  0.13308242233E+02 -0.86463564039E+02  0.94455898256E+02  0.47000000000E+01 0.  1.
         11    1    6    6    0    0 -0.33207181058E+02  0.46429062310E+02 -0.18973758111E+02  0.60152956683E+02  0.00000000000E+00 0. -1.
        -12    1    6    6    0    0  0.26621020487E+02  0.17254870632E+03 -0.10325638482E+03  0.20283889122E+03  0.00000000000E+00 0.  1.
</event>
<event>
12    1  0.8500177E-002  0.2427544E+03  0.7818608E-02  0.1118338E+00
         21   -1    0    0  501  502  0.00000000000E+00  0.00000000000E+00  0.10999836331E+03  0.10999836331E+03  0.00000000000E+00 0. -1.
         21   -1    0    0  502  503 -0.00000000000E+00 -0.00000000000E+00 -0.54380704722E+03  0.54380704722E+03  0.00000000000E+00 0.  1.
         -6    2    1    2    0  503  0.26612373683E+02 -0.16734013974E+03 -0.16543853733E+03  0.29193219301E+03  0.17071483498E+03 0.  0.
        -24    2    3    3    0    0 -0.21174537581E+02 -0.45430718650E+02 -0.12294327011E+03  0.15418810575E+03  0.78400338341E+02 0.  0.
          6    2    1    2  501    0 -0.26612373683E+02  0.16734013974E+03 -0.26837014659E+03  0.36187321752E+03  0.17383540830E+03 0.  0.
         24    2    5    5    0    0 -0.48400139362E+02  0.18790765473E+03 -0.25030996994E+03  0.32657464267E+03  0.79649582480E+02 0.  0.
          5    1    5    5  501    0  0.21787765679E+02 -0.20567514987E+02 -0.18060176648E+02  0.35298574852E+02  0.47000000000E+01 0. -1.
        -11    1    6    6    0    0 -0.60883491591E+02  0.84578356670E+02 -0.14445681483E+03  0.17812374720E+03  0.00000000000E+00 0.  1.
         12    1    6    6    0    0  0.12483352229E+02  0.10332929806E+03 -0.10585315511E+03  0.14845089547E+03  0.00000000000E+00 0. -1.
         -5    1    3    3    0  503  0.47786911264E+02 -0.12190942109E+03 -0.42495267215E+02  0.13774408726E+03  0.47000000000E+01 0.  1.
         13    1    4    4    0    0  0.83239731000E+01 -0.21209446329E+02  0.26361053433E+01  0.22936394510E+02  0.00000000000E+00 0. -1.
        -14    1    4    4    0    0 -0.29498510681E+02 -0.24221272321E+02 -0.12557937545E+03  0.13125171124E+03  0.00000000000E+00 0.  1.
</event>
<event>
12    1  0.8500177E-002  0.1768437E+03  0.7818608E-02  0.1172018E+00
         21   -1    0    0  503  502  0.00000000000E+00  0.00000000000E+00  0.18798965869E+03  0.18798965869E+03  0.00000000000E+00 0.  1.
         21   -1    0    0  501  503 -0.00000000000E+00 -0.00000000000E+00 -0.30679461773E+03  0.30679461773E+03  0.00000000000E+00 0.  1.
          6    2    1    2  501    0  0.13398150092E+02 -0.38927180046E+02 -0.22884927304E+03  0.28649737783E+03  0.16737359994E+03 0.  0.
         24    2    3    3    0    0  0.53032215453E+02 -0.67773620114E+02 -0.19164802059E+03  0.22478028598E+03  0.79947068190E+02 0.  0.
         -6    2    1    2    0  502 -0.13398150092E+02  0.38927180046E+02  0.11004431401E+03  0.20828689859E+03  0.17198501478E+03 0.  0.
        -24    2    5    5    0    0  0.20338465797E+02  0.83669949392E+02  0.51890147581E+02  0.12739146156E+03  0.78241187614E+02 0.  0.
          5    1    3    3  501    0 -0.39634065361E+02  0.28846440068E+02 -0.37201252454E+02  0.61717091845E+02  0.47000000000E+01 0. -1.
        -11    1    4    4    0    0  0.64239608475E+01 -0.68261930069E+02 -0.13506623791E+03  0.15147226476E+03  0.00000000000E+00 0.  1.
         12    1    4    4    0    0  0.46608254605E+02  0.48830995559E+00 -0.56581782679E+02  0.73308021219E+02  0.00000000000E+00 0. -1.
         -5    1    5    5    0  502 -0.33736615889E+02 -0.44742769346E+02  0.58154166426E+02  0.80895437035E+02  0.47000000000E+01 0.  1.
         13    1    6    6    0    0  0.49737973723E+02  0.43527244586E+02  0.23775281354E+02  0.70240665250E+02  0.00000000000E+00 0. -1.
        -14    1    6    6    0    0 -0.29399507927E+02  0.40142704805E+02  0.28114866227E+02  0.57150796306E+02  0.00000000000E+00 0.  1.
</event>
<event>
12    1  0.8500177E-002  0.2058051E+03  0.7818608E-02  0.1145223E+00
         21   -1    0    0  503  502  0.00000000000E+00  0.00000000000E+00  0.55565295067E+03  0.55565295067E+03  0.00000000000E+00 0. -1.
         21   -1    0    0  501  503 -0.00000000000E+00 -0.00000000000E+00 -0.14627761260E+03  0.14627761260E+03  0.00000000000E+00 0. -1.
          6    2    1    2  501    0 -0.84482018473E+02  0.72325576670E+02 -0.39467709707E+02  0.20815346726E+03  0.17147001294E+03 0.  0.
         24    2    3    3    0    0 -0.49406417445E+01  0.61187510010E+02  0.25547090279E+02  0.10471313974E+03  0.80894168459E+02 0.  0.
         -6    2    1    2    0  502  0.84482018473E+02 -0.72325576670E+02  0.44884304778E+03  0.49377709601E+03  0.17316910383E+03 0.  0.
        -24    2    5    5    0    0  0.96939173405E+02 -0.10827600132E+03  0.33401267340E+03  0.37271629054E+03  0.78943469911E+02 0.  0.
          5    1    3    3  501    0 -0.79541376728E+02  0.11138066660E+02 -0.65014799986E+02  0.10344032752E+03  0.47000000000E+01 0. -1.
        -11    1    4    4    0    0 -0.35988286076E+02  0.57462604209E+01  0.60137174744E+00  0.36449113727E+02  0.00000000000E+00 0.  1.
         12    1    4    4    0    0  0.31047644332E+02  0.55441249589E+02  0.24945718532E+02  0.68264026014E+02  0.00000000000E+00 0. -1.
         -5    1    5    5    0  502 -0.12457154932E+02  0.35950424648E+02  0.11483037438E+03  0.12106080547E+03  0.47000000000E+01 0.  1.
         13    1    6    6    0    0  0.47152840187E+02 -0.31111840778E+02  0.21554161510E+03  0.22282173326E+03  0.00000000000E+00 0. -1.
        -14    1    6    6    0    0  0.49786333219E+02 -0.77164160540E+02  0.11847105830E+03  0.14989455728E+03  0.00000000000E+00 0.  1.
</event>
<event>
12    1  0.8500177E-002  0.2111768E+03  0.7818608E-02  0.1141096E+00
         21   -1    0    0  501  502  0.00000000000E+00  0.00000000000E+00  0.16032634109E+03  0.16032634109E+03  0.00000000000E+00 0. -1.
         21   -1    0    0  502  503 -0.00000000000E+00 -0.00000000000E+00 -0.34454421191E+03  0.34454421191E+03  0.00000000000E+00 0. -1.
         -6    2    1    2    0  503  0.22877526710E+02  0.11567707470E+03 -0.20502621730E+03  0.29267102764E+03  0.17238333389E+03 0.  0.
        -24    2    3    3    0    0  0.35575322481E+02  0.12159806907E+03 -0.85306398205E+02  0.17204260116E+03  0.79181949126E+02 0.  0.
          6    2    1    2  501    0 -0.22877526710E+02 -0.11567707470E+03  0.20808346480E+02  0.21219952536E+03  0.17518871094E+03 0.  0.
         24    2    5    5    0    0 -0.14966395222E+02 -0.14404009119E+03  0.50659451686E+02  0.17000681049E+03  0.73242028328E+02 0.  0.
          5    1    5    5  501    0 -0.79111314878E+01  0.28363016488E+02 -0.29851105206E+02  0.42192714866E+02  0.47000000000E+01 0. -1.
        -11    1    6    6    0    0 -0.30221382049E+02 -0.20126816114E+02  0.19978461958E+02  0.41443450653E+02  0.00000000000E+00 0.  1.
         12    1    6    6    0    0  0.15254986827E+02 -0.12391327507E+03  0.30680989729E+02  0.12856335984E+03  0.00000000000E+00 0. -1.
         -5    1    3    3    0  503 -0.12697795772E+02 -0.59209943729E+01 -0.11971981909E+03  0.12062842648E+03  0.47000000000E+01 0.  1.
         11    1    4    4    0    0  0.67187095288E+01  0.64067000952E+02  0.94306192335E+00  0.64425236007E+02  0.00000000000E+00 0. -1.
        -12    1    4    4    0    0  0.28856612953E+02  0.57531068121E+02 -0.86249460128E+02  0.10761736515E+03  0.00000000000E+00 0.  1.
</event>
<event>
12    1  0.8500177E-002  0.1939512E+03  0.7818608E-02  0.1155102E+00
         21   -1    0    0  501  502  0.00000000000E+00  0.00000000000E+00  0.55226868067E+02  0.55226868067E+02  0.00000000000E+00 0.  1.
         21   -1    0    0  502  503 -0.00000000000E+00 -0.00000000000E+00 -0.83753555616E+03  0.83753555616E+03  0.00000000000E+00 0.  1.
         -6    2    1    2    0  503 -0.37516577481E+02 -0.78304811205E+02 -0.58500510812E+03  0.61609339524E+03  0.17262954002E+03 0.  0.
        -24    2    3    3    0    0  0.36513848131E+02 -0.65044263872E+02 -0.25208025003E+03  0.27474694782E+03  0.79858722207E+02 0.  0.
          6    2    1    2  501    0  0.37516577481E+02  0.78304811205E+02 -0.19730357997E+03  0.27666902899E+03  0.17342984716E+03 0.  0.
         24    2    5    5    0    0  0.32387600364E+02 -0.13869836370E+02 -0.43136626524E+02  0.96913607380E+02  0.79310464186E+02 0.  0.
          5    1    5    5  501    0  0.51289771167E+01  0.92174647575E+02 -0.15416695345E+03  0.17975542161E+03  0.47000000000E+01 0. -1.
        -11    1    6    6    0    0  0.16665318214E+02  0.28702141168E+02 -0.39196311051E+02  0.51360456957E+02  0.00000000000E+00 0.  1.
         12    1    6    6    0    0  0.15722282150E+02 -0.42571977538E+02 -0.39403154728E+01  0.45553150423E+02  0.00000000000E+00 0. -1.
         -5    1    3    3    0  503 -0.74030425612E+02 -0.13260547333E+02 -0.33292485809E+03  0.34134644742E+03  0.47000000000E+01 0.  1.
         11    1    4    4    0    0  0.23006698935E+02  0.15250201537E+02 -0.55990018578E+02  0.62424026009E+02  0.00000000000E+00 0. -1.
        -12    1    4    4    0    0  0.13507149196E+02 -0.80294465409E+02 -0.19609023146E+03  0.21232292181E+03  0.00000000000E+00 0.  1.
</event>
<event>
12    1  0.8500177E-002  0.2583577E+03  0.7818608E-02  0.1108365E+00
         21   -1    0    0  501  502  0.00000000000E+00  0.00000000000E+00  0.10385819123E+03  0.10385819123E+03  0.00000000000E+00 0. -1.
         21   -1    0    0  502  503 -0.00000000000E+00 -0.00000000000E+00 -0.78098631495E+03  0.78098631495E+03  0.00000000000E+00 0.  1.
         -6    2    1    2    0  503 -0.19027001954E+03  0.14779570811E+02 -0.52644899983E+03  0.58575770088E+03  0.17187908155E+03 0.  0.
        -24    2    3    3    0    0 -0.89618496809E+02 -0.24222394678E+02 -0.40603967534E+03  0.42397890819E+03  0.79194048205E+02 0.  0.
          6    2    1    2  501    0  0.19027001954E+03 -0.14779570811E+02 -0.15067912389E+03  0.29908680530E+03  0.17414822043E+03 0.  0.
         24    2    5    5    0    0  0.17037581749E+03  0.14460580722E+02 -0.54000567187E+02  0.19603536638E+03  0.79226107029E+02 0.  0.
          5    1    5    5  501    0  0.19894202053E+02 -0.29240151533E+02 -0.96678556708E+02  0.10305143892E+03  0.47000000000E+01 0. -1.
        -13    1    6    6    0    0 -0.45131126896E+01 -0.99108353399E+01  0.13764520769E+01  0.10976678168E+02  0.00000000000E+00 0.  1.
         14    1    6    6    0    0  0.17488893017E+03  0.24371416062E+02 -0.55377019264E+02  0.18505868821E+03  0.00000000000E+00 0. -1.
         -5    1    3    3    0  503 -0.10065152273E+03  0.39001965488E+02 -0.12040932449E+03  0.16177879269E+03  0.47000000000E+01 0.  1.
         13    1    4    4    0    0  0.13505285511E+02  0.46634183837E+01 -0.35311575052E+02  0.38092617925E+02  0.00000000000E+00 0. -1.
        -14    1    4    4    0    0 -0.10312378232E+03 -0.28885813061E+02 -0.37072810028E+03  0.38588629027E+03  0.00000000000E+00 0.  1.
</event>
<event>
12    1  0.8500177E-002  0.1762280E+03  0.7818608E-02  0.1171989E+00
         21   -1    0    0  503  502  0.00000000000E+00  0.00000000000E+00  0.46406478452E+02  0.46406478452E+02  0.00000000000E+00 0.  1.
         21   -1    0    0  501  503 -0.00000000000E+00 -0.00000000000E+00 -0.87306532018E+03  0.87306532018E+03  0.00000000000E+00 0.  1.
          6    2    1    2  501    0  0.38267809463E+02 -0.14631625375E+02 -0.18895833129E+03  0.25838256734E+03  0.17139950537E+03 0.  0.
         24    2    3    3    0    0  0.31485687582E+02 -0.60470794974E+02 -0.18511758980E+03  0.21164855466E+03  0.76671527107E+02 0.  0.
         -6    2    1    2    0  502 -0.38267809463E+02  0.14631625375E+02 -0.63770051044E+03  0.66108923129E+03  0.16940637830E+03 0.  0.
        -24    2    5    5    0    0  0.19201720831E+02  0.40312778984E+02 -0.21390191568E+03  0.23261565277E+03  0.79763313322E+02 0.  0.
          5    1    3    3  501    0  0.67821218806E+01  0.45839169599E+02 -0.38407414922E+01  0.46734012688E+02  0.47000000000E+01 0. -1.
        -13    1    4    4    0    0  0.48099389242E+02 -0.41632692228E+02 -0.73348278189E+02  0.97091720661E+02  0.00000000000E+00 0.  1.
         14    1    4    4    0    0 -0.16613701660E+02 -0.18838102746E+02 -0.11176931161E+03  0.11455683400E+03  0.00000000000E+00 0. -1.
         -5    1    5    5    0  502 -0.57469530294E+02 -0.25681153609E+02 -0.42379859477E+03  0.42847357852E+03  0.47000000000E+01 0.  1.
         13    1    6    6    0    0 -0.17010373271E+02 -0.14639218192E+02 -0.31282978766E+02  0.38500445044E+02  0.00000000000E+00 0. -1.
        -14    1    6    6    0    0  0.36212094103E+02  0.54951997176E+02 -0.18261893691E+03  0.19411520773E+03  0.00000000000E+00 0.  1.
</event>
<event>
12    1  0.8500177E-002  0.1854732E+03  0.7818608E-02  0.1162841E+00
         21   -1    0    0  503  502  0.00000000000E+00  0.00000000000E+00  0.68094495088E+02  0.68094495088E+02  0.00000000000E+00 0. -1.
         21   -1    0    0  501  503 -0.00000000000E+00 -0.00000000000E+00 -0.13948779274E+04  0.13948779274E+04  0.00000000000E+00 0. -1.
          6    2    1    2  501    0  0.59252412146E+02  0.38352705380E+02 -0.12478319835E+04  0.12613945474E+04  0.17043992166E+03 0.  0.
         24    2    3    3    0    0  0.94282944176E+01 -0.17926927881E+02 -0.31559453242E+03  0.32611993802E+03  0.79649467035E+02 0.  0.
         -6    2    1    2    0  502 -0.59252412146E+02 -0.38352705380E+02 -0.78951448863E+02  0.20157787510E+03  0.17151830835E+03 0.  0.
        -24    2    5    5    0    0 -0.18496708765E+02 -0.85591591907E+02 -0.71262641017E+02  0.13854020760E+03  0.80293064936E+02 0.  0.
          5    1    3    3  501    0  0.49824117729E+02  0.56279633262E+02 -0.93223745103E+03  0.93527460937E+03  0.47000000000E+01 0. -1.
        -11    1    4    4    0    0 -0.35301504128E+02 -0.53700431202E+01 -0.14054762969E+03  0.14501265382E+03  0.00000000000E+00 0.  1.
         12    1    4    4    0    0  0.44729798546E+02 -0.12556884761E+02 -0.17504690274E+03  0.18110728420E+03  0.00000000000E+00 0. -1.
         -5    1    5    5    0  502 -0.40755703382E+02  0.47238886526E+02 -0.76888078457E+01  0.63037667505E+02  0.47000000000E+01 0.  1.
         13    1    6    6    0    0  0.20540390786E+01 -0.77378085555E+02 -0.16042605412E+02  0.79050315553E+02  0.00000000000E+00 0. -1.
        -14    1    6    6    0    0 -0.20550747843E+02 -0.82135063520E+01 -0.55220035605E+02  0.59489892047E+02  0.00000000000E+00 0.  1.
</event>
<event>
12    1  0.8500177E-002  0.3711185E+03  0.7818608E-02  0.1054286E+00
         21   -1    0    0  501  502  0.00000000000E+00  0.00000000000E+00  0.23175181796E+04  0.23175181796E+04  0.00000000000E+00 0.  1.
         21   -1    0    0  502  503 -0.00000000000E+00 -0.00000000000E+00 -0.17594823815E+03  0.17594823815E+03  0.00000000000E+00 0. -1.
         -6    2    1    2    0  503  0.64036225447E+01  0.32792818351E+03  0.55976674884E+02  0.37511134431E+03  0.17319709170E+03 0.  0.
        -24    2    3    3    0    0  0.47421262229E+02  0.27666350465E+03  0.50309827695E+01  0.29187632999E+03  0.79843661629E+02 0.  0.
          6    2    1    2  501    0 -0.64036225447E+01 -0.32792818351E+03  0.20855932665E+04  0.21183550734E+04  0.17364055906E+03 0.  0.
         24    2    5    5    0    0 -0.47385548051E+02 -0.30711480994E+03  0.19128723455E+04  0.19395609983E+04  0.79065537842E+02 0.  0.
          5    1    5    5  501    0  0.40981925506E+02 -0.20813373575E+02  0.17272092104E+03  0.17879407513E+03  0.47000000000E+01 0. -1.
        -13    1    6    6    0    0  0.13311983625E+02 -0.15186001127E+03  0.82022350758E+03  0.83426930563E+03  0.00000000000E+00 0.  1.
         14    1    6    6    0    0 -0.60697531676E+02 -0.15525479867E+03  0.10926488379E+04  0.11052916926E+04  0.00000000000E+00 0. -1.
         -5    1    3    3    0  503 -0.41017639684E+02  0.51264678863E+02  0.50945692115E+02  0.83235014322E+02  0.47000000000E+01 0.  1.
         11    1    4    4    0    0  0.33034474986E+02  0.21793877927E+03  0.36954903819E+02  0.22350448086E+03  0.00000000000E+00 0. -1.
        -12    1    4    4    0    0  0.14386787243E+02  0.58724725378E+02 -0.31923921049E+02  0.68371849127E+02  0.00000000000E+00 0.  1.
</event>
<event>
12    1  0.8500177E-002  0.2185677E+03  0.7818608E-02  0.1135039E+00
         21   -1    0    0  503  502  0.00000000000E+00  0.00000000000E+00  0.77464472782E+03  0.77464472782E+03  0.00000000000E+00 0. -1.
         21   -1    0    0  501  503 -0.00000000000E+00 -0.00000000000E+00 -0.63312461559E+02  0.63312461559E+02  0.00000000000E+00 0.  1.
          6    2    1    2  501    0 -0.12655237918E+03  0.40715739235E+02  0.28598898843E+03  0.35994656949E+03  0.17348935207E+03 0.  0.
         24    2    3    3    0    0 -0.92133846091E+02 -0.21932764661E+02  0.99684136701E+02  0.16034431940E+03  0.82484434245E+02 0.  0.
         -6    2    1    2    0  502  0.12655237918E+03 -0.40715739235E+02  0.42534327783E+03  0.47801061989E+03  0.17292765147E+03 0.  0.
        -24    2    5    5    0    0  0.15739447655E+02 -0.38887509257E+02  0.10220353247E+03  0.13636133591E+03  0.79930490383E+02 0.  0.
          5    1    3    3  501    0 -0.34418533085E+02  0.62648503896E+02  0.18630485173E+03  0.19960225009E+03  0.47000000000E+01 0. -1.
        -11    1    4    4    0    0 -0.14361907564E+02 -0.92846119657E+01 -0.13946786174E+02  0.22067651729E+02  0.00000000000E+00 0.  1.
         12    1    4    4    0    0 -0.77771938527E+02 -0.12648152695E+02  0.11363092288E+03  0.13827666767E+03  0.00000000000E+00 0. -1.
         -5    1    5    5    0  502  0.11081293152E+03 -0.18282299775E+01  0.32313974536E+03  0.34164928398E+03  0.47000000000E+01 0.  1.
         11    1    6    6    0    0  0.14655510309E+02  0.51254986695E+01  0.89076776835E+02  0.90419726223E+02  0.00000000000E+00 0. -1.
        -12    1    6    6    0    0  0.10839373459E+01 -0.44013007927E+02  0.13126755633E+02  0.45941609685E+02  0.00000000000E+00 0.  1.
</event>
<event>
12    1  0.8500177E-002  0.2099442E+03  0.7818608E-02  0.1141649E+00
         21   -1    0    0  501  502  0.00000000000E+00  0.00000000000E+00  0.33232455550E+03  0.33232455550E+03  0.00000000000E+00 0.  1.
         21   -1    0    0  502  503 -0.00000000000E+00 -0.00000000000E+00 -0.13425304764E+03  0.13425304764E+03  0.00000000000E+00 0. -1.
         -6    2    1    2    0  503 -0.29921273378E+02  0.11630633709E+03  0.12560370538E+03  0.24447816651E+03  0.17196172960E+03 0.  0.
        -24    2    3    3    0    0 -0.80808319855E+02  0.49355125846E+02  0.59222927645E+02  0.13723799755E+03  0.79755876318E+02 0.  0.
          6    2    1    2  501    0  0.29921273378E+02 -0.11630633709E+03  0.72467802484E+02  0.22209943663E+03  0.17220374765E+03 0.  0.
         24    2    5    5    0    0  0.81674830085E+02 -0.49612909439E+02  0.53077954025E+02  0.13535555991E+03  0.79822551599E+02 0.  0.
          5    1    5    5  501    0 -0.51753556706E+02 -0.66693427655E+02  0.19389848459E+02  0.86743876714E+02  0.47000000000E+01 0. -1.
        -13    1    6    6    0    0  0.52940305414E+02  0.13191331338E+02  0.31491282168E+02  0.62995142768E+02  0.00000000000E+00 0.  1.
         14    1    6    6    0    0  0.28734524670E+02 -0.62804240777E+02  0.21586671857E+02  0.72360417145E+02  0.00000000000E+00 0. -1.
         -5    1    3    3    0  503  0.50887046477E+02  0.66951211247E+02  0.66380777738E+02  0.10724016897E+03  0.47000000000E+01 0.  1.
         11    1    4    4    0    0 -0.17285203760E+02  0.56819140515E+02  0.34374111166E+02  0.68620496328E+02  0.00000000000E+00 0. -1.
        -12    1    4    4    0    0 -0.63523116095E+02 -0.74640146684E+01  0.24848816480E+02  0.68617501221E+02  0.00000000000E+00 0.  1.
</event>
<event>
12    1  0.8500177E-002  0.2121553E+03  0.7818608E-02  0.1139875E+00
         21   -1    0    0  501  502  0.00000000000E+00  0.00000000000E+00  0.51361283184E+02  0.51361283184E+02  0.00000000000E+00 0. -1.
         21   -1    0    0  502  503 -0.00000000000E+00 -0.00000000000E+00 -0.98592446217E+03  0.98592446217E+03  0.00000000000E+00 0.  1.
         -6    2    1    2    0  503  0.11355714832E+03  0.50116760206E+02 -0.64024093824E+03  0.67446971423E+03  0.17202912785E+03 0.  0.
        -24    2    3    3    0    0  0.14531662247E+03  0.29049300290E+02 -0.45033157906E+03  0.48071689033E+03  0.79557620225E+02 0.  0.
          6    2    1    2  501    0 -0.11355714832E+03 -0.50116760206E+02 -0.29432224075E+03  0.36281603113E+03  0.17205515236E+03 0.  0.
         24    2    5    5    0    0  0.70249569764E+01 -0.46013117936E+02 -0.11852626657E+03  0.14954812793E+03  0.78419446930E+02 0.  0.
          5    1    5    5  501    0 -0.12058210530E+03 -0.41036422709E+01 -0.17579597418E+03  0.21326790320E+03  0.47000000000E+01 0. -1.
        -11    1    6    6    0    0  0.14720775437E+02 -0.41812777304E+01  0.71341940446E+01  0.16884342972E+02  0.00000000000E+00 0.  1.
         12    1    6    6    0    0 -0.76958184605E+01 -0.41831840205E+02 -0.12566046061E+03  0.13266378496E+03  0.00000000000E+00 0. -1.
         -5    1    3    3    0  503 -0.31759474150E+02  0.21067459916E+02 -0.18990935918E+03  0.19375282390E+03  0.47000000000E+01 0.  1.
         11    1    4    4    0    0  0.63932148726E+01  0.22160190022E+02 -0.29204483090E+02  0.37213560038E+02  0.00000000000E+00 0. -1.
        -12    1    4    4    0    0  0.13892340760E+03  0.68891102688E+01 -0.42112709597E+03  0.44350333029E+03  0.00000000000E+00 0.  1.
</event>
<event>
12    1  0.8500177E-002  0.1753307E+03  0.7818608E-02  0.1173756E+00
         21   -1    0    0  503  502  0.00000000000E+00  0.00000000000E+00  0.42233596451E+03  0.42233596451E+03  0.00000000000E+00 0. -1.
         21   -1    0    0  501  503 -0.00000000000E+00 -0.00000000000E+00 -0.24279892527E+03  0.24279892527E+03  0.00000000000E+00 0. -1.
          6    2    1    2  501    0  0.10084222595E+02 -0.21018232248E+00 -0.18989742184E+03  0.25846061031E+03  0.17504033975E+03 0.  0.
         24    2    3    3    0    0  0.49137928008E+02  0.13890140487E+02 -0.41101426960E+02  0.10390851844E+03  0.80623699583E+02 0.  0.
         -6    2    1    2    0  502 -0.10084222595E+02  0.21018232248E+00  0.36943446107E+03  0.40667427947E+03  0.16970684379E+03 0.  0.
        -24    2    5    5    0    0 -0.57712648075E+02  0.36206327639E+02  0.28533541038E+03  0.30343218670E+03  0.77544487868E+02 0.  0.
          5    1    3    3  501    0 -0.39053705413E+02 -0.14100322809E+02 -0.14879599488E+03  0.15455209187E+03  0.47000000000E+01 0. -1.
        -11    1    4    4    0    0  0.19580131814E+02  0.46571396214E+02 -0.15029864335E+02  0.52708380066E+02  0.00000000000E+00 0.  1.
         12    1    4    4    0    0  0.29557796194E+02 -0.32681255728E+02 -0.26071562626E+02  0.51200138374E+02  0.00000000000E+00 0. -1.
         -5    1    5    5    0  502  0.47628425479E+02 -0.35996145316E+02  0.84099050692E+02  0.10324209277E+03  0.47000000000E+01 0.  1.
         13    1    6    6    0    0  0.34238253747E+01  0.38794910961E+02  0.14879016594E+03  0.15380273462E+03  0.00000000000E+00 0. -1.
        -14    1    6    6    0    0 -0.61136473449E+02 -0.25885833224E+01  0.13654524444E+03  0.14962945208E+03  0.00000000000E+00 0.  1.
</event>
<event>
12    1  0.8500177E-002  0.1748170E+03  0.7818608E-02  0.1173258E+00
         21   -1    0    0  503  502  0.00000000000E+00  0.00000000000E+00  0.23433131354E+03  0.23433131354E+03  0.00000000000E+00 0. -1.
         21   -1    0    0  501  503 -0.00000000000E+00 -0.00000000000E+00 -0.12984892455E+03  0.12984892455E+03  0.00000000000E+00 0. -1.
          6    2    1    2  501    0  0.13366896811E+02 -0.18447511135E+02  0.62654024388E+02  0.18442875699E+03  0.17195771292E+03 0.  0.
         24    2    3    3    0    0  0.57560230249E+00 -0.71667032659E+02  0.70123795704E+02  0.12898669561E+03  0.81140162875E+02 0.  0.
         -6    2    1    2    0  502 -0.13366896811E+02  0.18447511135E+02  0.41828364599E+02  0.17975148111E+03  0.17332627694E+03 0.  0.
        -24    2    5    5    0    0  0.48813827908E+02 -0.27243221857E+02  0.22722650244E+02  0.10011980444E+03  0.79891635831E+02 0.  0.
          5    1    3    3  501    0  0.12791294508E+02  0.53219521524E+02 -0.74697713163E+01  0.55442061379E+02  0.47000000000E+01 0. -1.
        -11    1    4    4    0    0 -0.84871033137E+01 -0.78870428219E+01 -0.17036823608E+02  0.20603148444E+02  0.00000000000E+00 0.  1.
         12    1    4    4    0    0  0.90627056162E+01 -0.63779989837E+02  0.87160619312E+02  0.10838354716E+03  0.00000000000E+00 0. -1.
         -5    1    5    5    0  502 -0.62180724718E+02  0.45690732992E+02  0.19105714355E+02  0.79631676667E+02  0.47000000000E+01 0.  1.
         11    1    6    6    0    0 -0.77380043500E+01 -0.14024674264E+02 -0.21721651227E+02  0.26988855692E+02  0.00000000000E+00 0. -1.
        -12    1    6    6    0    0  0.56551832258E+02 -0.13218547593E+02  0.44444301471E+02  0.73130948752E+02  0.00000000000E+00 0.  1.
</event>
<event>
12    1  0.8500177E-002  0.1905670E+03  0.7818608E-02  0.1158266E+00
         21   -1    0    0  503  502  0.00000000000E+00  0.00000000000E+00  0.21587088095E+03  0.21587088095E+03  0.00000000000E+00 0. -1.
         21   -1    0    0  501  503 -0.00000000000E+00 -0.00000000000E+00 -0.20353442365E+03  0.20353442365E+03  0.00000000000E+00 0.  1.
          6    2    1    2  501    0  0.40938481836E+02 -0.71100961439E+02 -0.82660110267E+02  0.20772213423E+03  0.17200141049E+03 0.  0.
         24    2    3    3    0    0  0.72352212504E+02 -0.83918362380E+02 -0.10033963431E+03  0.16917652733E+03  0.79218185971E+02 0.  0.
         -6    2    1    2    0  502 -0.40938481836E+02  0.71100961439E+02  0.94996567563E+02  0.21168317037E+03  0.17045266427E+03 0.  0.
        -24    2    5    5    0    0  0.20119603505E+02  0.14133410684E+01  0.62620880072E+01  0.83307346787E+02  0.80586005635E+02 0.  0.
          5    1    3    3  501    0 -0.31413730668E+02  0.12817400941E+02  0.17679524038E+02  0.38545606904E+02  0.47000000000E+01 0. -1.
        -13    1    4    4    0    0  0.40368906032E+02 -0.17340657185E+02 -0.82067837642E+02  0.93088543554E+02  0.00000000000E+00 0.  1.
         14    1    4    4    0    0  0.31983306472E+02 -0.66577705195E+02 -0.18271796663E+02  0.76087983777E+02  0.00000000000E+00 0. -1.
         -5    1    5    5    0  502 -0.61058085340E+02  0.69687620371E+02  0.88734479555E+02  0.12837582358E+03  0.47000000000E+01 0.  1.
         13    1    6    6    0    0  0.42148933033E+02  0.25699300845E+02  0.97971523347E+01  0.50328628171E+02  0.00000000000E+00 0. -1.
        -14    1    6    6    0    0 -0.22029329528E+02 -0.24285959776E+02 -0.35350643275E+01  0.32978718616E+02  0.00000000000E+00 0.  1.
</event>
<event>
12    1  0.8500177E-002  0.2650767E+03  0.7818608E-02  0.1104372E+00
         21   -1    0    0  503  502  0.00000000000E+00  0.00000000000E+00  0.46362589753E+03  0.46362589753E+03  0.00000000000E+00 0. -1.
         21   -1    0    0  501  503 -0.00000000000E+00 -0.00000000000E+00 -0.17608196185E+03  0.17608196185E+03  0.00000000000E+00 0.  1.
          6    2    1    2  501    0 -0.19650604587E+03 -0.41765900754E+02  0.22523188556E+02  0.26603186348E+03  0.17293536895E+03 0.  0.
         24    2    3    3    0    0 -0.16725209270E+03 -0.82808422539E+02 -0.14256408637E+02  0.20346101452E+03  0.79766170047E+02 0.  0.
         -6    2    1    2    0  502  0.19650604587E+03  0.41765900754E+02  0.26502074713E+03  0.37367599590E+03  0.17040756136E+03 0.  0.
        -24    2    5    5    0    0  0.14259822803E+03 -0.11843755234E+02  0.99879644533E+02  0.19181417525E+03  0.79637963698E+02 0.  0.
          5    1    3    3  501    0 -0.29253953172E+02  0.41042521785E+02  0.36779597192E+02  0.62570848966E+02  0.47000000000E+01 0. -1.
        -11    1    4    4    0    0 -0.73602219317E+02 -0.73362399131E+02 -0.29692687106E+02  0.10807860085E+03  0.00000000000E+00 0.  1.
         12    1    4    4    0    0 -0.93649873386E+02 -0.94460234085E+01  0.15436278470E+02  0.95382413665E+02  0.00000000000E+00 0. -1.
         -5    1    5    5    0  502  0.53907817848E+02  0.53609655988E+02  0.16514110260E+03  0.18186182064E+03  0.47000000000E+01 0.  1.
         13    1    6    6    0    0  0.23101340110E+02 -0.21109138703E+02 -0.60310128889E+01  0.31869119350E+02  0.00000000000E+00 0. -1.
        -14    1    6    6    0    0  0.11949688792E+03  0.92653834695E+01  0.10591065742E+03  0.15994505590E+03  0.00000000000E+00 0.  1.
</event>
<event>
12    1  0.8500177E-002  0.1941693E+03  0.7818608E-02  0.1154941E+00
         21   -1    0    0  503  502  0.00000000000E+00  0.00000000000E+00  0.18028052697E+03  0.18028052697E+03  0.00000000000E+00 0.  1.
         21   -1    0    0  501  503 -0.00000000000E+00 -0.00000000000E+00 -0.46002609894E+03  0.46002609894E+03  0.00000000000E+00 0. -1.
          6    2    1    2  501    0  0.88987063420E+02  0.15519319528E+02 -0.37688135990E+03  0.42395905428E+03  0.17187836842E+03 0.  0.
         24    2    3    3    0    0  0.32756412066E+01  0.18772696941E+02 -0.29156056533E+03  0.30288568665E+03  0.79806214970E+02 0.  0.
         -6    2    1    2    0  502 -0.88987063420E+02 -0.15519319528E+02  0.97135787929E+02  0.21634757163E+03  0.17091332224E+03 0.  0.
        -24    2    5    5    0    0 -0.12181479358E+03 -0.41046538563E+02  0.80402315286E+02  0.17127654007E+03  0.79670939566E+02 0.  0.
          5    1    3    3  501    0  0.85711422213E+02 -0.32533774131E+01 -0.85320794571E+02  0.12107336763E+03  0.47000000000E+01 0. -1.
        -13    1    4    4    0    0 -0.22726589654E+02  0.37204621093E+02 -0.10612527960E+03  0.11473123672E+03  0.00000000000E+00 0.  1.
         14    1    4    4    0    0  0.26002230861E+02 -0.18431924152E+02 -0.18543528572E+03  0.18815444993E+03  0.00000000000E+00 0. -1.
         -5    1    5    5    0  502  0.32827730162E+02  0.25527219035E+02  0.16733472644E+02  0.45071031561E+02  0.47000000000E+01 0.  1.
         11    1    6    6    0    0 -0.43239977286E+02 -0.52232656570E+02  0.17566132942E+02  0.70046520789E+02  0.00000000000E+00 0. -1.
        -12    1    6    6    0    0 -0.78574816295E+02  0.11186118007E+02  0.62836182344E+02  0.10123001928E+03  0.00000000000E+00 0.  1.
</event>
<event>
12    1  0.8500177E-002  0.1995824E+03  0.7818608E-02  0.1150334E+00
         21   -1    0    0  503  502  0.00000000000E+00  0.00000000000E+00  0.30125885179E+03  0.30125885179E+03  0.00000000000E+00 0. -1.
         21   -1    0    0  501  503 -0.00000000000E+00 -0.00000000000E+00 -0.21495831891E+03  0.21495831891E+03  0.00000000000E+00 0.  1.
          6    2    1    2  501    0 -0.81032073172E+02 -0.61634716263E+02 -0.11763261380E+03  0.23166911223E+03  0.17166278164E+03 0.  0.
         24    2    3    3    0    0 -0.33417523475E+02 -0.10455259567E+03 -0.75447998601E+02  0.15478789557E+03  0.78860103884E+02 0.  0.
         -6    2    1    2    0  502  0.81032073172E+02  0.61634716263E+02  0.20393314669E+03  0.28454805846E+03  0.17033447721E+03 0.  0.
        -24    2    5    5    0    0  0.52610038314E+02  0.22349533858E+02  0.27567892275E+02  0.10157830526E+03  0.79314851197E+02 0.  0.
          5    1    3    3  501    0 -0.47614549697E+02  0.42917879412E+02 -0.42184615201E+02  0.76881216664E+02  0.47000000000E+01 0. -1.
        -13    1    4    4    0    0 -0.22719018180E+02 -0.72867755575E+02 -0.46263236430E+01  0.76467420906E+02  0.00000000000E+00 0.  1.
         14    1    4    4    0    0 -0.10698505295E+02 -0.31684840100E+02 -0.70821674958E+02  0.78320474664E+02  0.00000000000E+00 0. -1.
         -5    1    5    5    0  502  0.28422034858E+02  0.39285182405E+02  0.17636525441E+03  0.18296975320E+03  0.47000000000E+01 0.  1.
         11    1    6    6    0    0 -0.10113188151E+02 -0.27974413277E+01  0.32177204220E+02  0.33844862593E+02  0.00000000000E+00 0. -1.
        -12    1    6    6    0    0  0.62723226465E+02  0.25146975186E+02 -0.46093119448E+01  0.67733442669E+02  0.00000000000E+00 0.  1.
</event>
<event>
12    1  0.8500177E-002  0.5645870E+03  0.7818608E-02  0.9982350E-01
         21   -1    0    0  503  502  0.00000000000E+00  0.00000000000E+00  0.22303150384E+03  0.22303150384E+03  0.00000000000E+00 0.  1.
         21   -1    0    0  501  503 -0.00000000000E+00 -0.00000000000E+00 -0.16527198864E+04  0.16527198864E+04  0.00000000000E+00 0. -1.
          6    2    1    2  501    0  0.40997984481E+02 -0.53447948608E+03 -0.36718113084E+03  0.67255558161E+03  0.17366597747E+03 0.  0.
         24    2    3    3    0    0  0.81332885272E+02 -0.36700758234E+03 -0.20356646852E+03  0.43493068709E+03  0.80098637628E+02 0.  0.
         -6    2    1    2    0  502 -0.40997984481E+02  0.53447948608E+03 -0.10625072518E+04  0.12031958087E+04  0.17722679872E+03 0.  0.
        -24    2    5    5    0    0 -0.70902860594E+02  0.38714486190E+03 -0.87554488608E+03  0.96323996007E+03  0.79649315082E+02 0.  0.
          5    1    3    3  501    0 -0.40334900792E+02 -0.16747190374E+03 -0.16361466232E+03  0.23762489451E+03  0.47000000000E+01 0. -1.
        -11    1    4    4    0    0 -0.41024053003E+01 -0.16459071004E+03 -0.86893344094E+02  0.18616493980E+03  0.00000000000E+00 0.  1.
         12    1    4    4    0    0  0.85435290573E+02 -0.20241687230E+03 -0.11667312443E+03  0.24876574730E+03  0.00000000000E+00 0. -1.
         -5    1    5    5    0  502  0.29904876113E+02  0.14733462418E+03 -0.18696236567E+03  0.23995584859E+03  0.47000000000E+01 0.  1.
         13    1    6    6    0    0 -0.76586454532E+02  0.21119241951E+03 -0.52206332607E+03  0.56834658397E+03  0.00000000000E+00 0. -1.
        -14    1    6    6    0    0  0.56835939380E+01  0.17595244239E+03 -0.35348156001E+03  0.39489337610E+03  0.00000000000E+00 0.  1.
</event>
<event>
12    1  0.8500177E-002  0.1761098E+03  0.7818608E-02  0.1171661E+00
         21   -1    0    0  501  502  0.00000000000E+00  0.00000000000E+00  0.12898364457E+03  0.12898364457E+03  0.00000000000E+00 0.  1.
         21   -1    0    0  502  503 -0.00000000000E+00 -0.00000000000E+00 -0.25269873734E+03  0.25269873734E+03  0.00000000000E+00 0.  1.
         -6    2    1    2    0  503  0.37076527366E+02  0.17697622515E+02 -0.10425756046E+03  0.20465652272E+03  0.17125063111E+03 0.  0.
        -24    2    3    3    0    0  0.70303094932E+02 -0.35464989024E+02 -0.63893290223E+02  0.12994619968E+03  0.81261132603E+02 0.  0.
          6    2    1    2  501    0 -0.37076527366E+02 -0.17697622515E+02 -0.19457532308E+02  0.17702585919E+03  0.17108969733E+03 0.  0.
         24    2    5    5    0    0  0.18308986916E+02  0.41997460657E+02 -0.20581366633E+02  0.95451285019E+02  0.81168648231E+02 0.  0.
          5    1    5    5  501    0 -0.55385514282E+02 -0.59695083172E+02  0.11238343252E+01  0.81574574169E+02  0.47000000000E+01 0. -1.
        -11    1    6    6    0    0  0.11484474792E+02 -0.19061474785E+02 -0.25464685026E+02  0.33818385025E+02  0.00000000000E+00 0.  1.
         12    1    6    6    0    0  0.68245121239E+01  0.61058935442E+02  0.48833183925E+01  0.61632899994E+02  0.00000000000E+00 0. -1.
         -5    1    3    3    0  503 -0.33226567566E+02  0.53162611539E+02 -0.40364270235E+02  0.74710323045E+02  0.47000000000E+01 0.  1.
         11    1    4    4    0    0 -0.74442286400E+01 -0.80601758293E+01 -0.43722936611E+02  0.45078577621E+02  0.00000000000E+00 0. -1.
        -12    1    4    4    0    0  0.77747323572E+02 -0.27404813194E+02 -0.20170353612E+02  0.84867622057E+02  0.00000000000E+00 0.  1.
</event>
<event>
12    1  0.8500177E-002  0.2162802E+03  0.7818608E-02  0.1140309E+00
         21   -1    0    0  501  502  0.00000000000E+00  0.00000000000E+00  0.17230211845E+03  0.17230211845E+03  0.00000000000E+00 0.  1.
         21   -1    0    0  502  503 -0.00000000000E+00 -0.00000000000E+00 -0.38254263037E+03  0.38254263037E+03  0.00000000000E+00 0.  1.
         -6    2    1    2    0  503  0.24824401464E+02  0.97543056852E+02 -0.26581708958E+03  0.33153801103E+03  0.17066876925E+03 0.  0.
        -24    2    3    3    0    0  0.46011662009E+02  0.14456044425E+02 -0.21162810590E+03  0.22999547021E+03  0.76061888303E+02 0.  0.
          6    2    1    2  501    0 -0.24824401464E+02 -0.97543056852E+02  0.55576577658E+02  0.22330673779E+03  0.19143208798E+03 0.  0.
         24    2    5    5    0    0  0.40140207200E+02 -0.11522673352E+03  0.54692316727E+02  0.15580870287E+03  0.79979159970E+02 0.  0.
          5    1    5    5  501    0 -0.64964608664E+02  0.17683676673E+02  0.88426093171E+00  0.67498034911E+02  0.47000000000E+01 0. -1.
        -11    1    6    6    0    0  0.38903447712E+02 -0.31831754606E+02  0.52054222906E+02  0.72362842451E+02  0.00000000000E+00 0.  1.
         12    1    6    6    0    0  0.12367594883E+01 -0.83394978918E+02  0.26380938205E+01  0.83445860424E+02  0.00000000000E+00 0. -1.
         -5    1    3    3    0  503 -0.21187260546E+02  0.83087012427E+02 -0.54188983683E+02  0.10154254082E+03  0.47000000000E+01 0.  1.
         13    1    4    4    0    0  0.14709754779E+02 -0.21289201350E+02 -0.20394142512E+02  0.32947352376E+02  0.00000000000E+00 0. -1.
        -14    1    4    4    0    0  0.31301907230E+02  0.35745245775E+02 -0.19123396338E+03  0.19704811784E+03  0.00000000000E+00 0.  1.
</event>
<event>
12    1  0.8500177E-002  0.2175063E+03  0.7818608E-02  0.1135905E+00
         21   -1    0    0  501  502  0.00000000000E+00  0.00000000000E+00  0.25979539826E+02  0.25979539826E+02  0.00000000000E+00 0. -1.
         21   -1    0    0  502  503 -0.00000000000E+00 -0.00000000000E+00 -0.18154348917E+04  0.18154348917E+04  0.00000000000E+00 0. -1.
         -6    2    1    2    0  503 -0.24556598480E+02 -0.12781139008E+03 -0.87148546102E+03  0.89802812563E+03  0.17328827913E+03 0.  0.
        -24    2    3    3    0    0 -0.81654072345E+02 -0.98231302312E+02 -0.65483167582E+03  0.67198375884E+03  0.80255044722E+02 0.  0.
          6    2    1    2  501    0  0.24556598480E+02  0.12781139008E+03 -0.91796989082E+03  0.94338630586E+03  0.17427054737E+03 0.  0.
         24    2    5    5    0    0 -0.36616088728E+02  0.98232153249E+02 -0.75378580631E+03  0.76563498373E+03  0.83747194842E+02 0.  0.
          5    1    5    5  501    0  0.61172687208E+02  0.29579236832E+02 -0.16418408451E+03  0.17775132213E+03  0.47000000000E+01 0. -1.
        -13    1    6    6    0    0 -0.48725984729E+02  0.25525541671E+02 -0.43357193843E+03  0.43704736661E+03  0.00000000000E+00 0.  1.
         14    1    6    6    0    0  0.12109896001E+02  0.72706611578E+02 -0.32021386788E+03  0.32858761713E+03  0.00000000000E+00 0. -1.
         -5    1    3    3    0  503  0.57097473865E+02 -0.29580087769E+02 -0.21665378520E+03  0.22604436678E+03  0.47000000000E+01 0.  1.
         13    1    4    4    0    0 -0.79499983831E+02 -0.61986476994E+02 -0.32802009035E+03  0.34316140580E+03  0.00000000000E+00 0. -1.
        -14    1    4    4    0    0 -0.21540885141E+01 -0.36244825318E+02 -0.32681158547E+03  0.32882235304E+03  0.00000000000E+00 0.  1.
</event>
<event>
12    1  0.8500177E-002  0.4121330E+03  0.7818608E-02  0.1039673E+00
         21   -1    0    0  503  502  0.00000000000E+00  0.00000000000E+00  0.17774710401E+03  0.17774710401E+03  0.00000000000E+00 0. -1.
         21   -1    0    0  501  503 -0.00000000000E+00 -0.00000000000E+00 -0.95890724211E+03  0.95890724211E+03  0.00000000000E+00 0.  1.
          6    2    1    2  501    0  0.32397925992E+03 -0.18805939049E+03 -0.42603949092E+03  0.59262838627E+03  0.17137637289E+03 0.  0.
         24    2    3    3    0    0  0.25163478201E+03 -0.69915411984E+02 -0.27483361506E+03  0.38750152300E+03  0.80097977576E+02 0.  0.
         -6    2    1    2    0  502 -0.32397925992E+03  0.18805939049E+03 -0.35512064719E+03  0.54402595985E+03  0.17182745915E+03 0.  0.
        -24    2    5    5    0    0 -0.21693318759E+03  0.18282632929E+03 -0.20294599802E+03  0.35783933202E+03  0.79852582117E+02 0.  0.
          5    1    3    3  501    0  0.72344477909E+02 -0.11814397851E+03 -0.15120587586E+03  0.20512686327E+03  0.47000000000E+01 0. -1.
        -11    1    4    4    0    0  0.11343735553E+03 -0.94500165064E+01 -0.16688170009E+03  0.20200702529E+03  0.00000000000E+00 0.  1.
         12    1    4    4    0    0  0.13819742648E+03 -0.60465395477E+02 -0.10795191497E+03  0.18549449771E+03  0.00000000000E+00 0. -1.
         -5    1    5    5    0  502 -0.10704607233E+03  0.52330611961E+01 -0.15217464917E+03  0.18618662782E+03  0.47000000000E+01 0.  1.
         13    1    6    6    0    0 -0.43688571497E+01  0.36229129218E+02 -0.26445738453E+02  0.45066770452E+02  0.00000000000E+00 0. -1.
        -14    1    6    6    0    0 -0.21256433044E+03  0.14659720007E+03 -0.17650025957E+03  0.31277256157E+03  0.00000000000E+00 0.  1.
</event>
<event>
12    1  0.8500177E-002  0.1806973E+03  0.7818608E-02  0.1167778E+00
         21   -1    0    0  501  502  0.00000000000E+00  0.00000000000E+00  0.20223836109E+03  0.20223836109E+03  0.00000000000E+00 0. -1.
         21   -1    0    0  502  503 -0.00000000000E+00 -0.00000000000E+00 -0.31111949239E+03  0.31111949239E+03  0.00000000000E+00 0. -1.
         -6    2    1    2    0  503 -0.41750388416E+02 -0.14114565351E+02 -0.23408268531E+03  0.29571307224E+03  0.17524041099E+03 0.  0.
        -24    2    3    3    0    0 -0.63348491841E+02  0.48454595067E+02 -0.12289380423E+03  0.16622780211E+03  0.78536080070E+02 0.  0.
          6    2    1    2  501    0  0.41750388416E+02  0.14114565351E+02  0.12520155400E+03  0.21764478124E+03  0.17248624811E+03 0.  0.
         24    2    5    5    0    0  0.42914651958E+01  0.60445763325E+02  0.12290315137E+03  0.15783572265E+03  0.78325115706E+02 0.  0.
          5    1    5    5  501    0  0.37458923220E+02 -0.46331197974E+02  0.22984026309E+01  0.59809058588E+02  0.47000000000E+01 0. -1.
        -11    1    6    6    0    0  0.26740136552E+02  0.43387744119E+02  0.26599361545E+02  0.57489627561E+02  0.00000000000E+00 0.  1.
         12    1    6    6    0    0 -0.22448671356E+02  0.17058019206E+02  0.96303789826E+02  0.10034609509E+03  0.00000000000E+00 0. -1.
         -5    1    3    3    0  503  0.21598103425E+02 -0.62569160417E+02 -0.11118888107E+03  0.12948527013E+03  0.47000000000E+01 0.  1.
         13    1    4    4    0    0 -0.51824768450E+02 -0.50915384897E+01 -0.84794323264E+02  0.99507827064E+02  0.00000000000E+00 0. -1.
        -14    1    4    4    0    0 -0.11523723390E+02  0.53546133556E+02 -0.38099480967E+02  0.66719975042E+02  0.00000000000E+00 0.  1.
</event>
<event>
12    1  0.8500177E-002  0.2160496E+03  0.7818608E-02  0.1137029E+00
         21   -1    0    0  501  502  0.00000000000E+00  0.00000000000E+00  0.14701753309E+03  0.14701753309E+03  0.00000000000E+00 0.  1.
         21   -1    0    0  502  503 -0.00000000000E+00 -0.00000000000E+00 -0.46082981470E+03  0.46082981470E+03  0.00000000000E+00 0. -1.
         -6    2    1    2    0  503  0.50803851487E+02 -0.11866847273E+03 -0.32737468729E+03  0.39223922722E+03  0.17324603241E+03 0.  0.
        -24    2    3    3    0    0  0.18540354590E+02 -0.14541565535E+03 -0.29183075446E+03  0.33708665547E+03  0.83503092616E+02 0.  0.
          6    2    1    2  501    0 -0.50803851487E+02  0.11866847273E+03  0.13562405681E+02  0.21560812056E+03  0.17216179907E+03 0.  0.
         24    2    5    5    0    0 -0.71874177470E+02  0.11179860256E+03  0.58581058233E+02  0.16521047349E+03  0.78726966445E+02 0.  0.
          5    1    5    5  501    0  0.21070325983E+02  0.68698701704E+01 -0.45018652551E+02  0.50397647075E+02  0.47000000000E+01 0. -1.
        -11    1    6    6    0    0 -0.47965598954E+02  0.39682425952E+02 -0.97685478583E+01  0.63014428028E+02  0.00000000000E+00 0.  1.
         12    1    6    6    0    0 -0.23908578516E+02  0.72116176607E+02  0.68349606091E+02  0.10219604546E+03  0.00000000000E+00 0. -1.
         -5    1    3    3    0  503  0.32263496896E+02  0.26747182620E+02 -0.35543932833E+02  0.55152571756E+02  0.47000000000E+01 0.  1.
         13    1    4    4    0    0  0.11048898047E+02  0.15733772621E+01 -0.69915056129E+02  0.70800202949E+02  0.00000000000E+00 0. -1.
        -14    1    4    4    0    0  0.74914565432E+01 -0.14698903261E+03 -0.22191569833E+03  0.26628645252E+03  0.00000000000E+00 0.  1.
</event>
<event>
12    1  0.8500177E-002  0.2552155E+03  0.7818608E-02  0.1110084E+00
         21   -1    0    0  501  502  0.00000000000E+00  0.00000000000E+00  0.54983658406E+03  0.54983658406E+03  0.00000000000E+00 0. -1.
         21   -1    0    0  502  503 -0.00000000000E+00 -0.00000000000E+00 -0.15254082904E+03  0.15254082904E+03  0.00000000000E+00 0. -1.
         -6    2    1    2    0  503 -0.11786103504E+02  0.18716941180E+03  0.32358615539E+02  0.25705275828E+03  0.17279392232E+03 0.  0.
        -24    2    3    3    0    0 -0.20489232050E+02  0.77498763027E+02 -0.45519243350E+02  0.12218079472E+03  0.80189015350E+02 0.  0.
          6    2    1    2  501    0  0.11786103504E+02 -0.18716941180E+03  0.36493713949E+03  0.44532465482E+03  0.17310006201E+03 0.  0.
         24    2    5    5    0    0  0.21319444353E+02 -0.11610916519E+03  0.34416854294E+03  0.37053249054E+03  0.70046296461E+02 0.  0.
          5    1    5    5  501    0 -0.95333408487E+01 -0.71060246605E+02  0.20768596547E+02  0.74792164281E+02  0.47000000000E+01 0. -1.
        -13    1    6    6    0    0  0.26726591014E+02 -0.47116073026E+02  0.23587426389E+03  0.24201426275E+03  0.00000000000E+00 0.  1.
         14    1    6    6    0    0 -0.54071466612E+01 -0.68993092166E+02  0.10829427905E+03  0.12851822780E+03  0.00000000000E+00 0. -1.
         -5    1    3    3    0  503  0.87031285458E+01  0.10967064877E+03  0.77877858889E+02  0.13487196356E+03  0.47000000000E+01 0.  1.
         11    1    4    4    0    0 -0.32356546087E+02  0.80800972876E+02 -0.58040797457E+02  0.10461585665E+03  0.00000000000E+00 0. -1.
        -12    1    4    4    0    0  0.11867314037E+02 -0.33022098491E+01  0.12521554106E+02  0.17564938075E+02  0.00000000000E+00 0.  1.
</event>
<event>
12    1  0.8500177E-002  0.1781591E+03  0.7818608E-02  0.1169604E+00
         21   -1    0    0  503  502  0.00000000000E+00  0.00000000000E+00  0.19437913368E+03  0.19437913368E+03  0.00000000000E+00 0.  1.
         21   -1    0    0  501  503 -0.00000000000E+00 -0.00000000000E+00 -0.19093690968E+03  0.19093690968E+03  0.00000000000E+00 0.  1.
          6    2    1    2  501    0  0.47408259531E+02  0.40804459797E+01  0.75066627369E+02  0.19329852629E+03  0.17165409581E+03 0.  0.
         24    2    3    3    0    0 -0.36422255594E+02  0.16687862805E+01  0.65261388728E+02  0.10873136911E+03  0.78956293096E+02 0.  0.
         -6    2    1    2    0  502 -0.47408259531E+02 -0.40804459797E+01 -0.71624403368E+02  0.19201751708E+03  0.17168715326E+03 0.  0.
        -24    2    5    5    0    0 -0.46474885135E+02 -0.62498405072E+02 -0.72921408564E+02  0.13338901416E+03  0.80057052691E+02 0.  0.
          5    1    3    3  501    0  0.83830515125E+02  0.24116596992E+01  0.98052386412E+01  0.84567157179E+02  0.47000000000E+01 0. -1.
        -13    1    4    4    0    0 -0.81804339137E+01 -0.12945201961E+02  0.74149053210E+02  0.75713802208E+02  0.00000000000E+00 0.  1.
         14    1    4    4    0    0 -0.28241821680E+02  0.14613988241E+02 -0.88876644821E+01  0.33017566901E+02  0.00000000000E+00 0. -1.
         -5    1    5    5    0  502 -0.93337439594E+00  0.58417959092E+02  0.12970051963E+01  0.58628502921E+02  0.47000000000E+01 0.  1.
         13    1    6    6    0    0  0.52776042121E+01 -0.10341017990E+02  0.14896932948E+02  0.18886724717E+02  0.00000000000E+00 0. -1.
        -14    1    6    6    0    0 -0.51752489347E+02 -0.52157387082E+02 -0.87818341512E+02  0.11450228944E+03  0.00000000000E+00 0.  1.
</event>
<event>
12    1  0.8500177E-002  0.2529308E+03  0.7818608E-02  0.1111538E+00
         21   -1    0    0  501  502  0.00000000000E+00  0.00000000000E+00  0.22390517132E+04  0.22390517132E+04  0.00000000000E+00 0. -1.
         21   -1    0    0  502  503 -0.00000000000E+00 -0.00000000000E+00 -0.28997721296E+02  0.28997721296E+02  0.00000000000E+00 0.  1.
         -6    2    1    2    0  503  0.16565407167E+03 -0.80765630029E+02  0.96043064143E+03  0.99317722452E+03  0.17323286016E+03 0.  0.
        -24    2    3    3    0    0  0.15026118169E+03 -0.99321973239E+02  0.94221373040E+03  0.96259577944E+03  0.79878931885E+02 0.  0.
          6    2    1    2  501    0 -0.16565407167E+03  0.80765630029E+02  0.12496233505E+04  0.12748722100E+04  0.17255803453E+03 0.  0.
         24    2    5    5    0    0 -0.15453182467E+03  0.61788441264E+02  0.66416494034E+03  0.68898188060E+03  0.76701157111E+02 0.  0.
          5    1    5    5  501    0 -0.11122246995E+02  0.18977188765E+02  0.58545841016E+03  0.58589032942E+03  0.47000000000E+01 0. -1.
        -13    1    6    6    0    0 -0.13193073163E+03  0.79152707729E+02  0.53330728020E+03  0.55505632525E+03  0.00000000000E+00 0.  1.
         14    1    6    6    0    0 -0.22601093046E+02 -0.17364266465E+02  0.13085766014E+03  0.13392555535E+03  0.00000000000E+00 0. -1.
         -5    1    3    3    0  503  0.15392889975E+02  0.18556343210E+02  0.18216911036E+02  0.30581445074E+02  0.47000000000E+01 0.  1.
         11    1    4    4    0    0  0.44527728946E+02  0.40860074368E+01  0.31639908279E+03  0.31954310146E+03  0.00000000000E+00 0. -1.
        -12    1    4    4    0    0  0.10573345275E+03 -0.10340798068E+03  0.62581464761E+03  0.64305267798E+03  0.00000000000E+00 0.  1.
</event>
<event>
12    1  0.8500177E-002  0.1943857E+03  0.7818608E-02  0.1154857E+00
         21   -1    0    0  501  502  0.00000000000E+00  0.00000000000E+00  0.47471684254E+03  0.47471684254E+03  0.00000000000E+00 0. -1.
         21   -1    0    0  502  503 -0.00000000000E+00 -0.00000000000E+00 -0.95862800287E+02  0.95862800287E+02  0.00000000000E+00 0. -1.
         -6    2    1    2    0  503 -0.39436064177E+02  0.80095363214E+02  0.69422021903E+02  0.20515662997E+03  0.17117054457E+03 0.  0.
        -24    2    3    3    0    0  0.24539642522E+02  0.73771926432E+02  0.82258775323E+02  0.13943183146E+03  0.81426275382E+02 0.  0.
          6    2    1    2  501    0  0.39436064177E+02 -0.80095363214E+02  0.30943202035E+03  0.36542301286E+03  0.17267116940E+03 0.  0.
         24    2    5    5    0    0  0.30993272067E+02  0.14234018284E+02  0.20894574456E+03  0.22726044711E+03  0.82618378469E+02 0.  0.
          5    1    5    5  501    0  0.84427921098E+01 -0.94329381497E+02  0.10048627579E+03  0.13816256575E+03  0.47000000000E+01 0. -1.
        -11    1    6    6    0    0  0.59042646698E+00  0.42648443979E+02  0.14350227030E+03  0.14970684673E+03  0.00000000000E+00 0.  1.
         12    1    6    6    0    0  0.30402845600E+02 -0.28414425696E+02  0.65443474255E+02  0.77553600373E+02  0.00000000000E+00 0. -1.
         -5    1    3    3    0  503 -0.63975706699E+02  0.63234367813E+01 -0.12836753420E+02  0.65724798507E+02  0.47000000000E+01 0.  1.
         13    1    4    4    0    0  0.27737920436E+02  0.89205677936E+02  0.56328116759E+02  0.10908667171E+03  0.00000000000E+00 0. -1.
        -14    1    4    4    0    0 -0.31982779143E+01 -0.15433751504E+02  0.25930658564E+02  0.30345159757E+02  0.00000000000E+00 0.  1.
</event>
<event>
12    1  0.8500177E-002  0.1964844E+03  0.7818608E-02  0.1154048E+00
         21   -1    0    0  501  502  0.00000000000E+00  0.00000000000E+00  0.69215430514E+03  0.69215430514E+03  0.00000000000E+00 0. -1.
         21   -1    0    0  502  503 -0.00000000000E+00 -0.00000000000E+00 -0.54298663759E+02  0.54298663759E+02  0.00000000000E+00 0. -1.
         -6    2    1    2    0  503 -0.62822158060E+02 -0.69543174410E+02  0.33676968014E+03  0.38692705865E+03  0.16587903606E+03 0.  0.
        -24    2    3    3    0    0 -0.22762629620E+02 -0.67545396592E+02  0.99019649879E+02  0.14577166513E+03  0.79774490811E+02 0.  0.
          6    2    1    2  501    0  0.62822158060E+02  0.69543174410E+02  0.30108596124E+03  0.35952591025E+03  0.17269408627E+03 0.  0.
         24    2    5    5    0    0 -0.10297358346E+02 -0.67100756530E+01  0.19007888739E+03  0.20621028068E+03  0.79004023462E+02 0.  0.
          5    1    5    5  501    0  0.73119516406E+02  0.76253250063E+02  0.11100707385E+03  0.15331562956E+03  0.47000000000E+01 0. -1.
        -11    1    6    6    0    0  0.19569320380E+02 -0.25088683061E+02  0.35365485875E+02  0.47572238848E+02  0.00000000000E+00 0.  1.
         12    1    6    6    0    0 -0.29866678726E+02  0.18378607408E+02  0.15471340152E+03  0.15863804184E+03  0.00000000000E+00 0. -1.
         -5    1    3    3    0  503 -0.40059528440E+02 -0.19977778184E+01  0.23775003026E+03  0.24115539352E+03  0.47000000000E+01 0.  1.
         13    1    4    4    0    0 -0.16797205032E+02 -0.46918408967E+01 -0.97688441702E+01  0.19989741977E+02  0.00000000000E+00 0. -1.
        -14    1    4    4    0    0 -0.59654245875E+01 -0.62853555695E+02  0.10878849405E+03  0.12578192315E+03  0.00000000000E+00 0.  1.
</event>
<event>
12    1  0.8500177E-002  0.2465789E+03  0.7818608E-02  0.1116309E+00
         21   -1    0    0  501  502  0.00000000000E+00  0.00000000000E+00  0.92786647294E+02  0.92786647294E+02  0.00000000000E+00 0. -1.
         21   -1    0    0  502  503 -0.00000000000E+00 -0.00000000000E+00 -0.64274013940E+03  0.64274013940E+03  0.00000000000E+00 0. -1.
         -6    2    1    2    0  503  0.14746019061E+03 -0.94091114560E+02 -0.26457972867E+03  0.36166776208E+03  0.17379151778E+03 0.  0.
        -24    2    3    3    0    0  0.15479132747E+03 -0.61003487899E+02 -0.13976645139E+03  0.23224990863E+03  0.81997430012E+02 0.  0.
          6    2    1    2  501    0 -0.14746019061E+03  0.94091114560E+02 -0.28537376343E+03  0.37385902461E+03  0.16653750260E+03 0.  0.
         24    2    5    5    0    0 -0.85994658691E+02  0.27593822538E+02 -0.63849662330E+02  0.13449545422E+03  0.76522855804E+02 0.  0.
          5    1    5    5  501    0 -0.61465531922E+02  0.66497292022E+02 -0.22152410110E+03  0.23936357039E+03  0.47000000000E+01 0. -1.
        -13    1    6    6    0    0 -0.69331876169E+01  0.50185662934E+01 -0.50472381433E+02  0.51192932966E+02  0.00000000000E+00 0.  1.
         14    1    6    6    0    0 -0.79061471074E+02  0.22575256245E+02 -0.13377280897E+02  0.83302521253E+02  0.00000000000E+00 0. -1.
         -5    1    3    3    0  503 -0.73311368622E+01 -0.33087626661E+02 -0.12481327728E+03  0.12941785345E+03  0.47000000000E+01 0.  1.
         13    1    4    4    0    0  0.12833197475E+02  0.18635665268E+02 -0.14758088646E+02  0.27014443506E+02  0.00000000000E+00 0. -1.
        -14    1    4    4    0    0  0.14195813000E+03 -0.79639153167E+02 -0.12500836274E+03  0.20523546513E+03  0.00000000000E+00 0.  1.
</event>
<event>
12    1  0.8500177E-002  0.2023034E+03  0.7818608E-02  0.1151823E+00
         21   -1    0    0  503  502  0.00000000000E+00  0.00000000000E+00  0.15515585633E+04  0.15515585633E+04  0.00000000000E+00 0.  1.
         21   -1    0    0  501  503 -0.00000000000E+00 -0.00000000000E+00 -0.29224314918E+02  0.29224314918E+02  0.00000000000E+00 0.  1.
          6    2    1    2  501    0 -0.54249799495E+02 -0.32215383652E+02  0.45828923707E+03  0.50095477959E+03  0.19221288899E+03 0.  0.
         24    2    3    3    0    0  0.30526354635E+02 -0.57615056394E+02  0.15844717700E+03  0.18828963816E+03  0.78077697753E+02 0.  0.
         -6    2    1    2    0  502  0.54249799495E+02  0.32215383652E+02  0.10640450113E+04  0.10798280986E+04  0.17278907602E+03 0.  0.
        -24    2    5    5    0    0 -0.11001592758E+02 -0.20012408561E+02  0.29876206025E+03  0.30998033987E+03  0.79419839605E+02 0.  0.
          5    1    3    3  501    0 -0.84776154129E+02  0.25399672742E+02  0.29984206007E+03  0.31266514144E+03  0.47000000000E+01 0. -1.
        -13    1    4    4    0    0 -0.48229001320E+01  0.74727565384E+01 -0.40012565107E+01  0.97525642592E+01  0.00000000000E+00 0.  1.
         14    1    4    4    0    0  0.35349254767E+02 -0.65087812933E+02  0.16244843352E+03  0.17853707390E+03  0.00000000000E+00 0. -1.
         -5    1    5    5    0  502  0.65251392253E+02  0.52227792213E+02  0.76528295104E+03  0.76984775873E+03  0.47000000000E+01 0.  1.
         13    1    6    6    0    0  0.56232608267E+01  0.16059143916E+02  0.12848990132E+02  0.21321672379E+02  0.00000000000E+00 0. -1.
        -14    1    6    6    0    0 -0.16624853585E+02 -0.36071552476E+02  0.28591307011E+03  0.28865866749E+03  0.00000000000E+00 0.  1.
</event>
<event>
12    1  0.8500177E-002  0.2477038E+03  0.7818608E-02  0.1114905E+00
         21   -1    0    0  503  502  0.00000000000E+00  0.00000000000E+00  0.25753665543E+03  0.25753665543E+03  0.00000000000E+00 0.  1.
         21   -1    0    0  501  503 -0.00000000000E+00 -0.00000000000E+00 -0.23968889054E+03  0.23968889054E+03  0.00000000000E+00 0. -1.
          6    2    1    2  501    0 -0.15710839863E+03 -0.85791981472E+02 -0.15345187079E+02  0.24817867732E+03  0.17121293206E+03 0.  0.
         24    2    3    3    0    0 -0.15570988056E+02 -0.64641164525E+02 -0.16544389939E+02  0.10498746342E+03  0.79546934682E+02 0.  0.
         -6    2    1    2    0  502  0.15710839863E+03  0.85791981472E+02  0.33192951969E+02  0.24904686865E+03  0.16993898233E+03 0.  0.
        -24    2    5    5    0    0  0.17302223024E+03  0.36551386429E+02  0.17628179271E+02  0.19480446470E+03  0.79783022966E+02 0.  0.
          5    1    3    3  501    0 -0.14153741057E+03 -0.21150816947E+02  0.11992028605E+01  0.14319121390E+03  0.47000000000E+01 0. -1.
        -11    1    4    4    0    0 -0.32705756093E+02 -0.68569912523E+02  0.62210000814E+01  0.76224669412E+02  0.00000000000E+00 0.  1.
         12    1    4    4    0    0  0.17134768037E+02  0.39287479975E+01 -0.22765390021E+02  0.28762794011E+02  0.00000000000E+00 0. -1.
         -5    1    5    5    0  502 -0.15913831614E+02  0.49240595043E+02  0.15564772699E+02  0.54242403947E+02  0.47000000000E+01 0.  1.
         11    1    6    6    0    0  0.44167359013E+02  0.42635105344E+02 -0.11751165418E+02  0.62502781526E+02  0.00000000000E+00 0. -1.
        -12    1    6    6    0    0  0.12885487123E+03 -0.60837189147E+01  0.29379344689E+02  0.13230168317E+03  0.00000000000E+00 0.  1.
</event>
<event>
12    1  0.8500177E-002  0.1831335E+03  0.7818608E-02  0.1165557E+00
         21   -1    0    0  503  502  0.00000000000E+00  0.00000000000E+00  0.71357481902E+02  0.71357481902E+02  0.00000000000E+00 0. -1.
         21   -1    0    0  501  503 -0.00000000000E+00 -0.00000000000E+00 -0.52851941049E+03  0.52851941049E+03  0.00000000000E+00 0. -1.
          6    2    1    2  501    0  0.13258231324E+02  0.56220077963E+02 -0.33676070872E+03  0.38333489006E+03  0.17378545719E+03 0.  0.
         24    2    3    3    0    0 -0.11475566807E-01  0.32017316299E+02 -0.59077950740E+02  0.10424411114E+03  0.79696435114E+02 0.  0.
         -6    2    1    2    0  502 -0.13258231324E+02 -0.56220077963E+02 -0.12040121986E+03  0.21654200234E+03  0.17046262689E+03 0.  0.
        -24    2    5    5    0    0 -0.11003473205E+02 -0.51077836120E+02 -0.15513267983E+03  0.18104706049E+03  0.77342536787E+02 0.  0.
          5    1    3    3  501    0  0.13269706890E+02  0.24202761664E+02 -0.27768275799E+03  0.27909077891E+03  0.47000000000E+01 0. -1.
        -13    1    4    4    0    0  0.20163091632E+02 -0.64068704208E+01  0.94170973522E+01  0.23157719561E+02  0.00000000000E+00 0.  1.
         14    1    4    4    0    0 -0.20174567198E+02  0.38424186720E+02 -0.68495048092E+02  0.81086391582E+02  0.00000000000E+00 0. -1.
         -5    1    5    5    0  502 -0.22547581190E+01 -0.51422418434E+01  0.34731459963E+02  0.35494941844E+02  0.47000000000E+01 0.  1.
         13    1    6    6    0    0 -0.28790252282E+02 -0.58995662982E+02 -0.14484527680E+03  0.15902679362E+03  0.00000000000E+00 0. -1.
        -14    1    6    6    0    0  0.17786779077E+02  0.79178268624E+01 -0.10287403031E+02  0.22020266876E+02  0.00000000000E+00 0.  1.
</event>
<event>
12    1  0.8500177E-002  0.1930320E+03  0.7818608E-02  0.1155803E+00
         21   -1    0    0  503  502  0.00000000000E+00  0.00000000000E+00  0.16366761587E+03  0.16366761587E+03  0.00000000000E+00 0.  1.
         21   -1    0    0  501  503 -0.00000000000E+00 -0.00000000000E+00 -0.31018439403E+03  0.31018439403E+03  0.00000000000E+00 0. -1.
          6    2    1    2  501    0  0.30095952113E+01 -0.93437894165E+02 -0.19562121733E+03  0.27467223220E+03  0.16863415058E+03 0.  0.
         24    2    3    3    0    0  0.42121895994E+02 -0.41953718936E+02 -0.95117513078E+02  0.15507508784E+03  0.10708208496E+03 0.  0.
         -6    2    1    2    0  502 -0.30095952113E+01  0.93437894165E+02  0.49104439169E+02  0.19917977769E+03  0.16888351064E+03 0.  0.
        -24    2    5    5    0    0 -0.68620492933E+02  0.57803023558E+02  0.28206956050E+02  0.12150462913E+03  0.76927114517E+02 0.  0.
          5    1    3    3  501    0 -0.39112300783E+02 -0.51484175229E+02 -0.10050370425E+03  0.11959714436E+03  0.47000000000E+01 0.  1.
        -13    1    4    4    0    0  0.53059589078E+01  0.26131788162E+02 -0.68031895365E+02  0.73070940458E+02  0.00000000000E+00 0.  1.
         14    1    4    4    0    0  0.36815937086E+02 -0.68085507098E+02 -0.27085617712E+02  0.82004147378E+02  0.00000000000E+00 0. -1.
         -5    1    5    5    0  502  0.65610897722E+02  0.35634870607E+02  0.20897483119E+02  0.77675148560E+02  0.47000000000E+01 0.  1.
         13    1    6    6    0    0 -0.13373126590E+02  0.29816796151E+02  0.46585086830E+02  0.56903885302E+02  0.00000000000E+00 0. -1.
        -14    1    6    6    0    0 -0.55247366343E+02  0.27986227407E+02 -0.18378130781E+02  0.64600743829E+02  0.00000000000E+00 0.  1.
</event>
<event>
12    1  0.8500177E-002  0.1888997E+03  0.7818608E-02  0.1159462E+00
         21   -1    0    0  501  502  0.00000000000E+00  0.00000000000E+00  0.82457180266E+03  0.82457180266E+03  0.00000000000E+00 0. -1.
         21   -1    0    0  502  503 -0.00000000000E+00 -0.00000000000E+00 -0.85915114350E+02  0.85915114350E+02  0.00000000000E+00 0. -1.
         -6    2    1    2    0  503 -0.58475428752E+02 -0.51585213800E+02  0.48606179988E+02  0.19505294356E+03  0.17205429378E+03 0.  0.
        -24    2    3    3    0    0 -0.49851234032E+02 -0.85939821674E+02  0.79061110537E+02  0.14810394345E+03  0.76245133494E+02 0.  0.
          6    2    1    2  501    0  0.58475428752E+02  0.51585213800E+02  0.69005050832E+03  0.71543397345E+03  0.17203388121E+03 0.  0.
         24    2    5    5    0    0 -0.11810006792E+02  0.37274338687E+02  0.19091120788E+03  0.21114539056E+03  0.81279973382E+02 0.  0.
          5    1    5    5  501    0  0.70285435544E+02  0.14310875113E+02  0.49913930044E+03  0.50428858289E+03  0.47000000000E+01 0. -1.
        -11    1    6    6    0    0  0.19449092949E+02 -0.17993882563E+02  0.49916219867E+02  0.56512618344E+02  0.00000000000E+00 0.  1.
         12    1    6    6    0    0 -0.31259099741E+02  0.55268221249E+02  0.14099498802E+03  0.15463277221E+03  0.00000000000E+00 0. -1.
         -5    1    3    3    0  503 -0.86241947194E+01  0.34354607874E+02 -0.30454930548E+02  0.46949000111E+02  0.47000000000E+01 0.  1.
         11    1    4    4    0    0 -0.16383414095E+02 -0.64007276475E+02  0.80025531977E+01  0.66553651717E+02  0.00000000000E+00 0. -1.
        -12    1    4    4    0    0 -0.33467819937E+02 -0.21932545199E+02  0.71058557339E+02  0.81550291731E+02  0.00000000000E+00 0.  1.
</event>
<event>
12    1  0.8500177E-002  0.1923092E+03  0.7818608E-02  0.1156495E+00
         21   -1    0    0  503  502  0.00000000000E+00  0.00000000000E+00  0.68668441013E+02  0.68668441013E+02  0.00000000000E+00 0.  1.
         21   -1    0    0  501  503 -0.00000000000E+00 -0.00000000000E+00 -0.63223538854E+03  0.63223538854E+03  0.00000000000E+00 0.  1.
          6    2    1    2  501    0 -0.29750460513E+02  0.80745413390E+02 -0.41729393471E+03  0.45928716434E+03  0.17148049363E+03 0.  0.
         24    2    3    3    0    0  0.21648893283E+02  0.50227772959E+02 -0.11416702258E+03  0.15028678440E+03  0.80996942916E+02 0.  0.
         -6    2    1    2    0  502  0.29750460513E+02 -0.80745413390E+02 -0.14627301282E+03  0.24161666522E+03  0.17198228673E+03 0.  0.
        -24    2    5    5    0    0  0.59071177837E+02 -0.71353827246E+02 -0.36161672083E+02  0.12718544695E+03  0.79295010408E+02 0.  0.
          5    1    3    3  501    0 -0.51399353795E+02  0.30517640431E+02 -0.30312691212E+03  0.30900037994E+03  0.47000000000E+01 0. -1.
        -13    1    4    4    0    0  0.85128225603E+01  0.28800787706E+02 -0.12064943859E+03  0.12433117290E+03  0.00000000000E+00 0.  1.
         14    1    4    4    0    0  0.13136070722E+02  0.21426985253E+02  0.64824160101E+01  0.25955611501E+02  0.00000000000E+00 0. -1.
         -5    1    5    5    0  502 -0.29320717324E+02 -0.93915861443E+01 -0.11011134074E+03  0.11443121827E+03  0.47000000000E+01 0.  1.
         13    1    6    6    0    0  0.56660786967E+01  0.15979371431E+02 -0.15034445878E+02  0.22660082127E+02  0.00000000000E+00 0. -1.
        -14    1    6    6    0    0  0.53405099140E+02 -0.87333198677E+02 -0.21127226205E+02  0.10452536483E+03  0.00000000000E+00 0.  1.
</event>
<event>
12    1  0.8500177E-002  0.1908303E+03  0.7818608E-02  0.1157836E+00
         21   -1    0    0  501  502  0.00000000000E+00  0.00000000000E+00  0.20015839328E+03  0.20015839328E+03  0.00000000000E+00 0.  1.
         21   -1    0    0  502  503 -0.00000000000E+00 -0.00000000000E+00 -0.46573980137E+03  0.46573980137E+03  0.00000000000E+00 0.  1.
         -6    2    1    2    0  503 -0.36331194416E+02 -0.74373650163E+02 -0.39300392552E+03  0.43688474200E+03  0.17194416767E+03 0.  0.
        -24    2    3    3    0    0  0.22828048186E+02 -0.88122239082E+01 -0.96007899673E+02  0.12700275484E+03  0.79456956043E+02 0.  0.
          6    2    1    2  501    0  0.36331194416E+02  0.74373650163E+02  0.12742251743E+03  0.22901345266E+03  0.17134546397E+03 0.  0.
         24    2    5    5    0    0 -0.22553488216E+02  0.99393998053E+02  0.89535197147E+02  0.15450866962E+03  0.73949650306E+02 0.  0.
          5    1    5    5  501    0  0.58884682632E+02 -0.25020347891E+02  0.37887320279E+02  0.74504783035E+02  0.47000000000E+01 0. -1.
        -11    1    6    6    0    0 -0.14101261698E+02  0.32161370180E+02  0.78309954203E+02  0.85823354867E+02  0.00000000000E+00 0.  1.
         12    1    6    6    0    0 -0.84522265181E+01  0.67232627873E+02  0.11225242945E+02  0.68685314755E+02  0.00000000000E+00 0. -1.
         -5    1    3    3    0  503 -0.59159242602E+02 -0.65561426254E+02 -0.29699602584E+03  0.30988198716E+03  0.47000000000E+01 0.  1.
         13    1    4    4    0    0 -0.26719405196E+02  0.89940154864E+01 -0.20104654086E+02  0.34626811065E+02  0.00000000000E+00 0. -1.
        -14    1    4    4    0    0  0.49547453382E+02 -0.17806239395E+02 -0.75903245587E+02  0.92375943777E+02  0.00000000000E+00 0.  1.
</event>
<event>
12    1  0.8500177E-002  0.1742197E+03  0.7818608E-02  0.1174086E+00
         21   -1    0    0  503  502  0.00000000000E+00  0.00000000000E+00  0.13293694499E+03  0.13293694499E+03  0.00000000000E+00 0.  1.
         21   -1    0    0  501  503 -0.00000000000E+00 -0.00000000000E+00 -0.29588587795E+03  0.29588587795E+03  0.00000000000E+00 0.  1.
          6    2    1    2  501    0  0.42933170452E+01  0.21182622725E+02 -0.18571976348E+03  0.25312130791E+03  0.17062071942E+03 0.  0.
         24    2    3    3    0    0  0.45400041690E+02  0.23137664824E+02 -0.40594783224E+02  0.10220101473E+03  0.78743861138E+02 0.  0.
         -6    2    1    2    0  502 -0.42933170452E+01 -0.21182622725E+02  0.22770830516E+02  0.17570151503E+03  0.17287387189E+03 0.  0.
        -24    2    5    5    0    0 -0.62741116485E+02 -0.34072283239E+02  0.21917093632E+02  0.11565896783E+03  0.88313473847E+02 0.  0.
          5    1    3    3  501    0 -0.41106724645E+02 -0.19550420983E+01 -0.14512498026E+03  0.15092029319E+03  0.47000000000E+01 0. -1.
        -11    1    4    4    0    0 -0.22543679641E+02  0.20103428053E+01 -0.92627047888E+01  0.24455197197E+02  0.00000000000E+00 0.  1.
         12    1    4    4    0    0  0.67943721331E+02  0.21127322018E+02 -0.31332078435E+02  0.77745817528E+02  0.00000000000E+00 0. -1.
         -5    1    5    5    0  502  0.58447799440E+02  0.12889660513E+02  0.85373688435E+00  0.60042547199E+02  0.47000000000E+01 0.  1.
         11    1    6    6    0    0 -0.13399710191E+02  0.27398609051E+02  0.20634934148E+02  0.36824401128E+02  0.00000000000E+00 0. -1.
        -12    1    6    6    0    0 -0.49341406294E+02 -0.61470892289E+02  0.12821594840E+01  0.78834566700E+02  0.00000000000E+00 0.  1.
</event>
<event>
12    1  0.8500177E-002  0.2023479E+03  0.7818608E-02  0.1148303E+00
         21   -1    0    0  503  502  0.00000000000E+00  0.00000000000E+00  0.10027065070E+04  0.10027065070E+04  0.00000000000E+00 0.  1.
         21   -1    0    0  501  503 -0.00000000000E+00 -0.00000000000E+00 -0.65525790122E+02  0.65525790122E+02  0.00000000000E+00 0. -1.
          6    2    1    2  501    0  0.37317679190E+02  0.95770787372E+02  0.13553980564E+03  0.24144766655E+03  0.17135134629E+03 0.  0.
         24    2    3    3    0    0 -0.35324156150E+02  0.78442267596E+02  0.63183949529E+02  0.13735840796E+03  0.86453082115E+02 0.  0.
         -6    2    1    2    0  502 -0.37317679190E+02 -0.95770787372E+02  0.80164091124E+03  0.82678463057E+03  0.17429865716E+03 0.  0.
        -24    2    5    5    0    0  0.39732294694E+02 -0.80873980244E+02  0.53746738444E+03  0.55116105467E+03  0.82389701514E+02 0.  0.
          5    1    3    3  501    0  0.72641835340E+02  0.17328519775E+02  0.72355856112E+02  0.10408925859E+03  0.47000000000E+01 0. -1.
        -13    1    4    4    0    0  0.10923573046E+02  0.48463673524E+01  0.47567895080E+02  0.49046063726E+02  0.00000000000E+00 0.  1.
         14    1    4    4    0    0 -0.46247729196E+02  0.73595900244E+02  0.15616054449E+02  0.88312344239E+02  0.00000000000E+00 0. -1.
         -5    1    5    5    0  502 -0.77049973884E+02 -0.14896807128E+02  0.26417352679E+03  0.27562357591E+03  0.47000000000E+01 0.  1.
         11    1    6    6    0    0 -0.10829704692E+01 -0.53785931130E+02  0.12901778045E+03  0.13978443005E+03  0.00000000000E+00 0. -1.
        -12    1    6    6    0    0  0.40815265163E+02 -0.27088049114E+02  0.40844960400E+03  0.41137662461E+03  0.00000000000E+00 0.  1.
</event>
<event>
12    1  0.8500177E-002  0.2314623E+03  0.7818608E-02  0.1126180E+00
         21   -1    0    0  501  502  0.00000000000E+00  0.00000000000E+00  0.82066542691E+02  0.82066542691E+02  0.00000000000E+00 0. -1.
         21   -1    0    0  502  503 -0.00000000000E+00 -0.00000000000E+00 -0.15749642758E+04  0.15749642758E+04  0.00000000000E+00 0.  1.
         -6    2    1    2    0  503 -0.57709477076E+02 -0.14075407073E+03 -0.13856349491E+04  0.14048341528E+04  0.17444968485E+03 0.  0.
        -24    2    3    3    0    0 -0.42637900581E+02 -0.63265411207E+01 -0.64833103774E+03  0.65520953952E+03  0.84311271440E+02 0.  0.
          6    2    1    2  501    0  0.57709477076E+02  0.14075407073E+03 -0.10726278408E+03  0.25219666576E+03  0.17016392450E+03 0.  0.
         24    2    5    5    0    0  0.14354420958E+02  0.64804919610E+02 -0.12678946380E+03  0.16246754191E+03  0.76905182109E+02 0.  0.
          5    1    5    5  501    0  0.43355056118E+02  0.75949151115E+02  0.19526679723E+02  0.89729123851E+02  0.47000000000E+01 0. -1.
        -13    1    6    6    0    0  0.31675481049E+02  0.55311149916E+02 -0.12766914799E+03  0.14269572788E+03  0.00000000000E+00 0.  1.
         14    1    6    6    0    0 -0.17321060091E+02  0.94937696938E+01  0.87968419380E+00  0.19771814028E+02  0.00000000000E+00 0. -1.
         -5    1    3    3    0  503 -0.15071576495E+02 -0.13442752960E+03 -0.73730391133E+03  0.74962461326E+03  0.47000000000E+01 0.  1.
         13    1    4    4    0    0  0.18122885076E+02  0.18861326762E+02 -0.12118083995E+03  0.12397170880E+03  0.00000000000E+00 0. -1.
        -14    1    4    4    0    0 -0.60760785657E+02 -0.25187867883E+02 -0.52715019779E+03  0.53123783072E+03  0.00000000000E+00 0.  1.
</event>
<event>
12    1  0.8500177E-002  0.1862483E+03  0.7818608E-02  0.1162077E+00
         21   -1    0    0  501  502  0.00000000000E+00  0.00000000000E+00  0.12950425802E+03  0.12950425802E+03  0.00000000000E+00 0. -1.
         21   -1    0    0  502  503 -0.00000000000E+00 -0.00000000000E+00 -0.88746496538E+03  0.88746496538E+03  0.00000000000E+00 0. -1.
         -6    2    1    2    0  503  0.56094645593E+02 -0.46834326518E+02 -0.80400519673E+03  0.82511371986E+03  0.17043541573E+03 0.  0.
        -24    2    3    3    0    0  0.95916532539E+02 -0.60766934728E+02 -0.67939190186E+03  0.69346850153E+03  0.80203520697E+02 0.  0.
          6    2    1    2  501    0 -0.56094645593E+02  0.46834326518E+02  0.46044489369E+02  0.19185550353E+03  0.17131367671E+03 0.  0.
         24    2    5    5    0    0 -0.46713321132E+01  0.88337392050E+02  0.21685403304E+02  0.12126997604E+03  0.80067685075E+02 0.  0.
          5    1    5    5  501    0 -0.51423313480E+02 -0.41503065532E+02  0.24359086065E+02  0.70585527495E+02  0.47000000000E+01 0. -1.
        -13    1    6    6    0    0  0.32696666738E+02  0.25109470922E+02 -0.81024235944E+01  0.42014364375E+02  0.00000000000E+00 0.  1.
         14    1    6    6    0    0 -0.37367998851E+02  0.63227921128E+02  0.29787826899E+02  0.79255611660E+02  0.00000000000E+00 0. -1.
         -5    1    3    3    0  503 -0.39821886946E+02  0.13932608211E+02 -0.12461329487E+03  0.13164521833E+03  0.47000000000E+01 0.  1.
         11    1    4    4    0    0  0.54560497844E+02 -0.73978895337E+02 -0.52933872377E+03  0.53726083922E+03  0.00000000000E+00 0. -1.
        -12    1    4    4    0    0  0.41356034695E+02  0.13211960609E+02 -0.15005317809E+03  0.15620766231E+03  0.00000000000E+00 0.  1.
</event>
<event>
12    1  0.8500177E-002  0.1740997E+03  0.7818608E-02  0.1173813E+00
         21   -1    0    0  501  502  0.00000000000E+00  0.00000000000E+00  0.83027318611E+02  0.83027318611E+02  0.00000000000E+00 0.  1.
         21   -1    0    0  502  503 -0.00000000000E+00 -0.00000000000E+00 -0.40240385237E+03  0.40240385237E+03  0.00000000000E+00 0.  1.
         -6    2    1    2    0  503  0.10686276297E+02  0.19089679803E+02 -0.23474525827E+03  0.29185129058E+03  0.17202682104E+03 0.  0.
        -24    2    3    3    0    0 -0.28317105002E+02  0.65760688251E+02 -0.18286455662E+03  0.21176918281E+03  0.79249064114E+02 0.  0.
          6    2    1    2  501    0 -0.10686276297E+02 -0.19089679803E+02 -0.84631275489E+02  0.19357988040E+03  0.17271972941E+03 0.  0.
         24    2    5    5    0    0 -0.18555205585E+02 -0.53762348009E+02 -0.11027248407E+03  0.14949274457E+03  0.83386894761E+02 0.  0.
          5    1    5    5  501    0  0.78689292881E+01  0.34672668206E+02  0.25641208578E+02  0.44087135833E+02  0.47000000000E+01 0. -1.
        -11    1    6    6    0    0 -0.39266654827E+02 -0.31523996647E+02 -0.19894886798E+02  0.54142765598E+02  0.00000000000E+00 0.  1.
         12    1    6    6    0    0  0.20711449242E+02 -0.22238351361E+02 -0.90377597269E+02  0.95349978967E+02  0.00000000000E+00 0. -1.
         -5    1    3    3    0  503  0.39003381299E+02 -0.46671008448E+02 -0.51880701646E+02  0.80082107775E+02  0.47000000000E+01 0.  1.
         11    1    4    4    0    0 -0.47968153844E+02  0.38666545560E+02 -0.15940080019E+03  0.17089371150E+03  0.00000000000E+00 0. -1.
        -12    1    4    4    0    0  0.19651048841E+02  0.27094142691E+02 -0.23463756434E+02  0.40875471309E+02  0.00000000000E+00 0.  1.
</event>
<event>
12    1  0.8500177E-002  0.2346183E+03  0.7818608E-02  0.1123493E+00
         21   -1    0    0  503  502  0.00000000000E+00  0.00000000000E+00  0.76645507298E+03  0.76645507298E+03  0.00000000000E+00 0.  1.
         21   -1    0    0  501  503 -0.00000000000E+00 -0.00000000000E+00 -0.82534392698E+02  0.82534392698E+02  0.00000000000E+00 0.  1.
          6    2    1    2  501    0 -0.13772047598E+03  0.80909015337E+02  0.18799229106E+03  0.30036325042E+03  0.17135863690E+03 0.  0.
         24    2    3    3    0    0 -0.78695110603E+02  0.77764401722E+02  0.19881951582E+03  0.24008720917E+03  0.76631883233E+02 0.  0.
         -6    2    1    2    0  502  0.13772047598E+03 -0.80909015337E+02  0.49592838923E+03  0.54862621526E+03  0.17185039587E+03 0.  0.
        -24    2    5    5    0    0  0.42955760670E+02 -0.52996561057E+02  0.11823464163E+03  0.15819809980E+03  0.79958585772E+02 0.  0.
          5    1    3    3  501    0 -0.59025365375E+02  0.31446136145E+01 -0.10827224767E+02  0.60276041249E+02  0.47000000000E+01 0. -1.
        -11    1    4    4    0    0 -0.68733006970E+02  0.64251199293E+02  0.20214855932E+03  0.22297193297E+03  0.00000000000E+00 0.  1.
         12    1    4    4    0    0 -0.99621036333E+01  0.13513202430E+02 -0.33290435005E+01  0.17115276198E+02  0.00000000000E+00 0. -1.
         -5    1    5    5    0  502  0.94764715309E+02 -0.27912454280E+02  0.37769374759E+03  0.39042811546E+03  0.47000000000E+01 0.  1.
         13    1    6    6    0    0  0.57495311646E+02 -0.86941108814E+01  0.59357135044E+02  0.83093729642E+02  0.00000000000E+00 0. -1.
        -14    1    6    6    0    0 -0.14539550976E+02 -0.44302450176E+02  0.58877506590E+02  0.75104370155E+02  0.00000000000E+00 0.  1.
</event>
<event>
12    1  0.8500177E-002  0.1953342E+03  0.7818608E-02  0.1153754E+00
         21   -1    0    0  503  502  0.00000000000E+00  0.00000000000E+00  0.34943637347E+02  0.34943637347E+02  0.00000000000E+00 0. -1.
         21   -1    0    0  501  503 -0.00000000000E+00 -0.00000000000E+00 -0.11172039496E+04  0.11172039496E+04  0.00000000000E+00 0. -1.
          6    2    1    2  501    0  0.82548230933E+02  0.43550515678E+02 -0.62869331487E+03  0.65833936543E+03  0.17159422506E+03 0.  0.
         24    2    3    3    0    0 -0.11049810093E+02  0.30626019107E+02 -0.42628475304E+03  0.43491387048E+03  0.79820628342E+02 0.  0.
         -6    2    1    2    0  502 -0.82548230933E+02 -0.43550515678E+02 -0.45356699742E+03  0.49380822155E+03  0.17150125561E+03 0.  0.
        -24    2    5    5    0    0 -0.16087958891E+02 -0.28241310627E+02 -0.39323942958E+03  0.40263341713E+03  0.80125062041E+02 0.  0.
          5    1    3    3  501    0  0.93598041026E+02  0.12924496571E+02 -0.20240856183E+03  0.22342549496E+03  0.47000000000E+01 0. -1.
        -11    1    4    4    0    0  0.10808887769E+02  0.17997909136E+02 -0.24199961634E+02  0.32037398945E+02  0.00000000000E+00 0.  1.
         12    1    4    4    0    0 -0.21858697862E+02  0.12628109971E+02 -0.40208479141E+03  0.40287647153E+03  0.00000000000E+00 0. -1.
         -5    1    5    5    0  502 -0.66460272042E+02 -0.15309205051E+02 -0.60327567843E+02  0.91174804421E+02  0.47000000000E+01 0.  1.
         11    1    6    6    0    0 -0.12163365211E+02 -0.36802783552E+02 -0.76548528849E+02  0.85802503456E+02  0.00000000000E+00 0. -1.
        -12    1    6    6    0    0 -0.39245936794E+01  0.85614729253E+01 -0.31669090073E+03  0.31683091367E+03  0.00000000000E+00 0.  1.
</event>
<event>
12    1  0.8500177E-002  0.1821294E+03  0.7818608E-02  0.1166048E+00
         21   -1    0    0  501  502  0.00000000000E+00  0.00000000000E+00  0.40241023627E+03  0.40241023627E+03  0.00000000000E+00 0. -1.
         21   -1    0    0  502  503 -0.00000000000E+00 -0.00000000000E+00 -0.19526780166E+03  0.19526780166E+03  0.00000000000E+00 0. -1.
         -6    2    1    2    0  503 -0.16386924710E+02  0.56187072400E+02 -0.12400223493E+03  0.22033532346E+03  0.17246907574E+03 0.  0.
        -24    2    3    3    0    0  0.57212248626E+01  0.13002108241E+02 -0.14602701745E+03  0.16684801233E+03  0.79451759955E+02 0.  0.
          6    2    1    2  501    0  0.16386924710E+02 -0.56187072400E+02  0.33114466954E+03  0.37734271447E+03  0.17118765609E+03 0.  0.
         24    2    5    5    0    0 -0.27433058171E+02  0.23416906684E+02  0.18010270237E+03  0.20101134962E+03  0.81655710613E+02 0.  0.
          5    1    5    5  501    0  0.43819982881E+02 -0.79603979084E+02  0.15104196716E+03  0.17633136485E+03  0.47000000000E+01 0. -1.
        -11    1    6    6    0    0 -0.41757051878E+02 -0.91632821320E+01  0.14441735129E+03  0.15061204624E+03  0.00000000000E+00 0.  1.
         12    1    6    6    0    0  0.14323993707E+02  0.32580188816E+02  0.35685351088E+02  0.50399303380E+02  0.00000000000E+00 0. -1.
         -5    1    3    3    0  503 -0.22108149573E+02  0.43184964159E+02  0.22024782515E+02  0.53487311129E+02  0.47000000000E+01 0.  1.
         11    1    4    4    0    0  0.27948632702E+02  0.27913069010E+02 -0.12950203117E+03  0.13539217691E+03  0.00000000000E+00 0. -1.
        -12    1    4    4    0    0 -0.22227407840E+02 -0.14910960769E+02 -0.16524986281E+02  0.31455835419E+02  0.00000000000E+00 0.  1.
</event>
<event>
12    1  0.8500177E-002  0.2501437E+03  0.7818608E-02  0.1114664E+00
         21   -1    0    0  501  502  0.00000000000E+00  0.00000000000E+00  0.10849028547E+03  0.10849028547E+03  0.00000000000E+00 0. -1.
         21   -1    0    0  502  503 -0.00000000000E+00 -0.00000000000E+00 -0.62239350000E+03  0.62239350000E+03  0.00000000000E+00 0. -1.
         -6    2    1    2    0  503 -0.13127260598E+03  0.10344585312E+03 -0.37192161499E+03  0.44325439227E+03  0.17382527712E+03 0.  0.
        -24    2    3    3    0    0 -0.11477376155E+03  0.12413299071E+03 -0.22419916679E+03  0.29310719373E+03  0.84050847115E+02 0.  0.
          6    2    1    2  501    0  0.13127260598E+03 -0.10344585312E+03 -0.14198159954E+03  0.28762939320E+03  0.18611381361E+03 0.  0.
         24    2    5    5    0    0  0.16010778175E+03 -0.58794805283E+02 -0.10432460686E+03  0.22231995642E+03  0.97217326249E+02 0.  0.
          5    1    5    5  501    0 -0.28835175770E+02 -0.44651047836E+02 -0.37656992681E+02  0.65309436778E+02  0.47000000000E+01 0. -1.
        -11    1    6    6    0    0  0.88656949910E+01  0.11331024198E+02 -0.41909532421E+02  0.44310287347E+02  0.00000000000E+00 0.  1.
         12    1    6    6    0    0  0.15124208676E+03 -0.70125829482E+02 -0.62415074436E+02  0.17800966907E+03  0.00000000000E+00 0. -1.
         -5    1    3    3    0  503 -0.16498844424E+02 -0.20687137594E+02 -0.14772244820E+03  0.15014719855E+03  0.47000000000E+01 0.  1.
         13    1    4    4    0    0 -0.42258730514E+02  0.51940129341E+01 -0.90550737548E+02  0.10006105209E+03  0.00000000000E+00 0. -1.
        -14    1    4    4    0    0 -0.72515031040E+02  0.11893897778E+03 -0.13364842924E+03  0.19304614163E+03  0.00000000000E+00 0.  1.
</event>
<event>
12    1  0.8500177E-002  0.2863714E+03  0.7818608E-02  0.1092329E+00
         21   -1    0    0  501  502  0.00000000000E+00  0.00000000000E+00  0.11005606243E+04  0.11005606243E+04  0.00000000000E+00 0.  1.
         21   -1    0    0  502  503 -0.00000000000E+00 -0.00000000000E+00 -0.82581360671E+02  0.82581360671E+02  0.00000000000E+00 0. -1.
         -6    2    1    2    0  503  0.70705644819E+01  0.22975800338E+03  0.32297242910E+03  0.43164772190E+03  0.17079178218E+03 0.  0.
        -24    2    3    3    0    0  0.18670931990E+02  0.89649763332E+02  0.62911893824E+02  0.13598159353E+03  0.78405380090E+02 0.  0.
          6    2    1    2  501    0 -0.70705644819E+01 -0.22975800338E+03  0.69500683449E+03  0.75149426304E+03  0.16991290237E+03 0.  0.
         24    2    5    5    0    0  0.26237940566E+00 -0.12455315067E+03  0.22392493504E+03  0.26872922796E+03  0.80990525648E+02 0.  0.
          5    1    5    5  501    0 -0.73329438875E+01 -0.10520485271E+03  0.47108189946E+03  0.48276503508E+03  0.47000000000E+01 0. -1.
        -13    1    6    6    0    0 -0.75051548105E+01 -0.11627547785E+03  0.13184764362E+03  0.17595486701E+03  0.00000000000E+00 0.  1.
         14    1    6    6    0    0  0.77675342162E+01 -0.82776728235E+01  0.92077291411E+02  0.92774360945E+02  0.00000000000E+00 0. -1.
         -5    1    3    3    0  503 -0.11600367508E+02  0.14010824005E+03  0.26006053528E+03  0.29566612837E+03  0.47000000000E+01 0.  1.
         11    1    4    4    0    0  0.40989415995E+02  0.18616627189E+02  0.15048244372E+02  0.47467469811E+02  0.00000000000E+00 0. -1.
        -12    1    4    4    0    0 -0.22318484006E+02  0.71033136143E+02  0.47863649451E+02  0.88514123717E+02  0.00000000000E+00 0.  1.
</event>
<event>
12    1  0.8500177E-002  0.1722560E+03  0.7818608E-02  0.1175620E+00
         21   -1    0    0  503  502  0.00000000000E+00  0.00000000000E+00  0.63679668707E+03  0.63679668707E+03  0.00000000000E+00 0.  1.
         21   -1    0    0  501  503 -0.00000000000E+00 -0.00000000000E+00 -0.46699448427E+02  0.46699448427E+02  0.00000000000E+00 0.  1.
          6    2    1    2  501    0 -0.29015176971E+01  0.12190279330E+02  0.27225870850E+03  0.32217531643E+03  0.17179961713E+03 0.  0.
         24    2    3    3    0    0 -0.33156705656E+02 -0.15956704518E+02  0.26531685743E+03  0.28001006540E+03  0.81600357450E+02 0.  0.
         -6    2    1    2    0  502  0.29015176971E+01 -0.12190279330E+02  0.31783853014E+03  0.36132081907E+03  0.17138956017E+03 0.  0.
        -24    2    5    5    0    0  0.50889873772E+02  0.87121192853E+01  0.10480305318E+03  0.14189885793E+03  0.80535244771E+02 0.  0.
          5    1    3    3  501    0  0.30255187959E+02  0.28146983848E+02  0.69418510645E+01  0.42165251030E+02  0.47000000000E+01 0. -1.
        -13    1    4    4    0    0  0.25081734673E+02 -0.14406202421E+02  0.60336244552E+02  0.66911093916E+02  0.00000000000E+00 0.  1.
         14    1    4    4    0    0 -0.58238440330E+02 -0.15505020975E+01  0.20498061288E+03  0.21309897148E+03  0.00000000000E+00 0. -1.
         -5    1    5    5    0  502 -0.47988356075E+02 -0.20902398615E+02  0.21303547696E+03  0.21942196114E+03  0.47000000000E+01 0.  1.
         11    1    6    6    0    0  0.31859454592E+02  0.36538852680E+02  0.23479277089E+02  0.53864543576E+02  0.00000000000E+00 0. -1.
        -12    1    6    6    0    0  0.19030419179E+02 -0.27826733394E+02  0.81323776093E+02  0.88034314353E+02  0.00000000000E+00 0.  1.
</event>
<event>
12    1  0.8500177E-002  0.2027102E+03  0.7818608E-02  0.1147478E+00
         21   -1    0    0  503  502  0.00000000000E+00  0.00000000000E+00  0.40320987627E+03  0.40320987627E+03  0.00000000000E+00 0. -1.
         21   -1    0    0  501  503 -0.00000000000E+00 -0.00000000000E+00 -0.10859025692E+03  0.10859025692E+03  0.00000000000E+00 0. -1.
          6    2    1    2  501    0  0.18124369507E+02 -0.10533492278E+03  0.83787014467E+02  0.21934380384E+03  0.17224256665E+03 0.  0.
         24    2    3    3    0    0  0.38499695000E+02  0.42726863052E+01  0.65788437387E+02  0.10631716700E+03  0.73991480204E+02 0.  0.
         -6    2    1    2    0  502 -0.18124369507E+02  0.10533492278E+03  0.21083260488E+03  0.29245632935E+03  0.17221027428E+03 0.  0.
        -24    2    5    5    0    0  0.15652670269E+02  0.20391306759E+02  0.28971824256E+02  0.88859325813E+02  0.79973756354E+02 0.  0.
          5    1    3    3  501    0 -0.20375325493E+02 -0.10960760909E+03  0.17998577079E+02  0.11302663684E+03  0.47000000000E+01 0. -1.
        -13    1    4    4    0    0 -0.18287022309E+02  0.19255170885E+01  0.39758451756E+02  0.43804763292E+02  0.00000000000E+00 0.  1.
         14    1    4    4    0    0  0.56786717309E+02  0.23471692167E+01  0.26029985631E+02  0.62512403713E+02  0.00000000000E+00 0. -1.
         -5    1    5    5    0  502 -0.33777039776E+02  0.84943616021E+02  0.18186078062E+03  0.20359700353E+03  0.47000000000E+01 0.  1.
         11    1    6    6    0    0 -0.43759080407E+01  0.43030268777E+02  0.37722630367E+02  0.57391196572E+02  0.00000000000E+00 0. -1.
        -12    1    6    6    0    0  0.20028578310E+02 -0.22638962018E+02 -0.87508061104E+01  0.31468129241E+02  0.00000000000E+00 0.  1.
</event>
<event>
12    1  0.8500177E-002  0.1736478E+03  0.7818608E-02  0.1175651E+00
         21   -1    0    0  503  502  0.00000000000E+00  0.00000000000E+00  0.26424369081E+03  0.26424369081E+03  0.00000000000E+00 0. -1.
         21   -1    0    0  501  503 -0.00000000000E+00 -0.00000000000E+00 -0.19408742953E+03  0.19408742953E+03  0.00000000000E+00 0. -1.
          6    2    1    2  501    0 -0.14698643941E+01  0.95345207132E+01 -0.11522455088E+03  0.20839924166E+03  0.17337958131E+03 0.  0.
         24    2    3    3    0    0 -0.22001923312E+01 -0.50325546150E+02 -0.20498958116E+02  0.96244041568E+02  0.79405332390E+02 0.  0.
         -6    2    1    2    0  502  0.14698643941E+01 -0.95345207132E+01  0.18538081216E+03  0.24993187868E+03  0.16735241520E+03 0.  0.
        -24    2    5    5    0    0  0.58060620576E+02 -0.57739379736E+01  0.15739549299E+03  0.18651323980E+03  0.81298667799E+02 0.  0.
          5    1    3    3  501    0  0.73032793708E+00  0.59860066864E+02 -0.94725592764E+02  0.11215520009E+03  0.47000000000E+01 0. -1.
        -13    1    4    4    0    0 -0.14396489677E+02  0.16709062236E+02 -0.17304958729E+02  0.28034144761E+02  0.00000000000E+00 0.  1.
         14    1    4    4    0    0  0.12196297346E+02 -0.67034608386E+02 -0.31939993867E+01  0.68209896808E+02  0.00000000000E+00 0. -1.
         -5    1    5    5    0  502 -0.56590756182E+02 -0.37605827396E+01  0.27985319175E+02  0.63418638877E+02  0.47000000000E+01 0.  1.
         11    1    6    6    0    0 -0.20454930154E+01  0.13385361320E+01  0.10897588978E+03  0.10900330396E+03  0.00000000000E+00 0. -1.
        -12    1    6    6    0    0  0.60106113591E+02 -0.71124741056E+01  0.48419603207E+02  0.77509935838E+02  0.00000000000E+00 0.  1.
</event>
<event>
12    1  0.8500177E-002  0.1776514E+03  0.7818608E-02  0.1170679E+00
         21   -1    0    0  501  502  0.00000000000E+00  0.00000000000E+00  0.17141803511E+03  0.17141803511E+03  0.00000000000E+00 0. -1.
         21   -1    0    0  502  503 -0.00000000000E+00 -0.00000000000E+00 -0.25709872830E+03  0.25709872830E+03  0.00000000000E+00 0. -1.
         -6    2    1    2    0  503 -0.44830240559E+02 -0.12500611783E+02 -0.15868227801E+03  0.23645097231E+03  0.16900586140E+03 0.  0.
        -24    2    3    3    0    0 -0.54050956672E+02 -0.67882498806E+02 -0.94529783277E+02  0.15107060222E+03  0.79730216149E+02 0.  0.
          6    2    1    2  501    0  0.44830240559E+02  0.12500611783E+02  0.73001584825E+02  0.19206579110E+03  0.17144684587E+03 0.  0.
         24    2    5    5    0    0  0.24155019216E+01 -0.53359797079E+02  0.24460145115E+02  0.99789223767E+02  0.80662803615E+02 0.  0.
          5    1    5    5  501    0  0.42414738637E+02  0.65860408862E+02  0.48541439711E+02  0.92276567331E+02  0.47000000000E+01 0. -1.
        -13    1    6    6    0    0  0.31985364977E+01 -0.34829947292E+02  0.54338795627E+02  0.64622446366E+02  0.00000000000E+00 0.  1.
         14    1    6    6    0    0 -0.78303457605E+00 -0.18529849788E+02 -0.29878650513E+02  0.35166777401E+02  0.00000000000E+00 0. -1.
         -5    1    3    3    0  503  0.92207161129E+01  0.55381887023E+02 -0.64152494736E+02  0.85380370090E+02  0.47000000000E+01 0.  1.
         13    1    4    4    0    0  0.15098539416E+02 -0.20730558259E+02 -0.50172560932E+02  0.56347207639E+02  0.00000000000E+00 0. -1.
        -14    1    4    4    0    0 -0.69149496088E+02 -0.47151940547E+02 -0.44357222346E+02  0.94723394580E+02  0.00000000000E+00 0.  1.
</event>
<event>
12    1  0.8500177E-002  0.2472159E+03  0.7818608E-02  0.1115400E+00
         21   -1    0    0  503  502  0.00000000000E+00  0.00000000000E+00  0.31824254617E+03  0.31824254617E+03  0.00000000000E+00 0.  1.
         21   -1    0    0  501  503 -0.00000000000E+00 -0.00000000000E+00 -0.50862953418E+03  0.50862953418E+03  0.00000000000E+00 0.  1.
          6    2    1    2  501    0 -0.13512373227E+03  0.11678914853E+03 -0.42202554714E+03  0.48809176685E+03  0.16801750560E+03 0.  0.
         24    2    3    3    0    0 -0.74875589337E+02  0.32027363995E+02 -0.33174590767E+03  0.35029879842E+03  0.77600225497E+02 0.  0.
         -6    2    1    2    0  502  0.13512373227E+03 -0.11678914853E+03  0.23163855913E+03  0.33878031350E+03  0.17093142046E+03 0.  0.
        -24    2    5    5    0    0  0.32968259706E+01 -0.45957923894E+02  0.12903175498E+03  0.15727096976E+03  0.77213757221E+02 0.  0.
          5    1    3    3  501    0 -0.60248142937E+02  0.84761784531E+02 -0.90279639467E+02  0.13779296842E+03  0.47000000000E+01 0. -1.
        -11    1    4    4    0    0 -0.41087718045E+01  0.36399643998E+02 -0.16654147575E+03  0.17052237165E+03  0.00000000000E+00 0.  1.
         12    1    4    4    0    0 -0.70766817533E+02 -0.43722800031E+01 -0.16520443192E+03  0.17977642677E+03  0.00000000000E+00 0. -1.
         -5    1    5    5    0  502  0.13182690630E+03 -0.70831224633E+02  0.10260680415E+03  0.18150934374E+03  0.47000000000E+01 0.  1.
         11    1    6    6    0    0  0.28134524759E+02  0.16784427623E+01  0.16717738325E+02  0.32769672386E+02  0.00000000000E+00 0. -1.
        -12    1    6    6    0    0 -0.24837698789E+02 -0.47636366656E+02  0.11231401666E+03  0.12450129737E+03  0.00000000000E+00 0.  1.
</event>
<event>
12    1  0.8500177E-002  0.2224258E+03  0.7818608E-02  0.1132648E+00
         21   -1    0    0  503  502  0.00000000000E+00  0.00000000000E+00  0.29171442618E+04  0.29171442618E+04  0.00000000000E+00 0.  1.
         21   -1    0    0  501  503 -0.00000000000E+00 -0.00000000000E+00 -0.23821100162E+02  0.23821100162E+02  0.00000000000E+00 0.  1.
          6    2    1    2  501    0  0.95910297942E+02 -0.95887389958E+02  0.65130682246E+03  0.68823964778E+03  0.17629537426E+03 0.  0.
         24    2    3    3    0    0  0.72035127783E+02 -0.11256178114E+03  0.31609286585E+03  0.35173029311E+03  0.77073244657E+02 0.  0.
         -6    2    1    2    0  502 -0.95910297942E+02  0.95887389958E+02  0.22420163392E+04  0.22527257142E+04  0.17246072426E+03 0.  0.
        -24    2    5    5    0    0 -0.51814842019E+02  0.44597060764E+02  0.19580430430E+04  0.19607701867E+04  0.77546702299E+02 0.  0.
          5    1    3    3  501    0  0.23875170159E+02  0.16674391184E+02  0.33521395661E+03  0.33650935467E+03  0.47000000000E+01 0. -1.
        -11    1    4    4    0    0  0.81370171596E+02 -0.10741191871E+03  0.31276940061E+03  0.34056295022E+03  0.00000000000E+00 0.  1.
         12    1    4    4    0    0 -0.93350438130E+01 -0.51498624286E+01  0.33234652451E+01  0.11167342892E+02  0.00000000000E+00 0. -1.
         -5    1    5    5    0  502 -0.44095455923E+02  0.51290329195E+02  0.28397329623E+03  0.29195552756E+03  0.47000000000E+01 0.  1.
         11    1    6    6    0    0  0.19020312496E+01  0.71963184711E+01  0.16243081393E+02  0.17867356143E+02  0.00000000000E+00 0. -1.
        -12    1    6    6    0    0 -0.53716873269E+02  0.37400742292E+02  0.19417999616E+04  0.19429028305E+04  0.00000000000E+00 0.  1.
</event>
<event>
12    1  0.8500177E-002  0.1954495E+03  0.7818608E-02  0.1153751E+00
         21   -1    0    0  503  502  0.00000000000E+00  0.00000000000E+00  0.40360794731E+03  0.40360794731E+03  0.00000000000E+00 0.  1.
         21   -1    0    0  501  503 -0.00000000000E+00 -0.00000000000E+00 -0.16167278854E+03  0.16167278854E+03  0.00000000000E+00 0. -1.
          6    2    1    2  501    0  0.90453127781E+02 -0.68991591406E+01 -0.61460416001E+02  0.20437996050E+03  0.17252367604E+03 0.  0.
         24    2    3    3    0    0  0.44396331665E+02 -0.36475806073E+02  0.24423444339E+02  0.10242833482E+03  0.81200618507E+02 0.  0.
         -6    2    1    2    0  502 -0.90453127781E+02  0.68991591406E+01  0.30339557477E+03  0.36090077536E+03  0.17312171481E+03 0.  0.
        -24    2    5    5    0    0  0.15890044875E+01  0.47867648168E+02  0.15122998895E+03  0.17834495727E+03  0.81502009495E+02 0.  0.
          5    1    3    3  501    0  0.46056796116E+02  0.29576646932E+02 -0.85883860340E+02  0.10195162568E+03  0.47000000000E+01 0. -1.
        -11    1    4    4    0    0  0.55463913294E+02 -0.53108418274E+02  0.28734061243E+02  0.81990219203E+02  0.00000000000E+00 0.  1.
         12    1    4    4    0    0 -0.11067581629E+02  0.16632612200E+02 -0.43106169040E+01  0.20438115613E+02  0.00000000000E+00 0. -1.
         -5    1    5    5    0  502 -0.92042132269E+02 -0.40968489028E+02  0.15216558583E+03  0.18255581808E+03  0.47000000000E+01 0.  1.
         11    1    6    6    0    0  0.82456184858E+01  0.19110493410E+02 -0.32539538127E+01  0.21066309549E+02  0.00000000000E+00 0. -1.
        -12    1    6    6    0    0 -0.66566139982E+01  0.28757154758E+02  0.15448394276E+03  0.15727864772E+03  0.00000000000E+00 0.  1.
</event>
<event>
12    1  0.8500177E-002  0.1841314E+03  0.7818608E-02  0.1164314E+00
         21   -1    0    0  501  502  0.00000000000E+00  0.00000000000E+00  0.26117919530E+03  0.26117919530E+03  0.00000000000E+00 0. -1.
         21   -1    0    0  502  503 -0.00000000000E+00 -0.00000000000E+00 -0.15591110208E+03  0.15591110208E+03  0.00000000000E+00 0.  1.
         -6    2    1    2    0  503  0.57133649454E+02  0.31168073475E+02 -0.35079223138E+02  0.18556983556E+03  0.17020549130E+03 0.  0.
        -24    2    3    3    0    0  0.45977610987E+02 -0.29247826765E+02 -0.65405048663E+02  0.11689462977E+03  0.80107165702E+02 0.  0.
          6    2    1    2  501    0 -0.57133649454E+02 -0.31168073475E+02  0.14034731636E+03  0.23152046183E+03  0.17224590657E+03 0.  0.
         24    2    5    5    0    0 -0.76105643193E+02  0.34313373238E+02  0.96593962704E+02  0.15037736375E+03  0.79457418706E+02 0.  0.
          5    1    5    5  501    0  0.18971993739E+02 -0.65481446713E+02  0.43753353656E+02  0.81143098081E+02  0.47000000000E+01 0. -1.
        -13    1    6    6    0    0 -0.43512038600E+02  0.12975848525E+02 -0.87231572816E+00  0.45413996552E+02  0.00000000000E+00 0.  1.
         14    1    6    6    0    0 -0.32593604593E+02  0.21337524713E+02  0.97466278432E+02  0.10496336719E+03  0.00000000000E+00 0. -1.
         -5    1    3    3    0  503  0.11156038467E+02  0.60415900240E+02  0.30325825525E+02  0.68675205787E+02  0.47000000000E+01 0.  1.
         11    1    4    4    0    0 -0.53885054761E+01 -0.26213405167E+02  0.73776767361E+01  0.27759839981E+02  0.00000000000E+00 0. -1.
        -12    1    4    4    0    0  0.51366116463E+02 -0.30344215979E+01 -0.72782725399E+02  0.89134789793E+02  0.00000000000E+00 0.  1.
</event>
<event>
12    1  0.8500177E-002  0.1874987E+03  0.7818608E-02  0.1162000E+00
         21   -1    0    0  501  502  0.00000000000E+00  0.00000000000E+00  0.88023404208E+02  0.88023404208E+02  0.00000000000E+00 0.  1.
         21   -1    0    0  502  503 -0.00000000000E+00 -0.00000000000E+00 -0.11048582768E+04  0.11048582768E+04  0.00000000000E+00 0.  1.
         -6    2    1    2    0  503 -0.43214429961E+02 -0.62426671259E+02 -0.98623561218E+03  0.10029025478E+04  0.16549399213E+03 0.  0.
        -24    2    3    3    0    0 -0.89369151354E+02 -0.34631443643E+02 -0.77509091349E+03  0.78494152660E+03  0.78619933177E+02 0.  0.
          6    2    1    2  501    0  0.43214429961E+02  0.62426671259E+02 -0.30599260436E+02  0.18997913322E+03  0.17143856065E+03 0.  0.
         24    2    5    5    0    0  0.41963875663E+02  0.80269205402E+02  0.31598173430E+02  0.12509053106E+03  0.80281281760E+02 0.  0.
          5    1    5    5  501    0  0.12505542985E+01 -0.17842534143E+02 -0.62197433865E+02  0.64888602159E+02  0.47000000000E+01 0. -1.
        -11    1    6    6    0    0  0.62506321965E+02  0.42400675401E+02  0.79564979253E+01  0.75948426049E+02  0.00000000000E+00 0.  1.
         12    1    6    6    0    0 -0.20542446303E+02  0.37868530001E+02  0.23641675504E+02  0.49142105013E+02  0.00000000000E+00 0. -1.
         -5    1    3    3    0  503  0.46154721393E+02 -0.27795227615E+02 -0.21114469869E+03  0.21796102121E+03  0.47000000000E+01 0.  1.
         11    1    4    4    0    0 -0.31690331688E+02  0.25328771182E+02 -0.23371255320E+03  0.23720746467E+03  0.00000000000E+00 0. -1.
        -12    1    4    4    0    0 -0.57678819667E+02 -0.59960214825E+02 -0.54137836030E+03  0.54773406193E+03  0.00000000000E+00 0.  1.
</event>
<event>
12    1  0.8500177E-002  0.2751979E+03  0.7818608E-02  0.1098619E+00
         21   -1    0    0  501  502  0.00000000000E+00  0.00000000000E+00  0.26721142151E+02  0.26721142151E+02  0.00000000000E+00 0.  1.
         21   -1    0    0  502  503 -0.00000000000E+00 -0.00000000000E+00 -0.30295761418E+04  0.30295761418E+04  0.00000000000E+00 0.  1.
         -6    2    1    2    0  503  0.12472031571E+03 -0.17243790302E+03 -0.19041447067E+04  0.19236463250E+04  0.17134214959E+03 0.  0.
        -24    2    3    3    0    0  0.82541282797E+02 -0.70291694207E+02 -0.60435686850E+03  0.61916043660E+03  0.79739802549E+02 0.  0.
          6    2    1    2  501    0 -0.12472031571E+03  0.17243790302E+03 -0.10987102929E+04  0.11326509589E+04  0.17448180235E+03 0.  0.
         24    2    5    5    0    0 -0.69510759065E+02  0.17816022082E+03 -0.97833257103E+03  0.10000096154E+04  0.79446847118E+02 0.  0.
          5    1    5    5  501    0 -0.55209556643E+02 -0.57223178006E+01 -0.12037772191E+03  0.13264134348E+03  0.47000000000E+01 0. -1.
        -13    1    6    6    0    0 -0.33888920167E+02  0.53351701899E+02 -0.17093172652E+03  0.18224301945E+03  0.00000000000E+00 0.  1.
         14    1    6    6    0    0 -0.35621838898E+02  0.12480851892E+03 -0.80740084450E+03  0.81776659598E+03  0.00000000000E+00 0. -1.
         -5    1    3    3    0  503  0.42179032911E+02 -0.10214620881E+03 -0.12997878382E+04  0.13044858884E+04  0.47000000000E+01 0.  1.
         13    1    4    4    0    0  0.41812625741E+02  0.10526017445E+02 -0.23118443788E+03  0.23517086774E+03  0.00000000000E+00 0. -1.
        -14    1    4    4    0    0  0.40728657056E+02 -0.80817711652E+02 -0.37317243062E+03  0.38398956887E+03  0.00000000000E+00 0.  1.
</event>
<event>
12    1  0.8500177E-002  0.1793274E+03  0.7818608E-02  0.1168666E+00
         21   -1    0    0  503  502  0.00000000000E+00  0.00000000000E+00  0.54776783964E+03  0.54776783964E+03  0.00000000000E+00 0. -1.
         21   -1    0    0  501  503 -0.00000000000E+00 -0.00000000000E+00 -0.58674599605E+02  0.58674599605E+02  0.00000000000E+00 0. -1.
          6    2    1    2  501    0  0.47360508051E+02 -0.22559946305E+00  0.22537176055E+03  0.28801172803E+03  0.17296027410E+03 0.  0.
         24    2    3    3    0    0  0.89628207291E+01 -0.26477056166E+02  0.36541885891E+02  0.93480668988E+02  0.81375422527E+02 0.  0.
         -6    2    1    2    0  502 -0.47360508051E+02  0.22559946305E+00  0.26372147949E+03  0.31843071121E+03  0.17206403018E+03 0.  0.
        -24    2    5    5    0    0  0.39855839497E+02  0.14144297845E+02  0.13560582492E+03  0.16275112877E+03  0.79438284595E+02 0.  0.
          5    1    3    3  501    0  0.38397687322E+02  0.26251456703E+02  0.18882987466E+03  0.19453105905E+03  0.47000000000E+01 0. -1.
        -13    1    4    4    0    0  0.25003556973E+02  0.10418966868E+02  0.44854262378E+02  0.52398831908E+02  0.00000000000E+00 0.  1.
         14    1    4    4    0    0 -0.16040736244E+02 -0.36896023034E+02 -0.83123764870E+01  0.41081837080E+02  0.00000000000E+00 0. -1.
         -5    1    5    5    0  502 -0.87216347548E+02 -0.13918698382E+02  0.12811565456E+03  0.15567958244E+03  0.47000000000E+01 0.  1.
         13    1    6    6    0    0  0.39456749348E+02  0.38001598024E+02  0.51004098736E+02  0.74849012080E+02  0.00000000000E+00 0. -1.
        -14    1    6    6    0    0  0.39909014891E+00 -0.23857300179E+02  0.84601726189E+02  0.87902116692E+02  0.00000000000E+00 0.  1.
</event>
<event>
12    1  0.8500177E-002  0.3346922E+03  0.7818608E-02  0.1069090E+00
         21   -1    0    0  501  502  0.00000000000E+00  0.00000000000E+00  0.16039486861E+03  0.16039486861E+03  0.00000000000E+00 0. -1.
         21   -1    0    0  502  503 -0.00000000000E+00 -0.00000000000E+00 -0.79444504234E+03  0.79444504234E+03  0.00000000000E+00 0. -1.
         -6    2    1    2    0  503  0.26338816245E+03  0.11315424908E+03 -0.48324433767E+03  0.58782986498E+03  0.17274736487E+03 0.  0.
        -24    2    3    3    0    0  0.74903121222E+02  0.85520037559E+01 -0.22925782575E+03  0.25466402230E+03  0.81308051548E+02 0.  0.
          6    2    1    2  501    0 -0.26338816245E+03 -0.11315424908E+03 -0.15080583606E+03  0.36701004598E+03  0.17255945484E+03 0.  0.
         24    2    5    5    0    0 -0.24553607690E+03 -0.10961392392E+03 -0.76553976298E+02  0.29041592389E+03  0.78598474423E+02 0.  0.
          5    1    5    5  501    0 -0.17852085549E+02 -0.35403251620E+01 -0.74251859765E+02  0.76594122093E+02  0.47000000000E+01 0. -1.
        -13    1    6    6    0    0 -0.12089334319E+03 -0.39369274338E+02  0.20758677392E+01  0.12715914995E+03  0.00000000000E+00 0.  1.
         14    1    6    6    0    0 -0.12464273372E+03 -0.70244649585E+02 -0.78629844037E+02  0.16325677394E+03  0.00000000000E+00 0. -1.
         -5    1    3    3    0  503  0.18848504123E+03  0.10460224533E+03 -0.25398651191E+03  0.33316584268E+03  0.47000000000E+01 0.  1.
         11    1    4    4    0    0  0.60534117168E+02 -0.29068310194E+02 -0.11093916432E+03  0.12967977552E+03  0.00000000000E+00 0. -1.
        -12    1    4    4    0    0  0.14369004054E+02  0.37620313950E+02 -0.11831866144E+03  0.12498424678E+03  0.00000000000E+00 0.  1.
</event>
<event>
12    1  0.8500177E-002  0.1922899E+03  0.7818608E-02  0.1157100E+00
         21   -1    0    0  501  502  0.00000000000E+00  0.00000000000E+00  0.98091196463E+03  0.98091196463E+03  0.00000000000E+00 0. -1.
         21   -1    0    0  502  503 -0.00000000000E+00 -0.00000000000E+00 -0.37368450521E+02  0.37368450521E+02  0.00000000000E+00 0. -1.
         -6    2    1    2    0  503  0.73294382742E+02  0.29814297833E+02  0.51905522578E+03  0.55352842795E+03  0.17525534010E+03 0.  0.
        -24    2    3    3    0    0  0.24075007747E+02 -0.20909623240E+02  0.43808702845E+03  0.44594868067E+03  0.77027027441E+02 0.  0.
          6    2    1    2  501    0 -0.73294382742E+02 -0.29814297833E+02  0.42448828833E+03  0.46475198721E+03  0.17188119091E+03 0.  0.
         24    2    5    5    0    0 -0.22056658520E+01  0.37947356965E+02  0.20641449417E+03  0.22553761216E+03  0.82555461564E+02 0.  0.
          5    1    5    5  501    0 -0.71088716890E+02 -0.67761654798E+02  0.21807379416E+03  0.23921437504E+03  0.47000000000E+01 0. -1.
        -11    1    6    6    0    0 -0.19435920504E+02  0.52970670115E+02  0.85220961338E+02  0.10220694277E+03  0.00000000000E+00 0.  1.
         12    1    6    6    0    0  0.17230254652E+02 -0.15023313150E+02  0.12119353283E+03  0.12333066940E+03  0.00000000000E+00 0. -1.
         -5    1    3    3    0  503  0.49219374995E+02  0.50723921073E+02  0.80968197336E+02  0.10757974728E+03  0.47000000000E+01 0.  1.
         13    1    4    4    0    0 -0.15655274455E+02  0.18265312542E+02  0.19839814299E+03  0.19985127571E+03  0.00000000000E+00 0. -1.
        -14    1    4    4    0    0  0.39730282202E+02 -0.39174935782E+02  0.23968888546E+03  0.24609740496E+03  0.00000000000E+00 0.  1.
</event>
<event>
12    1  0.8500177E-002  0.2717186E+03  0.7818608E-02  0.1100310E+00
         21   -1    0    0  503  502  0.00000000000E+00  0.00000000000E+00  0.82771135115E+03  0.82771135115E+03  0.00000000000E+00 0.  1.
         21   -1    0    0  501  503 -0.00000000000E+00 -0.00000000000E+00 -0.26803819816E+03  0.26803819816E+03  0.00000000000E+00 0. -1.
          6    2    1    2  501    0 -0.21735630427E+02  0.20874565419E+03 -0.16770228191E+03  0.31930399244E+03  0.17257983213E+03 0.  0.
         24    2    3    3    0    0 -0.27572307375E+02  0.23081713582E+03 -0.13940721257E+03  0.28264450461E+03  0.80104698691E+02 0.  0.
         -6    2    1    2    0  502  0.21735630427E+02 -0.20874565419E+03  0.72737543490E+03  0.77644555687E+03  0.17246881953E+03 0.  0.
        -24    2    5    5    0    0 -0.42901456777E+02 -0.11420537057E+03  0.29719342503E+03  0.33125518199E+03  0.80762999276E+02 0.  0.
          5    1    3    3  501    0  0.58366769479E+01 -0.22071481624E+02 -0.28295069342E+02  0.36659487830E+02  0.47000000000E+01 0. -1.
        -11    1    4    4    0    0 -0.27828709707E+02  0.14795414764E+03 -0.45216146729E+02  0.15719213343E+03  0.00000000000E+00 0.  1.
         12    1    4    4    0    0  0.25640233181E+00  0.82862988179E+02 -0.94191065839E+02  0.12545237118E+03  0.00000000000E+00 0. -1.
         -5    1    5    5    0  502  0.64637087204E+02 -0.94540283618E+02  0.43018200987E+03  0.44519037488E+03  0.47000000000E+01 0.  1.
         11    1    6    6    0    0  0.17191983474E+02 -0.52809729708E+02  0.77361966451E+02  0.95232902406E+02  0.00000000000E+00 0. -1.
        -12    1    6    6    0    0 -0.60093440251E+02 -0.61395640867E+02  0.21983145858E+03  0.23602227959E+03  0.00000000000E+00 0.  1.
</event>
<event>
12    1  0.8500177E-002  0.1832928E+03  0.7818608E-02  0.1164698E+00
         21   -1    0    0  503  502  0.00000000000E+00  0.00000000000E+00  0.23203963755E+03  0.23203963755E+03  0.00000000000E+00 0. -1.
         21   -1    0    0  501  503 -0.00000000000E+00 -0.00000000000E+00 -0.14567871596E+03  0.14567871596E+03  0.00000000000E+00 0. -1.
          6    2    1    2  501    0 -0.53490811402E+02  0.32934844129E+02  0.59162555647E+02  0.19260441587E+03  0.17219257289E+03 0.  0.
         24    2    3    3    0    0 -0.42589546033E+02 -0.12148562559E+01  0.10166213313E+03  0.13680707086E+03  0.81028637025E+02 0.  0.
         -6    2    1    2    0  502  0.53490811402E+02 -0.32934844129E+02  0.27198365936E+02  0.18511393764E+03  0.17199258105E+03 0.  0.
        -24    2    5    5    0    0  0.55260369986E+02  0.18711426545E+02  0.67860695002E+02  0.11918986300E+03  0.78723081375E+02 0.  0.
          5    1    3    3  501    0 -0.10901265369E+02  0.34149700385E+02 -0.42499577486E+02  0.55797345004E+02  0.47000000000E+01 0. -1.
        -11    1    4    4    0    0  0.14249642080E+02  0.10443238313E+02  0.66844475385E+02  0.69139694933E+02  0.00000000000E+00 0.  1.
         12    1    4    4    0    0 -0.56839188113E+02 -0.11658094569E+02  0.34817657748E+02  0.67667375931E+02  0.00000000000E+00 0. -1.
         -5    1    5    5    0  502 -0.17695585836E+01 -0.51646270674E+02 -0.40662329067E+02  0.65924074641E+02  0.47000000000E+01 0.  1.
         13    1    6    6    0    0  0.92902791383E+01 -0.29645966242E+02  0.25126815688E+02  0.39956845065E+02  0.00000000000E+00 0. -1.
        -14    1    6    6    0    0  0.45970090847E+02  0.48357392787E+02  0.42733879314E+02  0.79233017934E+02  0.00000000000E+00 0.  1.
</event>
<event>
12    1  0.8500177E-002  0.1910951E+03  0.7818608E-02  0.1157678E+00
         21   -1    0    0  501  502  0.00000000000E+00  0.00000000000E+00  0.32422721232E+03  0.32422721232E+03  0.00000000000E+00 0. -1.
         21   -1    0    0  502  503 -0.00000000000E+00 -0.00000000000E+00 -0.24209492864E+03  0.24209492864E+03  0.00000000000E+00 0. -1.
         -6    2    1    2    0  503 -0.32067086330E+02  0.76639563352E+02 -0.16638030525E+03  0.25337665951E+03  0.17209126913E+03 0.  0.
        -24    2    3    3    0    0 -0.10354834397E+02 -0.25230318262E+02 -0.54491656512E+02  0.10043858583E+03  0.79842202741E+02 0.  0.
          6    2    1    2  501    0  0.32067086330E+02 -0.76639563352E+02  0.24851258894E+03  0.31294548145E+03  0.17109776973E+03 0.  0.
         24    2    5    5    0    0  0.48679825610E+02 -0.69161635091E+02  0.26424261993E+03  0.28842148519E+03  0.78801863839E+02 0.  0.
          5    1    5    5  501    0 -0.16612739280E+02 -0.74779282613E+01 -0.15730030993E+02  0.24523996259E+02  0.47000000000E+01 0. -1.
        -13    1    6    6    0    0  0.39514631645E+02 -0.24935924465E+01  0.49530377483E+02  0.63410428251E+02  0.00000000000E+00 0.  1.
         14    1    6    6    0    0  0.91651939652E+01 -0.66668042645E+02  0.21471224244E+03  0.22501105694E+03  0.00000000000E+00 0. -1.
         -5    1    3    3    0  503 -0.21712251933E+02  0.10186988161E+03 -0.11188864874E+03  0.15293807368E+03  0.47000000000E+01 0.  1.
         11    1    4    4    0    0  0.71975350062E+00  0.28994425571E+02 -0.17600606385E+02  0.33926038738E+02  0.00000000000E+00 0. -1.
        -12    1    4    4    0    0 -0.11074587897E+02 -0.54224743833E+02 -0.36891050126E+02  0.66512547089E+02  0.00000000000E+00 0.  1.
</event>
<event>
12    1  0.8500177E-002  0.2534519E+03  0.7818608E-02  0.1111475E+00
         21   -1    0    0  501  502  0.00000000000E+00  0.00000000000E+00  0.12186003743E+04  0.12186003743E+04  0.00000000000E+00 0.  1.
         21   -1    0    0  502  503 -0.00000000000E+00 -0.00000000000E+00 -0.21706691370E+03  0.21706691370E+03  0.00000000000E+00 0. -1.
         -6    2    1    2    0  503 -0.18212113409E+03 -0.12679600826E+02 -0.12418158465E+03  0.28223911898E+03  0.17580948370E+03 0.  0.
        -24    2    3    3    0    0 -0.19145197485E+03 -0.51171374353E+02 -0.10980850094E+03  0.23984387451E+03  0.78707109169E+02 0.  0.
          6    2    1    2  501    0  0.18212113409E+03  0.12679600826E+02  0.11257150452E+04  0.11534281690E+04  0.17272318384E+03 0.  0.
         24    2    5    5    0    0  0.12829375766E+03 -0.27175723916E+02  0.99224150142E+03  0.10040189649E+04  0.79454871330E+02 0.  0.
          5    1    5    5  501    0  0.53827376430E+02  0.39855324742E+02  0.13347354379E+03  0.14940920405E+03  0.47000000000E+01 0. -1.
        -11    1    6    6    0    0  0.36102219868E+02  0.96630839329E+01  0.52592628644E+03  0.52725250520E+03  0.00000000000E+00 0.  1.
         12    1    6    6    0    0  0.92191537790E+02 -0.36838807849E+02  0.46631521497E+03  0.47676645973E+03  0.00000000000E+00 0. -1.
         -5    1    3    3    0  503  0.93308407624E+01  0.38491773527E+02 -0.14373083707E+02  0.42395244472E+02  0.47000000000E+01 0.  1.
         11    1    4    4    0    0 -0.15767510226E+03 -0.26689271650E+02 -0.11615095835E+03  0.19764817283E+03  0.00000000000E+00 0. -1.
        -12    1    4    4    0    0 -0.33776872584E+02 -0.24482102703E+02  0.63424574138E+01  0.42195701681E+02  0.00000000000E+00 0.  1.
</event>
<event>
12    1  0.8500177E-002  0.2108239E+03  0.7818608E-02  0.1141065E+00
         21   -1    0    0  503  502  0.00000000000E+00  0.00000000000E+00  0.55595112876E+02  0.55595112876E+02  0.00000000000E+00 0. -1.
         21   -1    0    0  501  503 -0.00000000000E+00 -0.00000000000E+00 -0.11258643390E+04  0.11258643390E+04  0.00000000000E+00 0. -1.
          6    2    1    2  501    0  0.67129388899E+02  0.10604211318E+03 -0.21635429538E+03  0.30208590660E+03  0.16939725267E+03 0.  0.
         24    2    3    3    0    0  0.72710864507E+01  0.11385518209E+03 -0.10237742334E+03  0.17302437949E+03  0.80252276625E+02 0.  0.
         -6    2    1    2    0  502 -0.67129388899E+02 -0.10604211318E+03 -0.85391493079E+03  0.87937354532E+03  0.16845129437E+03 0.  0.
        -24    2    5    5    0    0 -0.10911823756E+03 -0.79860146485E+02 -0.70156817611E+03  0.71912317105E+03  0.81583066004E+02 0.  0.
          5    1    3    3  501    0  0.59858302448E+02 -0.78130689095E+01 -0.11397687204E+03  0.12906152710E+03  0.47000000000E+01 0. -1.
        -11    1    4    4    0    0 -0.29579848320E+02  0.20541513308E+02 -0.11905797518E+02  0.37929793173E+02  0.00000000000E+00 0.  1.
         12    1    4    4    0    0  0.36850934771E+02  0.93313668777E+02 -0.90471625822E+02  0.13509458632E+03  0.00000000000E+00 0. -1.
         -5    1    5    5    0  502  0.41988848661E+02 -0.26181966691E+02 -0.15234675468E+03  0.16025037427E+03  0.47000000000E+01 0.  1.
         13    1    6    6    0    0 -0.53625038910E+02 -0.45539986350E+02 -0.17631549220E+03  0.18983331622E+03  0.00000000000E+00 0. -1.
        -14    1    6    6    0    0 -0.55493198650E+02 -0.34320160136E+02 -0.52525268390E+03  0.52928985484E+03  0.00000000000E+00 0.  1.
</event>
<event>
12    1  0.8500177E-002  0.2140817E+03  0.7818608E-02  0.1138482E+00
         21   -1    0    0  501  502  0.00000000000E+00  0.00000000000E+00  0.40816835897E+03  0.40816835897E+03  0.00000000000E+00 0.  1.
         21   -1    0    0  502  503 -0.00000000000E+00 -0.00000000000E+00 -0.49378732134E+03  0.49378732134E+03  0.00000000000E+00 0.  1.
         -6    2    1    2    0  503 -0.12528605840E+03 -0.32258982243E+01 -0.43934902343E+03  0.48848748744E+03  0.17287411067E+03 0.  0.
        -24    2    3    3    0    0 -0.70417289993E+02 -0.37154514311E+01 -0.41494883190E+03  0.42825227550E+03  0.79025812710E+02 0.  0.
          6    2    1    2  501    0  0.12528605840E+03  0.32258982243E+01  0.35373006107E+03  0.41346819287E+03  0.17356263298E+03 0.  0.
         24    2    5    5    0    0  0.10132705492E+03  0.41068318751E+02  0.13746628254E+03  0.19256505903E+03  0.78933796691E+02 0.  0.
          5    1    5    5  501    0  0.23959003485E+02 -0.37842420526E+02  0.21626377853E+03  0.22090313385E+03  0.47000000000E+01 0. -1.
        -11    1    6    6    0    0  0.10199583348E+03  0.16259974496E+02  0.13118676122E+03  0.16696557471E+03  0.00000000000E+00 0.  1.
         12    1    6    6    0    0 -0.66877856011E+00  0.24808344255E+02  0.62795213138E+01  0.25599484318E+02  0.00000000000E+00 0. -1.
         -5    1    3    3    0  503 -0.54868768411E+02  0.48955320678E+00 -0.24400191539E+02  0.60235211932E+02  0.47000000000E+01 0.  1.
         11    1    4    4    0    0  0.16365928510E+02  0.76682337163E+01 -0.84233781744E+02  0.86150887466E+02  0.00000000000E+00 0. -1.
        -12    1    4    4    0    0 -0.86783218503E+02 -0.11383685147E+02 -0.33071505015E+03  0.34210138804E+03  0.00000000000E+00 0.  1.
</event>
<event>
12    1  0.8500177E-002  0.2114480E+03  0.7818608E-02  0.1141814E+00
         21   -1    0    0  501  502  0.00000000000E+00  0.00000000000E+00  0.43254627398E+03  0.43254627398E+03  0.00000000000E+00 0.  1.
         21   -1    0    0  502  503 -0.00000000000E+00 -0.00000000000E+00 -0.15290534237E+03  0.15290534237E+03  0.00000000000E+00 0. -1.
         -6    2    1    2    0  503 -0.10075900474E+03  0.68461292686E+02 -0.33891643612E+02  0.20728108858E+03  0.16424822843E+03 0.  0.
        -24    2    3    3    0    0 -0.20966488553E+02  0.55901554135E+02 -0.66020350483E+02  0.12022400112E+03  0.80811795986E+02 0.  0.
          6    2    1    2  501    0  0.10075900474E+03 -0.68461292686E+02  0.31353257522E+03  0.37817052777E+03  0.17283213451E+03 0.  0.
         24    2    5    5    0    0  0.81898312365E+02 -0.10739832312E+03  0.28762087922E+03  0.32752149970E+03  0.79390359756E+02 0.  0.
          5    1    5    5  501    0  0.18860692373E+02  0.38937030430E+02  0.25911695998E+02  0.50649028076E+02  0.47000000000E+01 0. -1.
        -11    1    6    6    0    0  0.52913121715E+02 -0.10201819103E+03  0.16286750633E+03  0.19933222110E+03  0.00000000000E+00 0.  1.
         12    1    6    6    0    0  0.28985190650E+02 -0.53801320826E+01  0.12475337290E+03  0.12818927860E+03  0.00000000000E+00 0. -1.
         -5    1    3    3    0  503 -0.79792516185E+02  0.12559738551E+02  0.32128706871E+02  0.87057087459E+02  0.47000000000E+01 0.  1.
         11    1    4    4    0    0 -0.43223552446E+02  0.63475753173E+02 -0.47531232380E+02  0.90314255677E+02  0.00000000000E+00 0. -1.
        -12    1    4    4    0    0  0.22257063893E+02 -0.75741990387E+01 -0.18489118103E+02  0.29909745442E+02  0.00000000000E+00 0.  1.
</event>
<event>
12    1  0.8500177E-002  0.2045850E+03  0.7818608E-02  0.1146162E+00
         21   -1    0    0  501  502  0.00000000000E+00  0.00000000000E+00  0.72275560910E+03  0.72275560910E+03  0.00000000000E+00 0. -1.
         21   -1    0    0  502  503 -0.00000000000E+00 -0.00000000000E+00 -0.74333661943E+02  0.74333661943E+02  0.00000000000E+00 0. -1.
         -6    2    1    2    0  503 -0.10879684779E+03  0.13507640176E+02  0.13574971979E+03  0.24552594363E+03  0.17273040305E+03 0.  0.
        -24    2    3    3    0    0 -0.39601536263E+02  0.73787922536E+02  0.84515661133E+02  0.14031794799E+03  0.74386089869E+02 0.  0.
          6    2    1    2  501    0  0.10879684779E+03 -0.13507640176E+02  0.51267222737E+03  0.55156332741E+03  0.17137701422E+03 0.  0.
         24    2    5    5    0    0  0.13360680166E+03  0.17160195480E+01  0.49060161866E+03  0.51473269620E+03  0.80037979366E+02 0.  0.
          5    1    5    5  501    0 -0.24809953869E+02 -0.15223659724E+02  0.22070608711E+02  0.36830631209E+02  0.47000000000E+01 0. -1.
        -11    1    6    6    0    0  0.60000770493E+02  0.10515747636E+02  0.99486000165E+02  0.11665392251E+03  0.00000000000E+00 0.  1.
         12    1    6    6    0    0  0.73606031167E+02 -0.87997280877E+01  0.39111561849E+03  0.39807877369E+03  0.00000000000E+00 0. -1.
         -5    1    3    3    0  503 -0.69195311528E+02 -0.60280282360E+02  0.51234058656E+02  0.10520799563E+03  0.47000000000E+01 0.  1.
         13    1    4    4    0    0 -0.24356320530E+02  0.24200361559E+02  0.81401473936E+02  0.88346408011E+02  0.00000000000E+00 0. -1.
        -14    1    4    4    0    0 -0.15245215732E+02  0.49587560977E+02  0.31141871962E+01  0.51971539983E+02  0.00000000000E+00 0.  1.
</event>
<event>
12    1  0.8500177E-002  0.1801842E+03  0.7818608E-02  0.1169381E+00
         21   -1    0    0  503  502  0.00000000000E+00  0.00000000000E+00  0.12167951626E+04  0.12167951626E+04  0.00000000000E+00 0. -1.
         21   -1    0    0  501  503 -0.00000000000E+00 -0.00000000000E+00 -0.26523353114E+02  0.26523353114E+02  0.00000000000E+00 0. -1.
          6    2    1    2  501    0 -0.14867637092E+02 -0.27306714184E+02  0.72019466314E+03  0.74239255137E+03  0.17748139127E+03 0.  0.
         24    2    3    3    0    0  0.42018811464E+02  0.31599819323E+02  0.46504256199E+03  0.47437999114E+03  0.77509111963E+02 0.  0.
         -6    2    1    2    0  502  0.14867637092E+02  0.27306714184E+02  0.47007714639E+03  0.50092596439E+03  0.17025743733E+03 0.  0.
        -24    2    5    5    0    0  0.22033338207E+02  0.46757346557E+02  0.47000523259E+03  0.47967109333E+03  0.80670451005E+02 0.  0.
          5    1    3    3  501    0 -0.56886448556E+02 -0.58906533507E+02  0.25515210115E+03  0.26801256023E+03  0.47000000000E+01 0. -1.
        -13    1    4    4    0    0  0.64876104854E+02  0.27357343234E+02  0.35088578653E+03  0.35788010339E+03  0.00000000000E+00 0.  1.
         14    1    4    4    0    0 -0.22857293390E+02  0.42424760889E+01  0.11415677546E+03  0.11649988776E+03  0.00000000000E+00 0. -1.
         -5    1    5    5    0  502 -0.71657011152E+01 -0.19450632372E+02  0.71913804057E-01  0.21254871059E+02  0.47000000000E+01 0.  1.
         13    1    6    6    0    0  0.42558909679E+02  0.46806964465E+02  0.22257525661E+03  0.23139122190E+03  0.00000000000E+00 0. -1.
        -14    1    6    6    0    0 -0.20525571472E+02 -0.49617907790E-01  0.24742997598E+03  0.24827987143E+03  0.00000000000E+00 0.  1.
</event>
<event>
12    1  0.8500177E-002  0.1985197E+03  0.7818608E-02  0.1151212E+00
         21   -1    0    0  503  502  0.00000000000E+00  0.00000000000E+00  0.30552942814E+03  0.30552942814E+03  0.00000000000E+00 0.  1.
         21   -1    0    0  501  503 -0.00000000000E+00 -0.00000000000E+00 -0.26358474929E+03  0.26358474929E+03  0.00000000000E+00 0.  1.
          6    2    1    2  501    0 -0.55715879961E+02  0.81255024151E+02 -0.18289294162E+03  0.26917746001E+03  0.17117254060E+03 0.  0.
         24    2    3    3    0    0 -0.57578331631E+02 -0.18227137183E+01 -0.43663393029E+02  0.10696668215E+03  0.78846640002E+02 0.  0.
         -6    2    1    2    0  502  0.55715879961E+02 -0.81255024151E+02  0.22483762046E+03  0.29993671742E+03  0.17234686145E+03 0.  0.
        -24    2    5    5    0    0  0.39910643789E+01 -0.10624048686E+03  0.11518493349E+03  0.17605963457E+03  0.80165181838E+02 0.  0.
          5    1    3    3  501    0  0.18624516707E+01  0.83077737870E+02 -0.13922954859E+03  0.16221077787E+03  0.47000000000E+01 0. -1.
        -13    1    4    4    0    0 -0.40761369869E+02  0.12431014581E+02 -0.64055866872E+02  0.76936164954E+02  0.00000000000E+00 0.  1.
         14    1    4    4    0    0 -0.16816961762E+02 -0.14253728299E+02  0.20392473843E+02  0.30030517191E+02  0.00000000000E+00 0. -1.
         -5    1    5    5    0  502  0.51724815582E+02  0.24985462713E+02  0.10965268697E+03  0.12387708284E+03  0.47000000000E+01 0.  1.
         13    1    6    6    0    0  0.14078941516E+02  0.54145010796E+01 -0.32841879488E+00  0.15087785625E+02  0.00000000000E+00 0. -1.
        -14    1    6    6    0    0 -0.10087877137E+02 -0.11165498794E+03  0.11551335229E+03  0.16097184895E+03  0.00000000000E+00 0.  1.
</event>
<event>
12    1  0.8500177E-002  0.2003561E+03  0.7818608E-02  0.1149511E+00
         21   -1    0    0  503  502  0.00000000000E+00  0.00000000000E+00  0.20408746754E+03  0.20408746754E+03  0.00000000000E+00 0.  1.
         21   -1    0    0  501  503 -0.00000000000E+00 -0.00000000000E+00 -0.19642412445E+03  0.19642412445E+03  0.00000000000E+00 0. -1.
          6    2    1    2  501    0 -0.45363544801E+02  0.95340337340E+02  0.17771592420E+00  0.20001570689E+03  0.16987825140E+03 0.  0.
         24    2    3    3    0    0  0.49777588426E+01  0.39481726732E+02 -0.56864398118E+02  0.10551531533E+03  0.79475387175E+02 0.  0.
         -6    2    1    2    0  502  0.45363544801E+02 -0.95340337340E+02  0.74856271661E+01  0.20049588510E+03  0.17027898933E+03 0.  0.
        -24    2    5    5    0    0 -0.37988267239E+02 -0.68947920498E+02  0.92957732870E+01  0.11292048407E+03  0.80422012737E+02 0.  0.
          5    1    3    3  501    0 -0.50341303643E+02  0.55858610608E+02  0.57042114042E+02  0.94500391565E+02  0.47000000000E+01 0. -1.
        -11    1    4    4    0    0  0.18363788207E+02  0.23163420369E+02  0.13176475201E+02  0.32363440164E+02  0.00000000000E+00 0.  1.
         12    1    4    4    0    0 -0.13386029365E+02  0.16318306362E+02 -0.70040873319E+02  0.73151875164E+02  0.00000000000E+00 0. -1.
         -5    1    5    5    0  502  0.83351812040E+02 -0.26392416841E+02 -0.18101461209E+01  0.87575401033E+02  0.47000000000E+01 0.  1.
         13    1    6    6    0    0  0.23699220711E+02 -0.65193142377E+01  0.47761470241E+01  0.25039291140E+02  0.00000000000E+00 0. -1.
        -14    1    6    6    0    0 -0.61687487950E+02 -0.62428606261E+02  0.45196262629E+01  0.87881192930E+02  0.00000000000E+00 0.  1.
</event>
<event>
12    1  0.8500177E-002  0.2203284E+03  0.7818608E-02  0.1134229E+00
         21   -1    0    0  503  502  0.00000000000E+00  0.00000000000E+00  0.46249859627E+03  0.46249859627E+03  0.00000000000E+00 0. -1.
         21   -1    0    0  501  503 -0.00000000000E+00 -0.00000000000E+00 -0.17488784415E+03  0.17488784415E+03  0.00000000000E+00 0. -1.
          6    2    1    2  501    0  0.82317561371E+02  0.98412463351E+02 -0.59239419363E+02  0.22815328652E+03  0.17911845101E+03 0.  0.
         24    2    3    3    0    0  0.65652442589E+02  0.13843393870E+03 -0.63268568887E+02  0.18436095022E+03  0.80696031833E+02 0.  0.
         -6    2    1    2    0  502 -0.82317561371E+02 -0.98412463351E+02  0.34685017148E+03  0.40923315389E+03  0.17522996016E+03 0.  0.
        -24    2    5    5    0    0 -0.11254843420E+03 -0.96672888439E+02  0.33745516082E+03  0.37718181979E+03  0.79858263304E+02 0.  0.
          5    1    3    3  501    0  0.16665118782E+02 -0.40021475351E+02  0.40291495245E+01  0.43792336307E+02  0.47000000000E+01 0. -1.
        -11    1    4    4    0    0  0.66902886305E+01  0.44670996654E+02  0.16258635610E+02  0.48006261424E+02  0.00000000000E+00 0.  1.
         12    1    4    4    0    0  0.58962153959E+02  0.93762942048E+02 -0.79527204497E+02  0.13635468879E+03  0.00000000000E+00 0. -1.
         -5    1    5    5    0  502  0.30230872824E+02 -0.17395749118E+01  0.93950106650E+01  0.32051334106E+02  0.47000000000E+01 0.  1.
         11    1    6    6    0    0 -0.49090495849E+02 -0.18641300974E+02  0.49487724879E+02  0.72155455777E+02  0.00000000000E+00 0. -1.
        -12    1    6    6    0    0 -0.63457938347E+02 -0.78031587465E+02  0.28796743594E+03  0.30502636401E+03  0.00000000000E+00 0.  1.
</event>
<event>
12    1  0.8500177E-002  0.2958496E+03  0.7818608E-02  0.1087338E+00
         21   -1    0    0  501  502  0.00000000000E+00  0.00000000000E+00  0.14235975579E+04  0.14235975579E+04  0.00000000000E+00 0.  1.
         21   -1    0    0  502  503 -0.00000000000E+00 -0.00000000000E+00 -0.17549714338E+03  0.17549714338E+03  0.00000000000E+00 0. -1.
         -6    2    1    2    0  503  0.76759229517E+02 -0.22801220189E+03 -0.20405897673E+02  0.29655245864E+03  0.17217844388E+03 0.  0.
        -24    2    3    3    0    0  0.26416390786E+02 -0.35246341877E+02  0.19890511337E+02  0.93232590505E+02  0.79727994916E+02 0.  0.
          6    2    1    2  501    0 -0.76759229517E+02  0.22801220189E+03  0.12685063122E+04  0.13025422427E+04  0.17212346219E+03 0.  0.
         24    2    5    5    0    0 -0.25282164386E+02  0.28855732686E+02  0.32242765939E+03  0.33434799830E+03  0.79731720690E+02 0.  0.
          5    1    5    5  501    0 -0.51477065131E+02  0.19915646921E+03  0.94607865282E+03  0.96819424435E+03  0.47000000000E+01 0. -1.
        -11    1    6    6    0    0 -0.53358932944E+02  0.17290966232E+02  0.17298173168E+03  0.18184837841E+03  0.00000000000E+00 0.  1.
         12    1    6    6    0    0  0.28076768558E+02  0.11564766454E+02  0.14944592771E+03  0.15249961989E+03  0.00000000000E+00 0. -1.
         -5    1    3    3    0  503  0.50342838730E+02 -0.19276586002E+03 -0.40296409009E+02  0.20331986814E+03  0.47000000000E+01 0.  1.
         11    1    4    4    0    0  0.18087381736E+01 -0.13467966350E+02 -0.30319399510E+02  0.33225346319E+02  0.00000000000E+00 0. -1.
        -12    1    4    4    0    0  0.24607652612E+02 -0.21778375526E+02  0.50209910846E+02  0.60007244186E+02  0.00000000000E+00 0.  1.
</event>
<event>
12    1  0.8500177E-002  0.2063080E+03  0.7818608E-02  0.1144541E+00
         21   -1    0    0  501  502  0.00000000000E+00  0.00000000000E+00  0.10027396900E+03  0.10027396900E+03  0.00000000000E+00 0.  1.
         21   -1    0    0  502  503 -0.00000000000E+00 -0.00000000000E+00 -0.66406503521E+03  0.66406503521E+03  0.00000000000E+00 0.  1.
         -6    2    1    2    0  503 -0.95069102109E+02 -0.61440898460E+02 -0.51150113791E+03  0.55150757512E+03  0.17237770493E+03 0.  0.
        -24    2    3    3    0    0 -0.45281898182E+02 -0.26724008802E+02 -0.46480553235E+03  0.47478340891E+03  0.81304855475E+02 0.  0.
          6    2    1    2  501    0  0.95069102109E+02  0.61440898460E+02 -0.52289928298E+02  0.21283142908E+03  0.17248148430E+03 0.  0.
         24    2    5    5    0    0  0.12226130686E+03  0.57628474466E+02 -0.65056130899E+00  0.15415720307E+03  0.74129291130E+02 0.  0.
          5    1    5    5  501    0 -0.27192204747E+02  0.38124239938E+01 -0.51639366989E+02  0.58674226018E+02  0.47000000000E+01 0. -1.
        -13    1    6    6    0    0  0.91082390645E+02  0.39701995282E+01  0.79057339078E+01  0.91511010258E+02  0.00000000000E+00 0.  1.
         14    1    6    6    0    0  0.31178916212E+02  0.53658274938E+02 -0.85562952168E+01  0.62646192808E+02  0.00000000000E+00 0. -1.
         -5    1    3    3    0  503 -0.49787203927E+02 -0.34716889658E+02 -0.46695605558E+02  0.76724166211E+02  0.47000000000E+01 0.  1.
         13    1    4    4    0    0  0.12752285441E+01 -0.45589942646E+02 -0.25511301177E+03  0.25915770846E+03  0.00000000000E+00 0. -1.
        -14    1    4    4    0    0 -0.46557126726E+02  0.18865933843E+02 -0.20969252058E+03  0.21562570045E+03  0.00000000000E+00 0.  1.
</event>
<event>
12    1  0.8500177E-002  0.1989661E+03  0.7818608E-02  0.1150769E+00
         21   -1    0    0  501  502  0.00000000000E+00  0.00000000000E+00  0.13573431721E+03  0.13573431721E+03  0.00000000000E+00 0.  1.
         21   -1    0    0  502  503 -0.00000000000E+00 -0.00000000000E+00 -0.29786714542E+03  0.29786714542E+03  0.00000000000E+00 0.  1.
         -6    2    1    2    0  503 -0.19879537237E+02 -0.96888859373E+02 -0.11481591905E+03  0.22908645667E+03  0.17180006488E+03 0.  0.
        -24    2    3    3    0    0  0.42151004933E+02 -0.92594836177E+01 -0.56190981985E+02  0.10667048998E+03  0.79741593422E+02 0.  0.
          6    2    1    2  501    0  0.19879537237E+02  0.96888859373E+02 -0.47316909171E+02  0.20451500595E+03  0.17264081411E+03 0.  0.
         24    2    5    5    0    0 -0.43511497574E+02  0.99769681767E+02 -0.44609141697E+02  0.14082713869E+03  0.77427822181E+02 0.  0.
          5    1    5    5  501    0  0.63391034811E+02 -0.28808223940E+01 -0.27077674739E+01  0.63687867265E+02  0.47000000000E+01 0. -1.
        -11    1    6    6    0    0 -0.10477108018E+02  0.68880078100E+02  0.94877203525E+01  0.70315373774E+02  0.00000000000E+00 0.  1.
         12    1    6    6    0    0 -0.33034389556E+02  0.30889603667E+02 -0.54096862049E+02  0.70511764916E+02  0.00000000000E+00 0. -1.
         -5    1    3    3    0  503 -0.62030542169E+02 -0.87629375755E+02 -0.58624937062E+02  0.12241596670E+03  0.47000000000E+01 0.  1.
         13    1    4    4    0    0  0.39298713492E+02  0.13810225495E+01  0.91779379634E+01  0.40379829750E+02  0.00000000000E+00 0. -1.
        -14    1    4    4    0    0  0.28522914408E+01 -0.10640506167E+02 -0.65368919948E+02  0.66290660225E+02  0.00000000000E+00 0.  1.
</event>
<event>
12    1  0.8500177E-002  0.2662102E+03  0.7818608E-02  0.1103874E+00
         21   -1    0    0  503  502  0.00000000000E+00  0.00000000000E+00  0.21022974540E+03  0.21022974540E+03  0.00000000000E+00 0. -1.
         21   -1    0    0  501  503 -0.00000000000E+00 -0.00000000000E+00 -0.71944721816E+03  0.71944721816E+03  0.00000000000E+00 0.  1.
          6    2    1    2  501    0 -0.19883504083E+03  0.41682476336E+02 -0.59440564387E+03  0.65016864718E+03  0.16771522894E+03 0.  0.
         24    2    3    3    0    0 -0.90784025390E+02  0.83123673464E+01 -0.45380363030E+03  0.46967044129E+03  0.79635129365E+02 0.  0.
         -6    2    1    2    0  502  0.19883504083E+03 -0.41682476336E+02  0.85188171113E+02  0.27950831638E+03  0.17203218343E+03 0.  0.
        -24    2    5    5    0    0  0.93006267334E+02 -0.10335098741E+02  0.11164554852E+03  0.16591047221E+03  0.79401361807E+02 0.  0.
          5    1    3    3  501    0 -0.10805101544E+03  0.33370108989E+02 -0.14060201357E+03  0.18049820589E+03  0.47000000000E+01 0. -1.
        -11    1    4    4    0    0 -0.10143944381E+03  0.20321090926E+02 -0.41447136286E+03  0.42718780194E+03  0.00000000000E+00 0.  1.
         12    1    4    4    0    0  0.10655418423E+02 -0.12008723580E+02 -0.39332267443E+02  0.42482639348E+02  0.00000000000E+00 0. -1.
         -5    1    5    5    0  502  0.10582877349E+03 -0.31347377595E+02 -0.26457377405E+02  0.11359784417E+03  0.47000000000E+01 0.  1.
         13    1    6    6    0    0  0.19730995500E+02 -0.19462378055E+02  0.81621466374E+02  0.86198376528E+02  0.00000000000E+00 0. -1.
        -14    1    6    6    0    0  0.73275271834E+02  0.91272793139E+01  0.30024082144E+02  0.79712095685E+02  0.00000000000E+00 0.  1.
</event>
<event>
12    1  0.8500177E-002  0.2301738E+03  0.7818608E-02  0.1127142E+00
         21   -1    0    0  503  502  0.00000000000E+00  0.00000000000E+00  0.78053190873E+03  0.78053190873E+03  0.00000000000E+00 0.  1.
         21   -1    0    0  501  503 -0.00000000000E+00 -0.00000000000E+00 -0.13370585097E+03  0.13370585097E+03  0.00000000000E+00 0.  1.
          6    2    1    2  501    0 -0.12332590679E+03  0.88154844897E+02 -0.10908786209E+01  0.22665043410E+03  0.16848938630E+03 0.  0.
         24    2    3    3    0    0 -0.11282881775E+03  0.59213627933E+01 -0.23884168734E+02  0.14054492596E+03  0.80106292169E+02 0.  0.
         -6    2    1    2    0  502  0.12332590679E+03 -0.88154844897E+02  0.64791693639E+03  0.68758732561E+03  0.17320340041E+03 0.  0.
        -24    2    5    5    0    0  0.10737417969E+02 -0.84897278796E+02  0.31422433217E+03  0.33536633863E+03  0.80067534447E+02 0.  0.
          5    1    3    3  501    0 -0.10497089047E+02  0.82233482104E+02  0.22793290113E+02  0.86105508138E+02  0.47000000000E+01 0. -1.
        -11    1    4    4    0    0 -0.46098717413E+02 -0.35449162003E+02  0.10647520683E+01  0.58162432298E+02  0.00000000000E+00 0.  1.
         12    1    4    4    0    0 -0.66730100332E+02  0.41370524797E+02 -0.24948920803E+02  0.82382493659E+02  0.00000000000E+00 0. -1.
         -5    1    5    5    0  502  0.11258848882E+03 -0.32575661016E+01  0.33369260422E+03  0.35222098697E+03  0.47000000000E+01 0.  1.
         13    1    6    6    0    0 -0.21031551418E+02 -0.29352865665E+02  0.40490499783E+02  0.54253087013E+02  0.00000000000E+00 0. -1.
        -14    1    6    6    0    0  0.31768969387E+02 -0.55544413131E+02  0.27373383238E+03  0.28111325162E+03  0.00000000000E+00 0.  1.
</event>
<event>
12    1  0.8500177E-002  0.2028892E+03  0.7818608E-02  0.1148161E+00
         21   -1    0    0  501  502  0.00000000000E+00  0.00000000000E+00  0.38520752482E+03  0.38520752482E+03  0.00000000000E+00 0. -1.
         21   -1    0    0  502  503 -0.00000000000E+00 -0.00000000000E+00 -0.16602803024E+03  0.16602803024E+03  0.00000000000E+00 0. -1.
         -6    2    1    2    0  503 -0.93336985491E+02 -0.41434293341E+02 -0.58517012079E+02  0.20731787517E+03  0.17066888157E+03 0.  0.
        -24    2    3    3    0    0 -0.44065122497E+02  0.52928241330E+01 -0.93599409885E+02  0.13074108608E+03  0.79766114684E+02 0.  0.
          6    2    1    2  501    0  0.93336985491E+02  0.41434293341E+02  0.27769650666E+03  0.34391767989E+03  0.17531522239E+03 0.  0.
         24    2    5    5    0    0  0.76537444727E+02 -0.96190173277E+01  0.76732232219E+02  0.13583741964E+03  0.81323201944E+02 0.  0.
          5    1    5    5  501    0  0.16799540764E+02  0.51053310668E+02  0.20096427445E+03  0.20808026025E+03  0.47000000000E+01 0. -1.
        -11    1    6    6    0    0  0.44806132673E+01 -0.35158831594E+02  0.28099235708E+02  0.45230370125E+02  0.00000000000E+00 0.  1.
         12    1    6    6    0    0  0.72056831460E+02  0.25539814266E+02  0.48632996511E+02  0.90607049518E+02  0.00000000000E+00 0. -1.
         -5    1    3    3    0  503 -0.49271862994E+02 -0.46727117474E+02  0.35082397806E+02  0.76576789082E+02  0.47000000000E+01 0.  1.
         13    1    4    4    0    0 -0.33578296766E+02 -0.30721485764E+02 -0.77599723467E+02  0.89961262682E+02  0.00000000000E+00 0. -1.
        -14    1    4    4    0    0 -0.10486825731E+02  0.36014309897E+02 -0.15999686418E+02  0.40779823402E+02  0.00000000000E+00 0.  1.
</event>
<event>
12    1  0.8500177E-002  0.1739583E+03  0.7818608E-02  0.1174003E+00
         21   -1    0    0  501  502  0.00000000000E+00  0.00000000000E+00  0.21791794882E+03  0.21791794882E+03  0.00000000000E+00 0.  1.
         21   -1    0    0  502  503 -0.00000000000E+00 -0.00000000000E+00 -0.14002863000E+03  0.14002863000E+03  0.00000000000E+00 0.  1.
         -6    2    1    2    0  503 -0.18577112619E+02  0.13735894988E+02  0.59460798070E+02  0.18301483436E+03  0.17153734044E+03 0.  0.
        -24    2    3    3    0    0 -0.73768302925E+02  0.29281066707E+02  0.54626328553E+02  0.12528111851E+03  0.80076085690E+02 0.  0.
          6    2    1    2  501    0  0.18577112619E+02 -0.13735894988E+02  0.18428520752E+02  0.17493174445E+03  0.17241728717E+03 0.  0.
         24    2    5    5    0    0 -0.11325266126E+02 -0.44082588912E+02 -0.39318217724E+02  0.10301616971E+03  0.83635355430E+02 0.  0.
          5    1    5    5  501    0  0.29902378746E+02  0.30346693925E+02  0.57746738476E+02  0.71915574749E+02  0.47000000000E+01 0. -1.
        -13    1    6    6    0    0 -0.44423374941E+02 -0.65387453675E+01 -0.14761349411E+02  0.47266149289E+02  0.00000000000E+00 0.  1.
         14    1    6    6    0    0  0.33098108815E+02 -0.37543843545E+02 -0.24556868313E+02  0.55750020418E+02  0.00000000000E+00 0. -1.
         -5    1    3    3    0  503  0.55191190305E+02 -0.15545171719E+02  0.48344695175E+01  0.57733715857E+02  0.47000000000E+01 0.  1.
         11    1    4    4    0    0 -0.68412243726E+02  0.54057450479E+02  0.39120176105E+02  0.95565847573E+02  0.00000000000E+00 0. -1.
        -12    1    4    4    0    0 -0.53560591983E+01 -0.24776383772E+02  0.15506152448E+02  0.29715270934E+02  0.00000000000E+00 0.  1.
</event>
<event>
12    1  0.8500177E-002  0.2198014E+03  0.7818608E-02  0.1136432E+00
         21   -1    0    0  501  502  0.00000000000E+00  0.00000000000E+00  0.60284585066E+02  0.60284585066E+02  0.00000000000E+00 0.  1.
         21   -1    0    0  502  503 -0.00000000000E+00 -0.00000000000E+00 -0.10302726004E+04  0.10302726004E+04  0.00000000000E+00 0.  1.
         -6    2    1    2    0  503  0.78076962586E+02 -0.85227626281E+02 -0.75554638717E+03  0.78347761796E+03  0.17212517046E+03 0.  0.
        -24    2    3    3    0    0  0.76894416656E+02 -0.96751603177E+02 -0.37932673894E+03  0.40705031532E+03  0.80793318380E+02 0.  0.
          6    2    1    2  501    0 -0.78076962586E+02  0.85227626281E+02 -0.21444162815E+03  0.30707956750E+03  0.18695691622E+03 0.  0.
         24    2    5    5    0    0 -0.12586551375E+03  0.42815668679E+02 -0.15168459415E+03  0.21739648611E+03  0.81103064294E+02 0.  0.
          5    1    5    5  501    0  0.47788551160E+02  0.42411957602E+02 -0.62757034002E+02  0.89683081383E+02  0.47000000000E+01 0. -1.
        -11    1    6    6    0    0 -0.58927621783E+02  0.53360742043E+02 -0.11651048152E+03  0.14104795534E+03  0.00000000000E+00 0.  1.
         12    1    6    6    0    0 -0.66937891962E+02 -0.10545073364E+02 -0.35174112626E+02  0.76348530776E+02  0.00000000000E+00 0. -1.
         -5    1    3    3    0  503  0.11825459294E+01  0.11523976896E+02 -0.37621964823E+03  0.37642730264E+03  0.47000000000E+01 0.  1.
         11    1    4    4    0    0 -0.11500472478E+02 -0.39563435185E+02 -0.84966285106E+02  0.94428787325E+02  0.00000000000E+00 0. -1.
        -12    1    4    4    0    0  0.88394889134E+02 -0.57188167992E+02 -0.29436045383E+03  0.31262152799E+03  0.00000000000E+00 0.  1.
</event>
<event>
12    1  0.8500177E-002  0.2018892E+03  0.7818608E-02  0.1148250E+00
         21   -1    0    0  503  502  0.00000000000E+00  0.00000000000E+00  0.15977542165E+03  0.15977542165E+03  0.00000000000E+00 0. -1.
         21   -1    0    0  501  503 -0.00000000000E+00 -0.00000000000E+00 -0.49840332619E+03  0.49840332619E+03  0.00000000000E+00 0. -1.
          6    2    1    2  501    0 -0.10602963865E+03  0.11622614684E+01 -0.39941772740E+03  0.44733604206E+03  0.17126406056E+03 0.  0.
         24    2    3    3    0    0 -0.64214480727E+02  0.11129787022E+02 -0.95451489841E+02  0.14030929636E+03  0.79550864475E+02 0.  0.
         -6    2    1    2    0  502  0.10602963865E+03 -0.11622614684E+01  0.60789822853E+02  0.21084270579E+03  0.17180107362E+03 0.  0.
        -24    2    5    5    0    0  0.49232788791E+02  0.62950932285E+02  0.53185338422E+02  0.12472475208E+03  0.79629744384E+02 0.  0.
          5    1    3    3  501    0 -0.41815157924E+02 -0.99675255535E+01 -0.30396623756E+03  0.30702674569E+03  0.47000000000E+01 0. -1.
        -13    1    4    4    0    0 -0.36847707606E+02  0.41523615569E+02 -0.78243861615E+02  0.95937824064E+02  0.00000000000E+00 0.  1.
         14    1    4    4    0    0 -0.27366773121E+02 -0.30393828547E+02 -0.17207628226E+02  0.44371472299E+02  0.00000000000E+00 0. -1.
         -5    1    5    5    0  502  0.56796849860E+02 -0.64113193753E+02  0.76044844317E+01  0.86117953707E+02  0.47000000000E+01 0.  1.
         13    1    6    6    0    0  0.64114371590E+02  0.19714068395E+02  0.32574289594E+02  0.74567965505E+02  0.00000000000E+00 0. -1.
        -14    1    6    6    0    0 -0.14881582799E+02  0.43236863890E+02  0.20611048828E+02  0.50156786574E+02  0.00000000000E+00 0.  1.
</event>
<event>
12    1  0.8500177E-002  0.1731216E+03  0.7818608E-02  0.1175745E+00
         21   -1    0    0  501  502  0.00000000000E+00  0.00000000000E+00  0.42594708698E+02  0.42594708698E+02  0.00000000000E+00 0.  1.
         21   -1    0    0  502  503 -0.00000000000E+00 -0.00000000000E+00 -0.93469055001E+03  0.93469055001E+03  0.00000000000E+00 0.  1.
         -6    2    1    2    0  503 -0.38141875451E+01 -0.10024002807E+02 -0.69384760987E+03  0.71408676624E+03  0.16846475993E+03 0.  0.
        -24    2    3    3    0    0  0.14445999914E+02  0.53025074225E+02 -0.30459931377E+03  0.31931474775E+03  0.78490896132E+02 0.  0.
          6    2    1    2  501    0  0.38141875451E+01  0.10024002807E+02 -0.19824823144E+03  0.26319849247E+03  0.17278905205E+03 0.  0.
         24    2    5    5    0    0 -0.42976656027E+02  0.47815081263E+02 -0.16522655136E+03  0.19442298804E+03  0.79794799624E+02 0.  0.
          5    1    5    5  501    0  0.46790843573E+02 -0.37791078456E+02 -0.33021680083E+02  0.68775504423E+02  0.47000000000E+01 0. -1.
        -13    1    6    6    0    0 -0.50891039201E+02  0.77016939912E+01 -0.48416042020E+02  0.70663477739E+02  0.00000000000E+00 0.  1.
         14    1    6    6    0    0  0.79143831733E+01  0.40113387271E+02 -0.11681050934E+03  0.12375951030E+03  0.00000000000E+00 0. -1.
         -5    1    3    3    0  503 -0.18260187459E+02 -0.63049077032E+02 -0.38924829610E+03  0.39477201848E+03  0.47000000000E+01 0.  1.
         13    1    4    4    0    0  0.22963058798E+02 -0.87968982243E+01 -0.15921196804E+03  0.16109977732E+03  0.00000000000E+00 0. -1.
        -14    1    4    4    0    0 -0.85170588841E+01  0.61821972450E+02 -0.14538734573E+03  0.15821497043E+03  0.00000000000E+00 0.  1.
</event>
<event>
12    1  0.8500177E-002  0.2030003E+03  0.7818608E-02  0.1147327E+00
         21   -1    0    0  503  502  0.00000000000E+00  0.00000000000E+00  0.43690193901E+02  0.43690193901E+02  0.00000000000E+00 0.  1.
         21   -1    0    0  501  503 -0.00000000000E+00 -0.00000000000E+00 -0.11244185431E+04  0.11244185431E+04  0.00000000000E+00 0.  1.
          6    2    1    2  501    0 -0.20303466584E+02 -0.10496114485E+03 -0.30400663060E+03  0.36529757679E+03  0.17202678708E+03 0.  0.
         24    2    3    3    0    0 -0.80227748106E+02 -0.66980545170E+02 -0.21675357509E+03  0.25274256284E+03  0.77290398891E+02 0.  0.
         -6    2    1    2    0  502  0.20303466584E+02  0.10496114485E+03 -0.77672171861E+03  0.80281116023E+03  0.17256899530E+03 0.  0.
        -24    2    5    5    0    0  0.12187823246E+02  0.12180657472E+03 -0.76769484792E+03  0.78152251140E+03  0.80228870245E+02 0.  0.
          5    1    3    3  501    0  0.59924281521E+02 -0.37980599680E+02 -0.87253055513E+02  0.11255501395E+03  0.47000000000E+01 0. -1.
        -13    1    4    4    0    0 -0.58667303650E+02 -0.69941515312E+02 -0.21149152178E+03  0.23035262505E+03  0.00000000000E+00 0.  1.
         14    1    4    4    0    0 -0.21560444456E+02  0.29609701419E+01 -0.52620533060E+01  0.22389937791E+02  0.00000000000E+00 0. -1.
         -5    1    5    5    0  502  0.81156433381E+01 -0.16845429874E+02 -0.90268706911E+01  0.21288648827E+02  0.47000000000E+01 0.  1.
         13    1    6    6    0    0 -0.73166911068E+01  0.71439897909E+02 -0.62211624965E+03  0.62624741202E+03  0.00000000000E+00 0. -1.
        -14    1    6    6    0    0  0.19504514353E+02  0.50366676814E+02 -0.14557859827E+03  0.15527509938E+03  0.00000000000E+00 0.  1.
</event>
<event>
12    1  0.8500177E-002  0.1830072E+03  0.7818608E-02  0.1166420E+00
         21   -1    0    0  501  502  0.00000000000E+00  0.00000000000E+00  0.14079816142E+03  0.14079816142E+03  0.00000000000E+00 0.  1.
         21   -1    0    0  502  503 -0.00000000000E+00 -0.00000000000E+00 -0.23503410281E+03  0.23503410281E+03  0.00000000000E+00 0.  1.
         -6    2    1    2    0  503  0.11715755505E+02 -0.39915700396E+02 -0.20072182469E+02  0.18410470440E+03  0.17821651889E+03 0.  0.
        -24    2    3    3    0    0  0.76421363479E+02 -0.24385194118E+02  0.57460543464E+01  0.11257370635E+03  0.78771566785E+02 0.  0.
          6    2    1    2  501    0 -0.11715755505E+02  0.39915700396E+02 -0.74163758922E+02  0.19172755983E+03  0.17183908751E+03 0.  0.
         24    2    5    5    0    0  0.59791286929E+02  0.19224694810E+02 -0.39037320566E+02  0.10928162905E+03  0.80461016452E+02 0.  0.
          5    1    5    5  501    0 -0.71507042434E+02  0.20691005586E+02 -0.35126438356E+02  0.82445930775E+02  0.47000000000E+01 0. -1.
        -11    1    6    6    0    0 -0.33530517824E+01 -0.22631538328E+02  0.22764206930E+01  0.22991554418E+02  0.00000000000E+00 0.  1.
         12    1    6    6    0    0  0.63144338711E+02  0.41856233138E+02 -0.41313741259E+02  0.86290074636E+02  0.00000000000E+00 0. -1.
         -5    1    3    3    0  503 -0.64705607974E+02 -0.15530506278E+02 -0.25818236815E+02  0.71530998041E+02  0.47000000000E+01 0.  1.
         13    1    4    4    0    0  0.65097449834E+01 -0.33278484289E+02  0.21775226686E+02  0.40298818761E+02  0.00000000000E+00 0. -1.
        -14    1    4    4    0    0  0.69911618496E+02  0.88932901716E+01 -0.16029172339E+02  0.72274887593E+02  0.00000000000E+00 0.  1.
</event>
<event>
12    1  0.8500177E-002  0.1755600E+03  0.7818608E-02  0.1172444E+00
         21   -1    0    0  503  502  0.00000000000E+00  0.00000000000E+00  0.76334478493E+03  0.76334478493E+03  0.00000000000E+00 0. -1.
         21   -1    0    0  501  503 -0.00000000000E+00 -0.00000000000E+00 -0.86209593243E+02  0.86209593243E+02  0.00000000000E+00 0. -1.
          6    2    1    2  501    0 -0.19903893656E+02  0.21379535665E+02  0.28491847799E+02  0.17785693392E+03  0.17311283610E+03 0.  0.
         24    2    3    3    0    0  0.15491084684E+02  0.11216978485E+02 -0.46151087354E+02  0.94491834334E+02  0.80205919861E+02 0.  0.
         -6    2    1    2    0  502  0.19903893656E+02 -0.21379535665E+02  0.64864334389E+03  0.67169744425E+03  0.17200587061E+03 0.  0.
        -24    2    5    5    0    0  0.65513584885E+02 -0.11424197397E+02  0.57751764626E+03  0.58649000587E+03  0.77597378493E+02 0.  0.
          5    1    3    3  501    0 -0.35394978340E+02  0.10162557180E+02  0.74642935154E+02  0.83365099583E+02  0.47000000000E+01 0. -1.
        -13    1    4    4    0    0  0.23486861933E+02 -0.23049638124E+02 -0.49180379194E+02  0.59174557022E+02  0.00000000000E+00 0.  1.
         14    1    4    4    0    0 -0.79957772494E+01  0.34266616609E+02  0.30292918394E+01  0.35317277312E+02  0.00000000000E+00 0. -1.
         -5    1    5    5    0  502 -0.45609691229E+02 -0.99553382682E+01  0.71125697627E+02  0.85207438389E+02  0.47000000000E+01 0.  1.
         13    1    6    6    0    0  0.61019954269E+02 -0.97679476782E+01  0.20908196599E+03  0.21802320089E+03  0.00000000000E+00 0. -1.
        -14    1    6    6    0    0  0.44936306159E+01 -0.16562497184E+01  0.36843568026E+03  0.36846680498E+03  0.00000000000E+00 0.  1.
</event>
<event>
12    1  0.8500177E-002  0.1864165E+03  0.7818608E-02  0.1162114E+00
         21   -1    0    0  501  502  0.00000000000E+00  0.00000000000E+00  0.18973095140E+03  0.18973095140E+03  0.00000000000E+00 0.  1.
         21   -1    0    0  502  503 -0.00000000000E+00 -0.00000000000E+00 -0.18870308106E+03  0.18870308106E+03  0.00000000000E+00 0.  1.
         -6    2    1    2    0  503 -0.21571336931E+02 -0.68223459167E+02 -0.36308511143E+02  0.18991949768E+03  0.17213757480E+03 0.  0.
        -24    2    3    3    0    0  0.51199499328E+02 -0.44961654201E+02  0.69130033519E+01  0.10201673609E+03  0.75608767657E+02 0.  0.
          6    2    1    2  501    0  0.21571336931E+02  0.68223459167E+02  0.37336381487E+02  0.18851453478E+03  0.17036420247E+03 0.  0.
         24    2    5    5    0    0  0.52737031383E+02 -0.14047503977E+02  0.13909415305E+02  0.97351358922E+02  0.79405846150E+02 0.  0.
          5    1    5    5  501    0 -0.31165694452E+02  0.82270963144E+02  0.23426966181E+02  0.91163175854E+02  0.47000000000E+01 0. -1.
        -13    1    6    6    0    0  0.21105591749E+02  0.32998177670E+02  0.10523995194E+02  0.40559588354E+02  0.00000000000E+00 0.  1.
         14    1    6    6    0    0  0.31631439634E+02 -0.47045681647E+02  0.33854201115E+01  0.56791770568E+02  0.00000000000E+00 0. -1.
         -5    1    3    3    0  503 -0.72770836259E+02 -0.23261804966E+02 -0.43221514495E+02  0.87902761591E+02  0.47000000000E+01 0.  1.
         13    1    4    4    0    0  0.15125330668E+02 -0.20132438954E+01  0.35807536986E+02  0.38923109894E+02  0.00000000000E+00 0. -1.
        -14    1    4    4    0    0  0.36074168660E+02 -0.42948410306E+02 -0.28894533634E+02  0.63093626193E+02  0.00000000000E+00 0.  1.
</event>
<event>
12    1  0.8500177E-002  0.2349979E+03  0.7818608E-02  0.1123253E+00
         21   -1    0    0  501  502  0.00000000000E+00  0.00000000000E+00  0.82087811561E+03  0.82087811561E+03  0.00000000000E+00 0. -1.
         21   -1    0    0  502  503 -0.00000000000E+00 -0.00000000000E+00 -0.74498109316E+02  0.74498109316E+02  0.00000000000E+00 0.  1.
         -6    2    1    2    0  503  0.76689190442E+02 -0.13895367884E+03  0.23280060641E+03  0.33078711415E+03  0.17330503671E+03 0.  0.
        -24    2    3    3    0    0 -0.24797243147E-01 -0.11360474184E+03  0.20045483989E+03  0.24363240616E+03  0.79174291978E+02 0.  0.
          6    2    1    2  501    0 -0.76689190442E+02  0.13895367884E+03  0.51357939989E+03  0.56458911078E+03  0.17264908696E+03 0.  0.
         24    2    5    5    0    0 -0.80801376554E+02  0.11154255037E+03  0.22722433071E+03  0.27685729870E+03  0.77771873966E+02 0.  0.
          5    1    5    5  501    0  0.41121861129E+01  0.27411128469E+02  0.28635506918E+03  0.28773181208E+03  0.47000000000E+01 0. -1.
        -13    1    6    6    0    0 -0.25774205334E+02  0.90349048677E+02  0.17241032834E+03  0.19634811324E+03  0.00000000000E+00 0.  1.
         14    1    6    6    0    0 -0.55027171220E+02  0.21193501697E+02  0.54814002375E+02  0.80509185458E+02  0.00000000000E+00 0. -1.
         -5    1    3    3    0  503  0.76713987685E+02 -0.25348936999E+02  0.32345766518E+02  0.87154707992E+02  0.47000000000E+01 0.  1.
         11    1    4    4    0    0 -0.28954405865E+02 -0.25892853281E+02  0.27601126037E+02  0.47651019176E+02  0.00000000000E+00 0. -1.
        -12    1    4    4    0    0  0.28929608622E+02 -0.87711888563E+02  0.17285371385E+03  0.19598138698E+03  0.00000000000E+00 0.  1.
</event>
<event>
12    1  0.8500177E-002  0.1814780E+03  0.7818608E-02  0.1166799E+00
         21   -1    0    0  501  502  0.00000000000E+00  0.00000000000E+00  0.13343697878E+03  0.13343697878E+03  0.00000000000E+00 0. -1.
         21   -1    0    0  502  503 -0.00000000000E+00 -0.00000000000E+00 -0.41329492999E+03  0.41329492999E+03  0.00000000000E+00 0.  1.
         -6    2    1    2    0  503  0.41974162305E+02 -0.37086597716E+02 -0.31425253683E+03  0.36202335835E+03  0.17078937045E+03 0.  0.
        -24    2    3    3    0    0  0.56257919490E+02 -0.69833648665E+02 -0.29988372114E+03  0.32322969999E+03  0.80656684529E+02 0.  0.
          6    2    1    2  501    0 -0.41974162305E+02  0.37086597716E+02  0.34394585615E+02  0.18470855041E+03  0.17261811911E+03 0.  0.
         24    2    5    5    0    0  0.21913544197E+02  0.70815650041E+02  0.19430377026E+02  0.11078084551E+03  0.79998727937E+02 0.  0.
          5    1    5    5  501    0 -0.63887706502E+02 -0.33729052325E+02  0.14964208589E+02  0.73927704898E+02  0.47000000000E+01 0. -1.
        -13    1    6    6    0    0  0.26858454638E+02  0.18951188292E+02 -0.25799837325E+02  0.41787028241E+02  0.00000000000E+00 0.  1.
         14    1    6    6    0    0 -0.49449104416E+01  0.51864461749E+02  0.45230214350E+02  0.68993817273E+02  0.00000000000E+00 0. -1.
         -5    1    3    3    0  503 -0.14283757185E+02  0.32747050949E+02 -0.14368815692E+02  0.38793658368E+02  0.47000000000E+01 0.  1.
         13    1    4    4    0    0  0.23308420789E+02  0.13980469536E+02 -0.41567420920E+02  0.49664740914E+02  0.00000000000E+00 0. -1.
        -14    1    4    4    0    0  0.32949498702E+02 -0.83814118201E+02 -0.25831630022E+03  0.27356495907E+03  0.00000000000E+00 0.  1.
</event>
<event>
12    1  0.8500177E-002  0.2908558E+03  0.7818608E-02  0.1091106E+00
         21   -1    0    0  503  502  0.00000000000E+00  0.00000000000E+00  0.53362968803E+03  0.53362968803E+03  0.00000000000E+00 0. -1.
         21   -1    0    0  501  503 -0.00000000000E+00 -0.00000000000E+00 -0.19874808431E+03  0.19874808431E+03  0.00000000000E+00 0.  1.
          6    2    1    2  501    0 -0.14682342872E+03  0.18256439526E+03 -0.91029071643E+01  0.28190862868E+03  0.15653349279E+03 0.  0.
         24    2    3    3    0    0 -0.87779163835E+02  0.12392178279E+03  0.48666647107E+02  0.18049564817E+03  0.84548486781E+02 0.  0.
         -6    2    1    2    0  502  0.14682342872E+03 -0.18256439526E+03  0.34398451088E+03  0.45046914366E+03  0.17236655136E+03 0.  0.
        -24    2    5    5    0    0  0.83225683957E+02 -0.11142414893E+03  0.30993946623E+03  0.34904546373E+03  0.80177350811E+02 0.  0.
          5    1    3    3  501    0 -0.59044264889E+02  0.58642612478E+02 -0.57769554271E+02  0.10141298051E+03  0.47000000000E+01 0. -1.
        -13    1    4    4    0    0 -0.81069481403E+02  0.13540647092E+03  0.53039340574E+02  0.16649427867E+03  0.00000000000E+00 0.  1.
         14    1    4    4    0    0 -0.67096824322E+01 -0.11484688132E+02 -0.43726934674E+01  0.14001369504E+02  0.00000000000E+00 0. -1.
         -5    1    5    5    0  502  0.63597744766E+02 -0.71140246330E+02  0.34045044651E+02  0.10142367994E+03  0.47000000000E+01 0.  1.
         13    1    6    6    0    0  0.30127684595E+02  0.28126916130E+01  0.97249863838E+02  0.10184853769E+03  0.00000000000E+00 0. -1.
        -14    1    6    6    0    0  0.53097999363E+02 -0.11423684055E+03  0.21268960239E+03  0.24719692604E+03  0.00000000000E+00 0.  1.
</event>
<event>
12    1  0.8500177E-002  0.1804000E+03  0.7818608E-02  0.1167731E+00
         21   -1    0    0  503  502  0.00000000000E+00  0.00000000000E+00  0.27956755036E+03  0.27956755036E+03  0.00000000000E+00 0. -1.
         21   -1    0    0  501  503 -0.00000000000E+00 -0.00000000000E+00 -0.40414872114E+03  0.40414872114E+03  0.00000000000E+00 0. -1.
          6    2    1    2  501    0 -0.42221239009E+02  0.22066948100E+02 -0.35122658768E+03  0.39484716373E+03  0.17399592983E+03 0.  0.
         24    2    3    3    0    0 -0.39858845243E+02 -0.53246511947E+02 -0.19101298292E+03  0.21773649969E+03  0.80618267627E+02 0.  0.
         -6    2    1    2    0  502  0.42221239009E+02 -0.22066948100E+02  0.22664541689E+03  0.28886910776E+03  0.17264887256E+03 0.  0.
        -24    2    5    5    0    0 -0.30634857632E+02 -0.33944305477E+02  0.17931484154E+03  0.20105478205E+03  0.78603451667E+02 0.  0.
          5    1    3    3  501    0 -0.23623937654E+01  0.75313460047E+02 -0.16021360476E+03  0.17711066405E+03  0.47000000000E+01 0. -1.
        -11    1    4    4    0    0 -0.51642728615E+02 -0.34494573955E+02 -0.18446962632E+03  0.19464298109E+03  0.00000000000E+00 0.  1.
         12    1    4    4    0    0  0.11783883372E+02 -0.18751937992E+02 -0.65433565920E+01  0.23093518599E+02  0.00000000000E+00 0. -1.
         -5    1    5    5    0  502  0.72856096641E+02  0.11877357377E+02  0.47330575355E+02  0.87814325707E+02  0.47000000000E+01 0.  1.
         11    1    6    6    0    0  0.20633880017E+02  0.88050416850E+00  0.90020447604E+02  0.92359153737E+02  0.00000000000E+00 0. -1.
        -12    1    6    6    0    0 -0.51268737649E+02 -0.34824809645E+02  0.89294393936E+02  0.10869562832E+03  0.00000000000E+00 0.  1.
</event>
<event>
12    1  0.8500177E-002  0.1785306E+03  0.7818608E-02  0.1170170E+00
         21   -1    0    0  503  502  0.00000000000E+00  0.00000000000E+00  0.85347633386E+03  0.85347633386E+03  0.00000000000E+00 0. -1.
         21   -1    0    0  501  503 -0.00000000000E+00 -0.00000000000E+00 -0.48182135585E+02  0.48182135585E+02  0.00000000000E+00 0. -1.
          6    2    1    2  501    0 -0.27679151512E+02  0.17671405400E+02  0.18448737578E+03  0.25672702237E+03  0.17548435315E+03 0.  0.
         24    2    3    3    0    0 -0.34344731557E+02 -0.23772515984E+02  0.19119023569E+03  0.21395966440E+03  0.86488951119E+02 0.  0.
         -6    2    1    2    0  502  0.27679151512E+02 -0.17671405400E+02  0.62080682250E+03  0.64493144707E+03  0.17163055253E+03 0.  0.
        -24    2    5    5    0    0 -0.10622807971E+02 -0.33345538605E+02  0.57996527516E+03  0.58659757577E+03  0.80698367468E+02 0.  0.
          5    1    3    3  501    0  0.66655800446E+01  0.41443921385E+02 -0.67028599129E+01  0.42767357974E+02  0.47000000000E+01 0. -1.
        -11    1    4    4    0    0  0.70972531249E+01 -0.37351433263E+02  0.14714451343E+03  0.15197699958E+03  0.00000000000E+00 0.  1.
         12    1    4    4    0    0 -0.41441984682E+02  0.13578917279E+02  0.44045722254E+02  0.61982664816E+02  0.00000000000E+00 0. -1.
         -5    1    5    5    0  502  0.38301959483E+02  0.15674133205E+02  0.40841547335E+02  0.58333871298E+02  0.47000000000E+01 0.  1.
         13    1    6    6    0    0  0.24874764244E+02  0.45472897810E+01  0.78991227689E+02  0.82940013217E+02  0.00000000000E+00 0. -1.
        -14    1    6    6    0    0 -0.35497572215E+02 -0.37892828386E+02  0.50097404747E+03  0.50365756256E+03  0.00000000000E+00 0.  1.
</event>
<event>
12    1  0.8500177E-002  0.1886662E+03  0.7818608E-02  0.1160029E+00
         21   -1    0    0  503  502  0.00000000000E+00  0.00000000000E+00  0.12229188952E+03  0.12229188952E+03  0.00000000000E+00 0.  1.
         21   -1    0    0  501  503 -0.00000000000E+00 -0.00000000000E+00 -0.41935855955E+03  0.41935855955E+03  0.00000000000E+00 0.  1.
          6    2    1    2  501    0  0.55201697219E+02  0.51189145230E+02 -0.30015945374E+03  0.35452874189E+03  0.17299530396E+03 0.  0.
         24    2    3    3    0    0 -0.19504323327E+02  0.40867723224E+02 -0.77675659731E+02  0.11956353201E+03  0.78812058987E+02 0.  0.
         -6    2    1    2    0  502 -0.55201697219E+02 -0.51189145230E+02  0.30927837173E+01  0.18712170718E+03  0.17128167450E+03 0.  0.
        -24    2    5    5    0    0 -0.17259895833E+02 -0.20064790060E+02  0.67128023617E+02  0.10630767544E+03  0.78068242566E+02 0.  0.
          5    1    3    3  501    0  0.74706020546E+02  0.10321422006E+02 -0.22248379401E+03  0.23496520989E+03  0.47000000000E+01 0. -1.
        -11    1    4    4    0    0  0.12547726547E+02  0.65953119615E+01 -0.70719229088E+02  0.72125951946E+02  0.00000000000E+00 0.  1.
         12    1    4    4    0    0 -0.32052049874E+02  0.34272411263E+02 -0.69564306429E+01  0.47437580062E+02  0.00000000000E+00 0. -1.
         -5    1    5    5    0  502 -0.37941801387E+02 -0.31124355170E+02 -0.64035239900E+02  0.80814031741E+02  0.47000000000E+01 0.  1.
         13    1    6    6    0    0  0.21039418135E+02  0.14161029812E+02  0.52672036118E+01  0.25902419089E+02  0.00000000000E+00 0. -1.
        -14    1    6    6    0    0 -0.38299313968E+02 -0.34225819872E+02  0.61860820005E+02  0.80405256346E+02  0.00000000000E+00 0.  1.
</event>
<event>
12    1  0.8500177E-002  0.2275243E+03  0.7818608E-02  0.1128437E+00
         21   -1    0    0  503  502  0.00000000000E+00  0.00000000000E+00  0.12159656037E+04  0.12159656037E+04  0.00000000000E+00 0.  1.
         21   -1    0    0  501  503 -0.00000000000E+00 -0.00000000000E+00 -0.65139057565E+02  0.65139057565E+02  0.00000000000E+00 0.  1.
          6    2    1    2  501    0  0.14500701305E+03 -0.33444656372E+02  0.19822191746E+03  0.30176025391E+03  0.17210968422E+03 0.  0.
         24    2    3    3    0    0  0.16451388926E+03 -0.57587421022E+02  0.14554856980E+03  0.24044171790E+03  0.79036084882E+02 0.  0.
         -6    2    1    2    0  502 -0.14500701305E+03  0.33444656372E+02  0.95260462866E+03  0.97934440735E+03  0.17179729563E+03 0.  0.
        -24    2    5    5    0    0 -0.22028824900E+02 -0.31526372908E+02  0.36574383447E+03  0.37620880803E+03  0.79280095050E+02 0.  0.
          5    1    3    3  501    0 -0.19506876212E+02  0.24142764650E+02  0.52673347660E+02  0.61318536008E+02  0.47000000000E+01 0. -1.
        -11    1    4    4    0    0  0.13534579209E+03 -0.11113352087E+02  0.11283333595E+03  0.17655976816E+03  0.00000000000E+00 0.  1.
         12    1    4    4    0    0  0.29168097169E+02 -0.46474068935E+02  0.32715233851E+02  0.63881949733E+02  0.00000000000E+00 0. -1.
         -5    1    5    5    0  502 -0.12297818815E+03  0.64971029281E+02  0.58686079419E+03  0.60313559932E+03  0.47000000000E+01 0.  1.
         13    1    6    6    0    0 -0.49268183764E+02 -0.28689038369E+02  0.19084901522E+03  0.19918273385E+03  0.00000000000E+00 0. -1.
        -14    1    6    6    0    0  0.27239358865E+02 -0.28373345392E+01  0.17489481925E+03  0.17702607418E+03  0.00000000000E+00 0.  1.
</event>
<event>
12    1  0.8500177E-002  0.1796800E+03  0.7818608E-02  0.1169074E+00
         21   -1    0    0  503  502  0.00000000000E+00  0.00000000000E+00  0.46703995226E+03  0.46703995226E+03  0.00000000000E+00 0. -1.
         21   -1    0    0  501  503 -0.00000000000E+00 -0.00000000000E+00 -0.84487230681E+02  0.84487230681E+02  0.00000000000E+00 0. -1.
          6    2    1    2  501    0  0.18287534746E+02 -0.47500863658E+02  0.69783259835E+02  0.19275530006E+03  0.17231986645E+03 0.  0.
         24    2    3    3    0    0  0.11050668960E+02 -0.80327828249E+02  0.98130846066E+02  0.14853248383E+03  0.76534688388E+02 0.  0.
         -6    2    1    2    0  502 -0.18287534746E+02  0.47500863658E+02  0.31276946174E+03  0.35877188288E+03  0.16823127465E+03 0.  0.
        -24    2    5    5    0    0  0.51561947399E+02  0.74510780790E+01  0.16716198971E+03  0.19231900248E+03  0.79556991693E+02 0.  0.
          5    1    3    3  501    0  0.72368657862E+01  0.32826964591E+02 -0.28347586231E+02  0.44222816235E+02  0.47000000000E+01 0. -1.
        -13    1    4    4    0    0  0.10697744349E+02 -0.86698080161E+01  0.70337131780E+02  0.71672305755E+02  0.00000000000E+00 0.  1.
         14    1    4    4    0    0  0.35292461135E+00 -0.71658020233E+02  0.27793714285E+02  0.76860178072E+02  0.00000000000E+00 0. -1.
         -5    1    5    5    0  502 -0.69849482145E+02  0.40049785579E+02  0.14560747203E+03  0.16645288039E+03  0.47000000000E+01 0.  1.
         11    1    6    6    0    0  0.38428595048E+02 -0.91674479478E+01  0.16650440637E+03  0.17112719352E+03  0.00000000000E+00 0. -1.
        -12    1    6    6    0    0  0.13133352351E+02  0.16618526027E+02  0.65758333593E+00  0.21191808963E+02  0.00000000000E+00 0.  1.
</event>
<event>
12    1  0.8500177E-002  0.1956476E+03  0.7818608E-02  0.1153699E+00
         21   -1    0    0  501  502  0.00000000000E+00  0.00000000000E+00  0.34997897409E+03  0.34997897409E+03  0.00000000000E+00 0. -1.
         21   -1    0    0  502  503 -0.00000000000E+00 -0.00000000000E+00 -0.11584448740E+03  0.11584448740E+03  0.00000000000E+00 0. -1.
         -6    2    1    2    0  503  0.87335323074E+02 -0.32590400784E+02  0.17431981103E+03  0.26123661034E+03  0.17078517846E+03 0.  0.
        -24    2    3    3    0    0 -0.21884026332E+02 -0.69849065493E+01  0.68814063916E+02  0.10716500265E+03  0.78874982552E+02 0.  0.
          6    2    1    2  501    0 -0.87335323074E+02  0.32590400784E+02  0.59814675652E+02  0.20458685115E+03  0.17201276511E+03 0.  0.
         24    2    5    5    0    0 -0.48404543892E+02 -0.30990056351E+02 -0.19406379621E+02  0.95700921412E+02  0.74018074327E+02 0.  0.
          5    1    5    5  501    0 -0.38930779182E+02  0.63580457135E+02  0.79221055274E+02  0.10888592974E+03  0.47000000000E+01 0. -1.
        -13    1    6    6    0    0 -0.27765026281E+01 -0.45499445204E+02 -0.12951838435E+02  0.47388380428E+02  0.00000000000E+00 0.  1.
         14    1    6    6    0    0 -0.45628041264E+02  0.14509388853E+02 -0.64545411862E+01  0.48312540985E+02  0.00000000000E+00 0. -1.
         -5    1    3    3    0  503  0.10921934941E+03 -0.25605494235E+02  0.10550574712E+03  0.15407160768E+03  0.47000000000E+01 0.  1.
         11    1    4    4    0    0  0.29250339716E+02 -0.46506182179E+00  0.15913255528E+02  0.33302107403E+02  0.00000000000E+00 0. -1.
        -12    1    4    4    0    0 -0.51134366048E+02 -0.65198447275E+01  0.52900808388E+02  0.73862895248E+02  0.00000000000E+00 0.  1.
</event>
<event>
12    1  0.8500177E-002  0.2090136E+03  0.7818608E-02  0.1142425E+00
         21   -1    0    0  503  502  0.00000000000E+00  0.00000000000E+00  0.62475536530E+03  0.62475536530E+03  0.00000000000E+00 0. -1.
         21   -1    0    0  501  503 -0.00000000000E+00 -0.00000000000E+00 -0.86742626145E+02  0.86742626145E+02  0.00000000000E+00 0.  1.
          6    2    1    2  501    0 -0.80646018130E+02  0.85876190573E+02  0.11197875548E+03  0.23712005537E+03  0.17265045216E+03 0.  0.
         24    2    3    3    0    0 -0.47767293344E+02  0.85614905408E+02  0.54927049774E+01  0.12557433486E+03  0.78275905776E+02 0.  0.
         -6    2    1    2    0  502  0.80646018130E+02 -0.85876190573E+02  0.42603398368E+03  0.47437793608E+03  0.17219457204E+03 0.  0.
        -24    2    5    5    0    0  0.76563128108E+00 -0.52450587400E+02  0.33741336017E+03  0.35038659742E+03  0.78557887710E+02 0.  0.
          5    1    3    3  501    0 -0.32878724786E+02  0.26128516433E+00  0.10648605050E+03  0.11154572051E+03  0.47000000000E+01 0. -1.
        -11    1    4    4    0    0  0.16882801512E+02  0.39974846824E+02 -0.10935018806E+02  0.44750329627E+02  0.00000000000E+00 0.  1.
         12    1    4    4    0    0 -0.64650094856E+02  0.45640058584E+02  0.16427723784E+02  0.80824005229E+02  0.00000000000E+00 0. -1.
         -5    1    5    5    0  502  0.79880386849E+02 -0.33425603172E+02  0.88620623502E+02  0.12399133865E+03  0.47000000000E+01 0.  1.
         11    1    6    6    0    0 -0.23808373578E+02  0.63585493216E+01  0.47079295745E+02  0.53138779528E+02  0.00000000000E+00 0. -1.
        -12    1    6    6    0    0  0.24574004859E+02 -0.58809136722E+02  0.29033406443E+03  0.29724781790E+03  0.00000000000E+00 0.  1.
</event>
<event>
12    1  0.8500177E-002  0.1798886E+03  0.7818608E-02  0.1168227E+00
         21   -1    0    0  503  502  0.00000000000E+00  0.00000000000E+00  0.26878006104E+03  0.26878006104E+03  0.00000000000E+00 0. -1.
         21   -1    0    0  501  503 -0.00000000000E+00 -0.00000000000E+00 -0.15709019769E+03  0.15709019769E+03  0.00000000000E+00 0. -1.
          6    2    1    2  501    0 -0.44617394247E+02  0.24579953449E+02 -0.48125875562E+02  0.18621493294E+03  0.17252540499E+03 0.  0.
         24    2    3    3    0    0 -0.51997656903E+02  0.74334486711E+02 -0.79623804066E+01  0.12167674114E+03  0.80699799225E+02 0.  0.
         -6    2    1    2    0  502  0.44617394247E+02 -0.24579953449E+02  0.15981573891E+03  0.23965532579E+03  0.17116868521E+03 0.  0.
        -24    2    5    5    0    0  0.77268352606E+02 -0.12809410593E+02  0.16979416172E+03  0.20323706550E+03  0.79628940240E+02 0.  0.
          5    1    3    3  501    0  0.73802626551E+01 -0.49754533262E+02 -0.40163495156E+02  0.64538191795E+02  0.47000000000E+01 0. -1.
        -13    1    4    4    0    0 -0.19524331066E+02  0.10929360683E+02  0.32721896135E+02  0.39640546353E+02  0.00000000000E+00 0.  1.
         14    1    4    4    0    0 -0.32473325836E+02  0.63405126028E+02 -0.40684276541E+02  0.82036194788E+02  0.00000000000E+00 0. -1.
         -5    1    5    5    0  502 -0.32650958358E+02 -0.11770542856E+02 -0.99784228119E+01  0.36418260291E+02  0.47000000000E+01 0.  1.
         13    1    6    6    0    0  0.61666154944E+01  0.14664904796E+02  0.95427099801E+02  0.96744084861E+02  0.00000000000E+00 0. -1.
        -14    1    6    6    0    0  0.71101737111E+02 -0.27474315389E+02  0.74367061923E+02  0.10649298064E+03  0.00000000000E+00 0.  1.
</event>
<event>
12    1  0.8500177E-002  0.2053539E+03  0.7818608E-02  0.1146355E+00
         21   -1    0    0  503  502  0.00000000000E+00  0.00000000000E+00  0.28606273103E+03  0.28606273103E+03  0.00000000000E+00 0.  1.
         21   -1    0    0  501  503 -0.00000000000E+00 -0.00000000000E+00 -0.14931977231E+03  0.14931977231E+03  0.00000000000E+00 0. -1.
          6    2    1    2  501    0  0.40254886289E+02  0.98906418911E+02  0.27230720162E+02  0.20715152297E+03  0.17540611670E+03 0.  0.
         24    2    3    3    0    0  0.86738235920E+02  0.60054405660E+02  0.51059927545E+02  0.14188206724E+03  0.79958436670E+02 0.  0.
         -6    2    1    2    0  502 -0.40254886289E+02 -0.98906418911E+02  0.10951223856E+03  0.22823098037E+03  0.16939160083E+03 0.  0.
        -24    2    5    5    0    0 -0.45656781929E+02 -0.11905870187E+03  0.41414440584E+02  0.15685384765E+03  0.81415338901E+02 0.  0.
          5    1    3    3  501    0 -0.46483349631E+02  0.38852013250E+02 -0.23829207384E+02  0.65269455728E+02  0.47000000000E+01 0. -1.
        -11    1    4    4    0    0  0.49507866154E+02 -0.12258666916E+02  0.18013568107E+02  0.54090594022E+02  0.00000000000E+00 0.  1.
         12    1    4    4    0    0  0.37230369766E+02  0.72313072576E+02  0.33046359438E+02  0.87791473222E+02  0.00000000000E+00 0. -1.
         -5    1    5    5    0  502  0.54018956395E+01  0.20152282956E+02  0.68097797981E+02  0.71377132716E+02  0.47000000000E+01 0.  1.
         11    1    6    6    0    0 -0.15737694600E+02 -0.21428404874E+02 -0.23808809637E+02  0.35689087732E+02  0.00000000000E+00 0. -1.
        -12    1    6    6    0    0 -0.29919087329E+02 -0.97630296993E+02  0.65223250221E+02  0.12116475992E+03  0.00000000000E+00 0.  1.
</event>
<event>
12    1  0.8500177E-002  0.2083631E+03  0.7818608E-02  0.1143712E+00
         21   -1    0    0  503  502  0.00000000000E+00  0.00000000000E+00  0.40688353696E+03  0.40688353696E+03  0.00000000000E+00 0. -1.
         21   -1    0    0  501  503 -0.00000000000E+00 -0.00000000000E+00 -0.12656348898E+03  0.12656348898E+03  0.00000000000E+00 0. -1.
          6    2    1    2  501    0  0.96345522663E+02 -0.50786751926E+02  0.30163590909E+02  0.21053508315E+03  0.17763283793E+03 0.  0.
         24    2    3    3    0    0  0.19750784979E+02  0.38466010419E+02  0.15249354619E+02  0.91887142283E+02  0.79630249502E+02 0.  0.
         -6    2    1    2    0  502 -0.96345522663E+02  0.50786751926E+02  0.25015645707E+03  0.32291194280E+03  0.17271976111E+03 0.  0.
        -24    2    5    5    0    0 -0.90304935781E+02  0.84408523750E+02  0.24989060877E+03  0.28842900635E+03  0.73933720610E+02 0.  0.
          5    1    3    3  501    0  0.76594737684E+02 -0.89252762345E+02  0.14914236290E+02  0.11864794086E+03  0.47000000000E+01 0. -1.
        -13    1    4    4    0    0  0.41018417134E+02  0.19719915504E+02 -0.17329634204E+02  0.48700121491E+02  0.00000000000E+00 0.  1.
         14    1    4    4    0    0 -0.21267632155E+02  0.18746094915E+02  0.32578988823E+02  0.43187020791E+02  0.00000000000E+00 0. -1.
         -5    1    5    5    0  502 -0.60405868820E+01 -0.33621771824E+02  0.26584829170E+00  0.34482936444E+02  0.47000000000E+01 0.  1.
         11    1    6    6    0    0 -0.90258799255E+02  0.39669083924E+02  0.18463705871E+03  0.20931108549E+03  0.00000000000E+00 0. -1.
        -12    1    6    6    0    0 -0.46136525760E-01  0.44739439827E+02  0.65253550070E+02  0.79117920860E+02  0.00000000000E+00 0.  1.
</event>
<event>
12    1  0.8500177E-002  0.1836214E+03  0.7818608E-02  0.1164381E+00
         21   -1    0    0  501  502  0.00000000000E+00  0.00000000000E+00  0.62423281091E+02  0.62423281091E+02  0.00000000000E+00 0.  1.
         21   -1    0    0  502  503 -0.00000000000E+00 -0.00000000000E+00 -0.55848402372E+03  0.55848402372E+03  0.00000000000E+00 0.  1.
         -6    2    1    2    0  503 -0.62939166614E+02  0.83234012741E+01 -0.30512677935E+03  0.35611679033E+03  0.17229683450E+03 0.  0.
        -24    2    3    3    0    0 -0.88093544134E+02 -0.20381474522E+02 -0.12937221132E+03  0.17620439280E+03  0.78325870297E+02 0.  0.
          6    2    1    2  501    0  0.62939166614E+02 -0.83234012741E+01 -0.19093396328E+03  0.26479051448E+03  0.17212675714E+03 0.  0.
         24    2    5    5    0    0  0.94648811924E+02  0.63706686831E+01 -0.76423850871E+02  0.14497368285E+03  0.78598859531E+02 0.  0.
          5    1    5    5  501    0 -0.31709645310E+02 -0.14694069957E+02 -0.11451011241E+03  0.11981683163E+03  0.47000000000E+01 0. -1.
        -13    1    6    6    0    0  0.82384086134E+02 -0.24582637038E+02 -0.37620857962E+02  0.93844406577E+02  0.00000000000E+00 0.  1.
         14    1    6    6    0    0  0.12264725790E+02  0.30953305721E+02 -0.38802992909E+02  0.51129276276E+02  0.00000000000E+00 0. -1.
         -5    1    3    3    0  503  0.25154377520E+02  0.28704875796E+02 -0.17575456803E+03  0.17991239754E+03  0.47000000000E+01 0.  1.
         11    1    4    4    0    0  0.58909638453E+01 -0.16373082449E+02 -0.15101084380E+01  0.17466015899E+02  0.00000000000E+00 0. -1.
        -12    1    4    4    0    0 -0.93984507980E+02 -0.40083920733E+01 -0.12786210288E+03  0.15873837690E+03  0.00000000000E+00 0.  1.
</event>
<event>
12    1  0.8500177E-002  0.2417518E+03  0.7818608E-02  0.1118825E+00
         21   -1    0    0  501  502  0.00000000000E+00  0.00000000000E+00  0.59073049395E+02  0.59073049395E+02  0.00000000000E+00 0. -1.
         21   -1    0    0  502  503 -0.00000000000E+00 -0.00000000000E+00 -0.11966633822E+04  0.11966633822E+04  0.00000000000E+00 0.  1.
         -6    2    1    2    0  503 -0.51338301144E+02 -0.16095560611E+03 -0.83425661566E+03  0.86857816580E+03  0.17292079410E+03 0.  0.
        -24    2    3    3    0    0 -0.93219323902E+02 -0.84306216231E+02 -0.59211928159E+03  0.61112578654E+03  0.84095795973E+02 0.  0.
          6    2    1    2  501    0  0.51338301144E+02  0.16095560611E+03 -0.30333371714E+03  0.38715826579E+03  0.17128295452E+03 0.  0.
         24    2    5    5    0    0  0.39520121400E+02  0.17845367875E+03 -0.30726915873E+03  0.36517123281E+03  0.74351448644E+02 0.  0.
          5    1    5    5  501    0  0.11818179744E+02 -0.17498072636E+02  0.39354415890E+01  0.21987032973E+02  0.47000000000E+01 0. -1.
        -11    1    6    6    0    0 -0.70206741198E+01  0.12966223760E+03 -0.20572677423E+03  0.24327986221E+03  0.00000000000E+00 0.  1.
         12    1    6    6    0    0  0.46540795520E+02  0.48791441150E+02 -0.10154238450E+03  0.12189137060E+03  0.00000000000E+00 0. -1.
         -5    1    3    3    0  503  0.41881022758E+02 -0.76649389882E+02 -0.24213733406E+03  0.25745237925E+03  0.47000000000E+01 0.  1.
         11    1    4    4    0    0 -0.19190306149E+02 -0.20132285014E+01 -0.17849527794E+02  0.26285482335E+02  0.00000000000E+00 0. -1.
        -12    1    4    4    0    0 -0.74029017753E+02 -0.82292987730E+02 -0.57426975380E+03  0.58484030421E+03  0.00000000000E+00 0.  1.
</event>
<event>
12    1  0.8500177E-002  0.2579974E+03  0.7818608E-02  0.1108740E+00
         21   -1    0    0  503  502  0.00000000000E+00  0.00000000000E+00  0.37022598423E+03  0.37022598423E+03  0.00000000000E+00 0.  1.
         21   -1    0    0  501  503 -0.00000000000E+00 -0.00000000000E+00 -0.20794104913E+03  0.20794104913E+03  0.00000000000E+00 0.  1.
          6    2    1    2  501    0  0.93334537251E+02 -0.16969103690E+03 -0.28165966402E+02  0.25953029343E+03  0.17045899125E+03 0.  0.
         24    2    3    3    0    0  0.36435003225E+02 -0.12821557157E+02 -0.17543298038E+02  0.92256500716E+02  0.81924311596E+02 0.  0.
         -6    2    1    2    0  502 -0.93334537251E+02  0.16969103690E+03  0.19045090151E+03  0.31863673993E+03  0.16658764150E+03 0.  0.
        -24    2    5    5    0    0 -0.64151023223E+02  0.38750655088E+02  0.13414823213E+03  0.17307183462E+03  0.79631304804E+02 0.  0.
          5    1    3    3  501    0  0.56899534026E+02 -0.15686947974E+03 -0.10622668364E+02  0.16727379271E+03  0.47000000000E+01 0. -1.
        -13    1    4    4    0    0  0.50178412551E+02 -0.20411480517E+02 -0.38218458605E+02  0.66295944078E+02  0.00000000000E+00 0.  1.
         14    1    4    4    0    0 -0.13743409326E+02  0.75899233602E+01  0.20675160567E+02  0.25960556638E+02  0.00000000000E+00 0. -1.
         -5    1    5    5    0  502 -0.29183514028E+02  0.13094038181E+03  0.56302669383E+02  0.14556490531E+03  0.47000000000E+01 0.  1.
         11    1    6    6    0    0 -0.76206706299E+02  0.23757403577E+02  0.70229680821E+02  0.10632066769E+03  0.00000000000E+00 0. -1.
        -12    1    6    6    0    0  0.12055683076E+02  0.14993251511E+02  0.63918551305E+02  0.66751166928E+02  0.00000000000E+00 0.  1.
</event>
<event>
12    1  0.8500177E-002  0.2583792E+03  0.7818608E-02  0.1108981E+00
         21   -1    0    0  501  502  0.00000000000E+00  0.00000000000E+00  0.17529721605E+03  0.17529721605E+03  0.00000000000E+00 0.  1.
         21   -1    0    0  502  503 -0.00000000000E+00 -0.00000000000E+00 -0.67374376970E+03  0.67374376970E+03  0.00000000000E+00 0. -1.
         -6    2    1    2    0  503  0.24070268022E+02  0.19041253659E+03 -0.53454127138E+03  0.59371222337E+03  0.17298416539E+03 0.  0.
        -24    2    3    3    0    0 -0.50378403835E+02  0.77884507772E+02 -0.21543813717E+03  0.24722403847E+03  0.78116285924E+02 0.  0.
          6    2    1    2  501    0 -0.24070268022E+02 -0.19041253659E+03  0.36094717729E+02  0.25532876238E+03  0.16447989651E+03 0.  0.
         24    2    5    5    0    0 -0.65226150763E+02 -0.17798536616E+03  0.46017122876E+02  0.21095776540E+03  0.80326595057E+02 0.  0.
          5    1    5    5  501    0  0.41155882741E+02 -0.12427170425E+02 -0.99224051466E+01  0.44370996978E+02  0.47000000000E+01 0. -1.
        -11    1    6    6    0    0  0.10430235550E+02 -0.84034080484E+02  0.26741031249E+02  0.88800896666E+02  0.00000000000E+00 0.  1.
         12    1    6    6    0    0 -0.75656386313E+02 -0.93951285681E+02  0.19276091627E+02  0.12215686874E+03  0.00000000000E+00 0. -1.
         -5    1    3    3    0  503  0.74448671856E+02  0.11252802882E+03 -0.31910313421E+03  0.34648818490E+03  0.47000000000E+01 0.  1.
         11    1    4    4    0    0  0.81272646290E+01  0.50799139071E+02 -0.13276814357E+03  0.14238674414E+03  0.00000000000E+00 0. -1.
        -12    1    4    4    0    0 -0.58505668464E+02  0.27085368701E+02 -0.82669993601E+02  0.10483729433E+03  0.00000000000E+00 0.  1.
</event>
<event>
12    1  0.8500177E-002  0.2606939E+03  0.7818608E-02  0.1106794E+00
         21   -1    0    0  501  502  0.00000000000E+00  0.00000000000E+00  0.21911920803E+03  0.21911920803E+03  0.00000000000E+00 0.  1.
         21   -1    0    0  502  503 -0.00000000000E+00 -0.00000000000E+00 -0.30980892270E+03  0.30980892270E+03  0.00000000000E+00 0.  1.
         -6    2    1    2    0  503 -0.98897344506E+01 -0.19646250954E+03 -0.51724887037E+02  0.26533839038E+03  0.17039270221E+03 0.  0.
        -24    2    3    3    0    0  0.49216034318E+02 -0.10791279228E+03 -0.67175627952E+02  0.15765663833E+03  0.79219075022E+02 0.  0.
          6    2    1    2  501    0  0.98897344506E+01  0.19646250954E+03 -0.38964827635E+02  0.26358974034E+03  0.17107299296E+03 0.  0.
         24    2    5    5    0    0 -0.54716922102E+02  0.14626367080E+03 -0.47167294418E+02  0.18122886405E+03  0.78943932911E+02 0.  0.
          5    1    5    5  501    0  0.64606656553E+02  0.50198838749E+02  0.82024667834E+01  0.82360876295E+02  0.47000000000E+01 0. -1.
        -11    1    6    6    0    0  0.73449342209E+01  0.61616115213E+02  0.81458756355E+01  0.62584734580E+02  0.00000000000E+00 0.  1.
         12    1    6    6    0    0 -0.62061856323E+02  0.84647555582E+02 -0.55313170054E+02  0.11864412947E+03  0.00000000000E+00 0. -1.
         -5    1    3    3    0  503 -0.59105768769E+02 -0.88549717261E+02  0.15450740915E+02  0.10768175205E+03  0.47000000000E+01 0.  1.
         13    1    4    4    0    0 -0.94461701558E+01  0.30040203535E+01 -0.22291609945E+02  0.24396109174E+02  0.00000000000E+00 0. -1.
        -14    1    4    4    0    0  0.58662204474E+02 -0.11091681264E+03 -0.44884018007E+02  0.13326052916E+03  0.00000000000E+00 0.  1.
</event>
<event>
12    1  0.8500177E-002  0.1936225E+03  0.7818608E-02  0.1158412E+00
         21   -1    0    0  503  502  0.00000000000E+00  0.00000000000E+00  0.73421629306E+02  0.73421629306E+02  0.00000000000E+00 0.  1.
         21   -1    0    0  501  503 -0.00000000000E+00 -0.00000000000E+00 -0.48297963784E+03  0.48297963784E+03  0.00000000000E+00 0.  1.
          6    2    1    2  501    0 -0.51233248565E+02 -0.13594939812E+02 -0.23379032855E+03  0.29489798232E+03  0.17174758836E+03 0.  0.
         24    2    3    3    0    0  0.28427204515E+01 -0.16618598395E+02 -0.34925749717E+02  0.88736483372E+02  0.79812885023E+02 0.  0.
         -6    2    1    2    0  502  0.51233248565E+02  0.13594939812E+02 -0.17576767999E+03  0.26150328483E+03  0.18622572996E+03 0.  0.
        -24    2    5    5    0    0 -0.13385993132E+02  0.59621583127E+02 -0.14330817316E+03  0.17565569968E+03  0.81140460613E+02 0.  0.
          5    1    3    3  501    0 -0.54075969016E+02  0.30236585827E+01 -0.19886457883E+03  0.20616149895E+03  0.47000000000E+01 0. -1.
        -13    1    4    4    0    0 -0.36942151056E+01  0.26105148641E+02  0.82688113061E+01  0.27631490210E+02  0.00000000000E+00 0.  1.
         14    1    4    4    0    0  0.65369355572E+01 -0.42723747036E+02 -0.43194561024E+02  0.61104993162E+02  0.00000000000E+00 0. -1.
         -5    1    5    5    0  502  0.64619241697E+02 -0.46026643315E+02 -0.32459506832E+02  0.85847585150E+02  0.47000000000E+01 0.  1.
         13    1    6    6    0    0  0.20136406126E+02  0.63283115378E+02 -0.80409723881E+02  0.10428782881E+03  0.00000000000E+00 0. -1.
        -14    1    6    6    0    0 -0.33522399258E+02 -0.36615322513E+01 -0.62898449277E+02  0.71367870866E+02  0.00000000000E+00 0.  1.
</event>
<event>
12    1  0.8500177E-002  0.1786706E+03  0.7818608E-02  0.1169397E+00
         21   -1    0    0  503  502  0.00000000000E+00  0.00000000000E+00  0.11017220368E+03  0.11017220368E+03  0.00000000000E+00 0.  1.
         21   -1    0    0  501  503 -0.00000000000E+00 -0.00000000000E+00 -0.34564042273E+03  0.34564042273E+03  0.00000000000E+00 0.  1.
          6    2    1    2  501    0 -0.33037141189E+02  0.37194047904E+02 -0.21132814392E+03  0.27673588624E+03  0.17160511770E+03 0.  0.
         24    2    3    3    0    0 -0.81140025153E+02 -0.85635467588E+01 -0.13556371653E+03  0.17588955080E+03  0.76828216329E+02 0.  0.
         -6    2    1    2    0  502  0.33037141189E+02 -0.37194047904E+02 -0.24140075126E+02  0.17907674017E+03  0.17032582231E+03 0.  0.
        -24    2    5    5    0    0  0.78507685448E+02 -0.59024673559E+02 -0.12235697988E+02  0.12703876551E+03  0.79635211266E+02 0.  0.
          5    1    3    3  501    0  0.48102883964E+02  0.45757594662E+02 -0.75764427390E+02  0.10084633545E+03  0.47000000000E+01 0. -1.
        -13    1    4    4    0    0  0.10745525457E+02  0.82897193512E+01 -0.33093128021E+01  0.13969155862E+02  0.00000000000E+00 0.  1.
         14    1    4    4    0    0 -0.91885550610E+02 -0.16853266110E+02 -0.13225440373E+03  0.16192039493E+03  0.00000000000E+00 0. -1.
         -5    1    5    5    0  502 -0.45470544259E+02  0.21830625655E+02 -0.11904377138E+02  0.52037974661E+02  0.47000000000E+01 0.  1.
         11    1    6    6    0    0 -0.35425514688E+00 -0.41314302031E+00  0.22736615929E+02  0.22743128364E+02  0.00000000000E+00 0. -1.
        -12    1    6    6    0    0  0.78861940595E+02 -0.58611530539E+02 -0.34972313918E+02  0.10429563714E+03  0.00000000000E+00 0.  1.
</event>
<event>
12    1  0.8500177E-002  0.2918941E+03  0.7818608E-02  0.1089393E+00
         21   -1    0    0  503  502  0.00000000000E+00  0.00000000000E+00  0.41053362841E+03  0.41053362841E+03  0.00000000000E+00 0. -1.
         21   -1    0    0  501  503 -0.00000000000E+00 -0.00000000000E+00 -0.20916800668E+03  0.20916800668E+03  0.00000000000E+00 0.  1.
          6    2    1    2  501    0 -0.97282010291E+02 -0.21486360807E+03  0.12927806387E+03  0.31903776501E+03  0.17158705692E+03 0.  0.
         24    2    3    3    0    0 -0.16117712203E+02 -0.30410974553E+02  0.14290610732E+02  0.86971779402E+02  0.78582827878E+02 0.  0.
         -6    2    1    2    0  502  0.97282010291E+02  0.21486360807E+03  0.72087557860E+02  0.30066387008E+03  0.17196507544E+03 0.  0.
        -24    2    5    5    0    0  0.17615629544E+02  0.15173505410E+03 -0.62905503533E+01  0.17222258234E+03  0.79291927697E+02 0.  0.
          5    1    3    3  501    0 -0.81164298088E+02 -0.18445263352E+03  0.11498745314E+03  0.23206598561E+03  0.47000000000E+01 0. -1.
        -11    1    4    4    0    0 -0.86184207752E+01  0.20154308792E+02  0.26524732717E+02  0.34409806527E+02  0.00000000000E+00 0.  1.
         12    1    4    4    0    0 -0.74992914277E+01 -0.50565283345E+02 -0.12234121985E+02  0.52561972874E+02  0.00000000000E+00 0. -1.
         -5    1    5    5    0  502  0.79666380747E+02  0.63128553974E+02  0.78378108213E+02  0.12844128774E+03  0.47000000000E+01 0.  1.
         11    1    6    6    0    0 -0.24073785571E+01  0.10089097103E+03  0.31571351411E+02  0.10574277156E+03  0.00000000000E+00 0. -1.
        -12    1    6    6    0    0  0.20023008101E+02  0.50844083067E+02 -0.37861901764E+02  0.66479810781E+02  0.00000000000E+00 0.  1.
</event>
<event>
12    1  0.8500177E-002  0.2640472E+03  0.7818608E-02  0.1105072E+00
         21   -1    0    0  501  502  0.00000000000E+00  0.00000000000E+00  0.77385022930E+03  0.77385022930E+03  0.00000000000E+00 0.  1.
         21   -1    0    0  502  503 -0.00000000000E+00 -0.00000000000E+00 -0.96352293563E+02  0.96352293563E+02  0.00000000000E+00 0. -1.
         -6    2    1    2    0  503  0.18229505566E+03 -0.73628194231E+02  0.21987075816E+03  0.34186214002E+03  0.17284089267E+03 0.  0.
        -24    2    3    3    0    0  0.14429618320E+02 -0.69461938187E+01  0.74778914132E+02  0.11013163396E+03  0.79250408874E+02 0.  0.
          6    2    1    2  501    0 -0.18229505566E+03  0.73628194231E+02  0.45762717758E+03  0.52834038285E+03  0.17626210081E+03 0.  0.
         24    2    5    5    0    0 -0.24060590775E+02  0.60507362106E+02  0.15385017339E+03  0.18553889454E+03  0.80714017594E+02 0.  0.
          5    1    5    5  501    0 -0.15823446489E+03  0.13120832125E+02  0.30377700419E+03  0.34280148831E+03  0.47000000000E+01 0. -1.
        -13    1    6    6    0    0 -0.48706540528E+02  0.43636493630E+02  0.13557915783E+03  0.15052633890E+03  0.00000000000E+00 0.  1.
         14    1    6    6    0    0  0.24645949752E+02  0.16870868476E+02  0.18271015565E+02  0.35012555635E+02  0.00000000000E+00 0. -1.
         -5    1    3    3    0  503  0.16786543734E+03 -0.66682000412E+02  0.14509184403E+03  0.23173050605E+03  0.47000000000E+01 0.  1.
         11    1    4    4    0    0  0.19658680913E+01 -0.15527199681E+02 -0.13436613053E+02  0.20627678920E+02  0.00000000000E+00 0. -1.
        -12    1    4    4    0    0  0.12463750229E+02  0.85810058623E+01  0.88215527185E+02  0.89503955041E+02  0.00000000000E+00 0.  1.
</event>
<event>
12    1  0.8500177E-002  0.2358334E+03  0.7818608E-02  0.1124011E+00
         21   -1    0    0  501  502  0.00000000000E+00  0.00000000000E+00  0.36825110241E+02  0.36825110241E+02  0.00000000000E+00 0.  1.
         21   -1    0    0  502  503 -0.00000000000E+00 -0.00000000000E+00 -0.23032409432E+04  0.23032409432E+04  0.00000000000E+00 0.  1.
         -6    2    1    2    0  503  0.13947216125E+03 -0.53442591755E+02 -0.18542100450E+04  0.18691474757E+04  0.18250698747E+03 0.  0.
        -24    2    3    3    0    0  0.14531764090E+03 -0.95703458397E+02 -0.15975677992E+04  0.16089408601E+04  0.78685763799E+02 0.  0.
          6    2    1    2  501    0 -0.13947216125E+03  0.53442591755E+02 -0.41220578798E+03  0.47091857778E+03  0.17187815708E+03 0.  0.
         24    2    5    5    0    0 -0.16980328215E+03  0.63881733757E+02 -0.35147117386E+03  0.40207283766E+03  0.72225689308E+02 0.  0.
          5    1    5    5  501    0  0.30331120895E+02 -0.10439142003E+02 -0.60734614122E+02  0.68845740123E+02  0.47000000000E+01 0. -1.
        -11    1    6    6    0    0 -0.25400372397E+02  0.29674397979E+02 -0.34633810408E+02  0.52203923576E+02  0.00000000000E+00 0.  1.
         12    1    6    6    0    0 -0.14440290975E+03  0.34207335778E+02 -0.31683736345E+03  0.34986891409E+03  0.00000000000E+00 0. -1.
         -5    1    3    3    0  503 -0.58454796461E+01  0.42260866642E+02 -0.25664224578E+03  0.26020661560E+03  0.47000000000E+01 0.  1.
         13    1    4    4    0    0  0.58581287979E+02 -0.81454573931E+02 -0.71469500772E+03  0.72170324162E+03  0.00000000000E+00 0. -1.
        -14    1    4    4    0    0  0.86736352922E+02 -0.14248884465E+02 -0.88287279149E+03  0.88723761844E+03  0.00000000000E+00 0.  1.
</event>
<event>
12    1  0.8500177E-002  0.1711822E+03  0.7818608E-02  0.1177013E+00
         21   -1    0    0  501  502  0.00000000000E+00  0.00000000000E+00  0.11364698028E+03  0.11364698028E+03  0.00000000000E+00 0. -1.
         21   -1    0    0  502  503 -0.00000000000E+00 -0.00000000000E+00 -0.25727481226E+03  0.25727481226E+03  0.00000000000E+00 0. -1.
         -6    2    1    2    0  503 -0.37683983436E+00 -0.43656951478E+01 -0.86580824189E+02  0.19048421940E+03  0.16961367110E+03 0.  0.
        -24    2    3    3    0    0  0.78403475989E+01 -0.36701332174E+02 -0.10883169651E+03  0.15010716020E+03  0.96329447962E+02 0.  0.
          6    2    1    2  501    0  0.37683983436E+00  0.43656951478E+01 -0.57047007792E+02  0.18043757314E+03  0.17112613886E+03 0.  0.
         24    2    5    5    0    0  0.33902588866E+01 -0.94861220554E+01 -0.10365818540E+03  0.13149224228E+03  0.80272722724E+02 0.  0.
          5    1    5    5  501    0 -0.30134190522E+01  0.13851817203E+02  0.46611177609E+02  0.48945330853E+02  0.47000000000E+01 0. -1.
        -11    1    6    6    0    0 -0.80629671846E+01 -0.43781964991E+02 -0.62059049203E+02  0.76375372249E+02  0.00000000000E+00 0.  1.
         12    1    6    6    0    0  0.11453226071E+02  0.34295842935E+02 -0.41599136198E+02  0.55116870036E+02  0.00000000000E+00 0. -1.
         -5    1    3    3    0  503 -0.82171874333E+01  0.32335637026E+02  0.22250872318E+02  0.40377059206E+02  0.47000000000E+01 0.  1.
         13    1    4    4    0    0 -0.32682304679E+02 -0.50846646491E+02 -0.62295092758E+02  0.86799729724E+02  0.00000000000E+00 0. -1.
        -14    1    4    4    0    0  0.40522652278E+02  0.14145314317E+02 -0.46536603749E+02  0.63307430475E+02  0.00000000000E+00 0.  1.
</event>
<event>
12    1  0.8500177E-002  0.2240495E+03  0.7818608E-02  0.1131253E+00
         21   -1    0    0  503  502  0.00000000000E+00  0.00000000000E+00  0.82178177714E+03  0.82178177714E+03  0.00000000000E+00 0.  1.
         21   -1    0    0  501  503 -0.00000000000E+00 -0.00000000000E+00 -0.64846735123E+02  0.64846735123E+02  0.00000000000E+00 0.  1.
          6    2    1    2  501    0  0.13089036530E+03  0.56912555201E+02  0.26294843316E+03  0.34420714719E+03  0.17019211206E+03 0.  0.
         24    2    3    3    0    0  0.64258663655E+02  0.39713741390E+02  0.49248637300E+02  0.11965141778E+03  0.78642713526E+02 0.  0.
         -6    2    1    2    0  502 -0.13089036530E+03 -0.56912555201E+02  0.49398660886E+03  0.54242136507E+03  0.17270449007E+03 0.  0.
        -24    2    5    5    0    0 -0.36447616038E+01 -0.34998703624E+02  0.26438367574E+03  0.27896120215E+03  0.81746136084E+02 0.  0.
          5    1    3    3  501    0  0.66631701647E+02  0.17198813810E+02  0.21369979586E+03  0.22455572941E+03  0.47000000000E+01 0. -1.
        -13    1    4    4    0    0  0.82887374117E+02  0.32470518154E+02  0.41433043966E+02  0.98190368517E+02  0.00000000000E+00 0.  1.
         14    1    4    4    0    0 -0.18628710461E+02  0.72432232359E+01  0.78155933338E+01  0.21461049263E+02  0.00000000000E+00 0. -1.
         -5    1    5    5    0  502 -0.12724560370E+03 -0.21913851576E+02  0.22960293312E+03  0.26346016293E+03  0.47000000000E+01 0.  1.
         11    1    6    6    0    0  0.16319703620E+02  0.11093557628E+02  0.17757069246E+03  0.17866379199E+03  0.00000000000E+00 0. -1.
        -12    1    6    6    0    0 -0.19964465224E+02 -0.46092261252E+02  0.86812983275E+02  0.10029741016E+03  0.00000000000E+00 0.  1.
</event>
<event>
12    1  0.8500177E-002  0.1846360E+03  0.7818608E-02  0.1163721E+00
         21   -1    0    0  501  502  0.00000000000E+00  0.00000000000E+00  0.11672821384E+02  0.11672821384E+02  0.00000000000E+00 0.  1.
         21   -1    0    0  502  503 -0.00000000000E+00 -0.00000000000E+00 -0.30443227660E+04  0.30443227660E+04  0.00000000000E+00 0.  1.
         -6    2    1    2    0  503  0.64804214144E+02 -0.75497106786E+01 -0.11760909153E+04  0.11902780602E+04  0.17121750847E+03 0.  0.
        -24    2    3    3    0    0  0.89826328065E+02  0.44130202049E+01 -0.11293155374E+04  0.11356956537E+04  0.79767104426E+02 0.  0.
          6    2    1    2  501    0 -0.64804214144E+02  0.75497106786E+01 -0.18565590294E+04  0.18657175273E+04  0.17272486114E+03 0.  0.
         24    2    5    5    0    0 -0.60580641131E+02 -0.54193340098E+02 -0.14419685764E+04  0.14465071069E+04  0.80638096589E+02 0.  0.
          5    1    5    5  501    0 -0.42235730134E+01  0.61743050776E+02 -0.41459045295E+03  0.41921042039E+03  0.47000000000E+01 0. -1.
        -13    1    6    6    0    0 -0.24902142441E+02 -0.68844950887E+02 -0.78467097921E+03  0.78807886000E+03  0.00000000000E+00 0.  1.
         14    1    6    6    0    0 -0.35678498689E+02  0.14651610789E+02 -0.65729759722E+03  0.65842824687E+03  0.00000000000E+00 0. -1.
         -5    1    3    3    0  503 -0.25022113921E+02 -0.11962730884E+02 -0.46775377862E+02  0.54582406409E+02  0.47000000000E+01 0.  1.
         13    1    4    4    0    0  0.53625931990E+02  0.39042633700E+02 -0.77855702313E+03  0.78137769746E+03  0.00000000000E+00 0. -1.
        -14    1    4    4    0    0  0.36200396075E+02 -0.34629613495E+02 -0.35075851428E+03  0.35431795629E+03  0.00000000000E+00 0.  1.
</event>
<event>
12    1  0.8500177E-002  0.1775527E+03  0.7818608E-02  0.1172464E+00
         21   -1    0    0  503  502  0.00000000000E+00  0.00000000000E+00  0.21230028762E+03  0.21230028762E+03  0.00000000000E+00 0. -1.
         21   -1    0    0  501  503 -0.00000000000E+00 -0.00000000000E+00 -0.14228147605E+03  0.14228147605E+03  0.00000000000E+00 0.  1.
          6    2    1    2  501    0  0.38053638228E+02 -0.48370027807E+01  0.17865375699E+02  0.16952784152E+03  0.16416163201E+03 0.  0.
         24    2    3    3    0    0  0.62080381447E+02  0.18149278599E+02 -0.35192502904E+02  0.10673546934E+03  0.77269515859E+02 0.  0.
         -6    2    1    2    0  502 -0.38053638228E+02  0.48370027807E+01  0.52153435871E+02  0.18505392215E+03  0.17335944524E+03 0.  0.
        -24    2    5    5    0    0 -0.58614883728E+02 -0.53914900079E+02  0.45826813325E+02  0.12231105755E+03  0.80730272722E+02 0.  0.
          5    1    3    3  501    0 -0.24026743219E+02 -0.22986281380E+02  0.53057878603E+02  0.62792372174E+02  0.47000000000E+01 0. -1.
        -11    1    4    4    0    0  0.41518269165E+02  0.23536155545E+02 -0.58296785567E+02  0.75340775810E+02  0.00000000000E+00 0.  1.
         12    1    4    4    0    0  0.20562112282E+02 -0.53868769463E+01  0.23104282662E+02  0.31394693534E+02  0.00000000000E+00 0. -1.
         -5    1    5    5    0  502  0.20561245500E+02  0.58751902860E+02  0.63266225459E+01  0.62742864607E+02  0.47000000000E+01 0.  1.
         13    1    6    6    0    0  0.50743496981E+01  0.17186268095E+01  0.36886785010E+02  0.37273819382E+02  0.00000000000E+00 0. -1.
        -14    1    6    6    0    0 -0.63689233426E+02 -0.55633526889E+02  0.89400283152E+01  0.85037238165E+02  0.00000000000E+00 0.  1.
</event>
<event>
12    1  0.8500177E-002  0.1791049E+03  0.7818608E-02  0.1169019E+00
         21   -1    0    0  501  502  0.00000000000E+00  0.00000000000E+00  0.98040515565E+02  0.98040515565E+02  0.00000000000E+00 0.  1.
         21   -1    0    0  502  503 -0.00000000000E+00 -0.00000000000E+00 -0.33742033950E+03  0.33742033950E+03  0.00000000000E+00 0.  1.
         -6    2    1    2    0  503 -0.43372390461E+02  0.17818009808E+02 -0.16257089509E+03  0.24188394947E+03  0.17285804394E+03 0.  0.
        -24    2    3    3    0    0 -0.68612384219E+02  0.60252764965E+02 -0.14515660540E+03  0.18931862616E+03  0.80206278823E+02 0.  0.
          6    2    1    2  501    0  0.43372390461E+02 -0.17818009808E+02 -0.76808928842E+02  0.19357690559E+03  0.17138775073E+03 0.  0.
         24    2    5    5    0    0  0.54384013478E+02  0.37463106119E+01  0.16423720586E+02  0.97136806691E+02  0.78703016785E+02 0.  0.
          5    1    5    5  501    0 -0.11011623017E+02 -0.21564320419E+02 -0.93232649428E+02  0.96440098901E+02  0.47000000000E+01 0. -1.
        -11    1    6    6    0    0  0.74458749487E+01 -0.19945519512E+02  0.35341354049E+02  0.41258648892E+02  0.00000000000E+00 0.  1.
         12    1    6    6    0    0  0.46938138529E+02  0.23691830124E+02 -0.18917633463E+02  0.55878157799E+02  0.00000000000E+00 0. -1.
         -5    1    3    3    0  503  0.25239993759E+02 -0.42434755157E+02 -0.17414289689E+02  0.52565323318E+02  0.47000000000E+01 0.  1.
         13    1    4    4    0    0 -0.46987677009E+02  0.42778834559E+02 -0.28942288332E+02  0.69824970682E+02  0.00000000000E+00 0. -1.
        -14    1    4    4    0    0 -0.21624707211E+02  0.17473930406E+02 -0.11621431707E+03  0.11949365547E+03  0.00000000000E+00 0.  1.
</event>
<event>
12    1  0.8500177E-002  0.2269517E+03  0.7818608E-02  0.1128823E+00
         21   -1    0    0  503  502  0.00000000000E+00  0.00000000000E+00  0.46980278546E+02  0.46980278546E+02  0.00000000000E+00 0.  1.
         21   -1    0    0  501  503 -0.00000000000E+00 -0.00000000000E+00 -0.14320306576E+04  0.14320306576E+04  0.00000000000E+00 0.  1.
          6    2    1    2  501    0  0.80123714022E+02  0.12492960731E+03 -0.10509499346E+04  0.10751757280E+04  0.17169701431E+03 0.  0.
         24    2    3    3    0    0  0.50211340763E+02 -0.31481239562E+01 -0.39435006637E+03  0.40551601421E+03  0.80001084424E+02 0.  0.
         -6    2    1    2    0  502 -0.80123714022E+02 -0.12492960731E+03 -0.33410044449E+03  0.40383520818E+03  0.17155917936E+03 0.  0.
        -24    2    5    5    0    0 -0.82302875386E+01 -0.13192415560E+03 -0.22910260448E+03  0.27630393796E+03  0.79900827815E+02 0.  0.
          5    1    3    3  501    0  0.29912373259E+02  0.12807773127E+03 -0.65659986823E+03  0.66965971379E+03  0.47000000000E+01 0. -1.
        -11    1    4    4    0    0  0.25773737251E+01  0.31112611734E+02 -0.82824612420E+02  0.88513015352E+02  0.00000000000E+00 0.  1.
         12    1    4    4    0    0  0.47633967038E+02 -0.34260735691E+02 -0.31152545395E+03  0.31700299886E+03  0.00000000000E+00 0. -1.
         -5    1    5    5    0  502 -0.71893426483E+02  0.69945482902E+01 -0.10499784001E+03  0.12753127022E+03  0.47000000000E+01 0.  1.
         11    1    6    6    0    0  0.13044668436E+02  0.56090749397E+01 -0.12912029209E+02  0.19192331660E+02  0.00000000000E+00 0. -1.
        -12    1    6    6    0    0 -0.21274955974E+02 -0.13753323054E+03 -0.21619057527E+03  0.25711160630E+03  0.00000000000E+00 0.  1.
</event>
<event>
12    1  0.8500177E-002  0.1963069E+03  0.7818608E-02  0.1153739E+00
         21   -1    0    0  503  502  0.00000000000E+00  0.00000000000E+00  0.79643702132E+02  0.79643702132E+02  0.00000000000E+00 0.  1.
         21   -1    0    0  501  503 -0.00000000000E+00 -0.00000000000E+00 -0.51784860296E+03  0.51784860296E+03  0.00000000000E+00 0. -1.
          6    2    1    2  501    0 -0.85086265566E+02 -0.39064191782E+02 -0.13053061371E+03  0.23252675775E+03  0.16812129040E+03 0.  0.
         24    2    3    3    0    0  0.16693947510E+02 -0.12587653099E+01 -0.42206171633E+02  0.92484767213E+02  0.80571700174E+02 0.  0.
         -6    2    1    2    0  502  0.85086265566E+02  0.39064191782E+02 -0.30767428712E+03  0.36496554734E+03  0.17254187934E+03 0.  0.
        -24    2    5    5    0    0 -0.99578503792E+01  0.40368809646E+02 -0.93798530341E+02  0.13087151636E+03  0.81242783833E+02 0.  0.
          5    1    3    3  501    0 -0.10178021308E+03 -0.37805426472E+02 -0.88324442075E+02  0.14004199053E+03  0.47000000000E+01 0. -1.
        -13    1    4    4    0    0  0.13078681137E+02  0.11753635113E+02  0.21264546121E+02  0.27593128862E+02  0.00000000000E+00 0.  1.
         14    1    4    4    0    0  0.36152663728E+01 -0.13012400423E+02 -0.63470717753E+02  0.64891638351E+02  0.00000000000E+00 0. -1.
         -5    1    5    5    0  502  0.95044115946E+02 -0.13046178649E+01 -0.21387575678E+03  0.23409403098E+03  0.47000000000E+01 0.  1.
         13    1    6    6    0    0  0.35314932003E+02  0.16453015892E+02 -0.50737116907E+02  0.63969533267E+02  0.00000000000E+00 0. -1.
        -14    1    6    6    0    0 -0.45272782382E+02  0.23915793754E+02 -0.43061413434E+02  0.66901983098E+02  0.00000000000E+00 0.  1.
</event>
<event>
12    1  0.8500177E-002  0.2325993E+03  0.7818608E-02  0.1124908E+00
         21   -1    0    0  501  502  0.00000000000E+00  0.00000000000E+00  0.64965817151E+03  0.64965817151E+03  0.00000000000E+00 0.  1.
         21   -1    0    0  502  503 -0.00000000000E+00 -0.00000000000E+00 -0.97601449172E+02  0.97601449172E+02  0.00000000000E+00 0.  1.
         -6    2    1    2    0  503  0.15548605020E+03 -0.64051653769E+00  0.41977701961E+03  0.47967716985E+03  0.17234012596E+03 0.  0.
        -24    2    3    3    0    0  0.67757831037E+02  0.31225008439E+02  0.10439341399E+03  0.15073863332E+03  0.79107685297E+02 0.  0.
          6    2    1    2  501    0 -0.15548605020E+03  0.64051653769E+00  0.13227970273E+03  0.26758245083E+03  0.17299169394E+03 0.  0.
         24    2    5    5    0    0 -0.87956550692E+02  0.64306906337E+02  0.48209259760E+02  0.14226855745E+03  0.77746232706E+02 0.  0.
          5    1    5    5  501    0 -0.67529499503E+02 -0.63666389799E+02  0.84070442969E+02  0.12531389338E+03  0.47000000000E+01 0. -1.
        -11    1    6    6    0    0 -0.82943914495E+02  0.15531192228E+02  0.35966817232E+02  0.91730708193E+02  0.00000000000E+00 0.  1.
         12    1    6    6    0    0 -0.50126361974E+01  0.48775714109E+02  0.12242442528E+02  0.50537849257E+02  0.00000000000E+00 0. -1.
         -5    1    3    3    0  503  0.87728219159E+02 -0.31865524976E+02  0.31538360562E+03  0.32893853653E+03  0.47000000000E+01 0.  1.
         13    1    4    4    0    0  0.72252433469E+02  0.34862213568E+02  0.11407658014E+03  0.13946058301E+03  0.00000000000E+00 0. -1.
        -14    1    4    4    0    0 -0.44946024320E+01 -0.36372051295E+01 -0.96831661506E+01  0.11278050314E+02  0.00000000000E+00 0.  1.
</event>
<event>
12    1  0.8500177E-002  0.1902945E+03  0.7818608E-02  0.1158925E+00
         21   -1    0    0  501  502  0.00000000000E+00  0.00000000000E+00  0.11263494915E+03  0.11263494915E+03  0.00000000000E+00 0.  1.
         21   -1    0    0  502  503 -0.00000000000E+00 -0.00000000000E+00 -0.31844451093E+03  0.31844451093E+03  0.00000000000E+00 0.  1.
         -6    2    1    2    0  503 -0.55371917128E+02  0.57845056816E+02 -0.12228503930E+03  0.22619824270E+03  0.17262651696E+03 0.  0.
        -24    2    3    3    0    0 -0.58045422373E+02  0.22603236611E+00 -0.11362775908E+02  0.10108654011E+03  0.81975934061E+02 0.  0.
          6    2    1    2  501    0  0.55371917128E+02 -0.57845056816E+02 -0.83524522479E+02  0.20488121738E+03  0.16907947118E+03 0.  0.
         24    2    5    5    0    0  0.53946390077E+02 -0.43283487829E+02 -0.12350073198E+03  0.16205297034E+03  0.78899056245E+02 0.  0.
          5    1    5    5  501    0  0.14255270508E+01 -0.14561568987E+02  0.39976209497E+02  0.42828247040E+02  0.47000000000E+01 0. -1.
        -13    1    6    6    0    0  0.63966492260E+02 -0.86027398759E+01 -0.99857856073E+02  0.11890042340E+03  0.00000000000E+00 0.  1.
         14    1    6    6    0    0 -0.10020102183E+02 -0.34680747953E+02 -0.23642875903E+02  0.43152546939E+02  0.00000000000E+00 0. -1.
         -5    1    3    3    0  503  0.26735052449E+01  0.57619024450E+02 -0.11092226339E+03  0.12511170259E+03  0.47000000000E+01 0.  1.
         11    1    4    4    0    0 -0.15743737661E+02  0.34872261424E+02  0.14090437824E+02  0.40773524871E+02  0.00000000000E+00 0. -1.
        -12    1    4    4    0    0 -0.42301684712E+02 -0.34646229058E+02 -0.25453213732E+02  0.60313015235E+02  0.00000000000E+00 0.  1.
</event>
<event>
12    1  0.8500177E-002  0.1781757E+03  0.7818608E-02  0.1169797E+00
         21   -1    0    0  501  502  0.00000000000E+00  0.00000000000E+00  0.92760590176E+02  0.92760590176E+02  0.00000000000E+00 0. -1.
         21   -1    0    0  502  503 -0.00000000000E+00 -0.00000000000E+00 -0.36196088253E+03  0.36196088253E+03  0.00000000000E+00 0. -1.
         -6    2    1    2    0  503 -0.28180260350E+02  0.33712236692E+02 -0.18957912961E+03  0.25956480816E+03  0.17176437721E+03 0.  0.
        -24    2    3    3    0    0  0.42201520146E+02  0.51921998515E+02 -0.12023139388E+03  0.15898454717E+03  0.79646945530E+02 0.  0.
          6    2    1    2  501    0  0.28180260350E+02 -0.33712236692E+02 -0.79621162752E+02  0.19515666454E+03  0.17267296309E+03 0.  0.
         24    2    5    5    0    0  0.30596288402E+02 -0.15917356454E+02  0.22666984557E+02  0.91197778276E+02  0.81324949881E+02 0.  0.
          5    1    5    5  501    0 -0.24160280523E+01 -0.17794880238E+02 -0.10228814731E+03  0.10395888627E+03  0.47000000000E+01 0. -1.
        -13    1    6    6    0    0  0.32111519310E+02 -0.31692104076E+02  0.45059827361E+02  0.63764623224E+02  0.00000000000E+00 0.  1.
         14    1    6    6    0    0 -0.15152309079E+01  0.15774747622E+02 -0.22392842804E+02  0.27433155052E+02  0.00000000000E+00 0. -1.
         -5    1    3    3    0  503 -0.70381780496E+02 -0.18209761823E+02 -0.69347735727E+02  0.10058026099E+03  0.47000000000E+01 0.  1.
         11    1    4    4    0    0  0.13748960183E+02  0.33876515261E+02 -0.26331743289E+01  0.36654956000E+02  0.00000000000E+00 0. -1.
        -12    1    4    4    0    0  0.28452559963E+02  0.18045483254E+02 -0.11759821955E+03  0.12232959117E+03  0.00000000000E+00 0.  1.
</event>
<event>
12    1  0.8500177E-002  0.1983764E+03  0.7818608E-02  0.1151804E+00
         21   -1    0    0  501  502  0.00000000000E+00  0.00000000000E+00  0.35601631635E+03  0.35601631635E+03  0.00000000000E+00 0.  1.
         21   -1    0    0  502  503 -0.00000000000E+00 -0.00000000000E+00 -0.11440537708E+03  0.11440537708E+03  0.00000000000E+00 0.  1.
         -6    2    1    2    0  503 -0.92277381121E+01  0.98209947330E+02  0.17210496897E+03  0.26022114076E+03  0.16841786381E+03 0.  0.
        -24    2    3    3    0    0 -0.34667862192E+02 -0.30031352548E+01  0.36612883462E+02  0.89132031717E+02  0.73437976226E+02 0.  0.
          6    2    1    2  501    0  0.92277381121E+01 -0.98209947330E+02  0.69505970309E+02  0.21020055266E+03  0.17211289181E+03 0.  0.
         24    2    5    5    0    0 -0.41797711982E+02 -0.11356990886E+03  0.47214574821E+02  0.15224780218E+03  0.79404057003E+02 0.  0.
          5    1    5    5  501    0  0.51025450094E+02  0.15359961530E+02  0.22291395487E+02  0.57952750481E+02  0.47000000000E+01 0. -1.
        -13    1    6    6    0    0 -0.35804296120E+02 -0.11456677364E+02 -0.40884610832E+01  0.37814264384E+02  0.00000000000E+00 0.  1.
         14    1    6    6    0    0 -0.59934158623E+01 -0.10211323150E+03  0.51303035905E+02  0.11443353780E+03  0.00000000000E+00 0. -1.
         -5    1    3    3    0  503  0.25440124080E+02  0.10121308258E+03  0.13549208550E+03  0.17108910904E+03  0.47000000000E+01 0.  1.
         11    1    4    4    0    0 -0.35625719164E+02  0.85160813411E+01 -0.12479700281E+02  0.38697007978E+02  0.00000000000E+00 0. -1.
        -12    1    4    4    0    0  0.95785697224E+00 -0.11519216596E+02  0.49092583743E+02  0.50435023738E+02  0.00000000000E+00 0.  1.
</event>
<event>
12    1  0.8500177E-002  0.2147210E+03  0.7818608E-02  0.1138413E+00
         21   -1    0    0  503  502  0.00000000000E+00  0.00000000000E+00  0.74221857364E+03  0.74221857364E+03  0.00000000000E+00 0.  1.
         21   -1    0    0  501  503 -0.00000000000E+00 -0.00000000000E+00 -0.12923211020E+03  0.12923211020E+03  0.00000000000E+00 0. -1.
          6    2    1    2  501    0 -0.35882410138E+02 -0.12351982529E+03 -0.10290389662E+02  0.21222451647E+03  0.16848934291E+03 0.  0.
         24    2    3    3    0    0  0.59646472234E+01  0.28519436658E+01 -0.17050926840E+00  0.78637458051E+02  0.78358854867E+02 0.  0.
         -6    2    1    2    0  502  0.35882410138E+02  0.12351982529E+03  0.62327685310E+03  0.65922616737E+03  0.17193140939E+03 0.  0.
        -24    2    5    5    0    0 -0.54326961431E+01  0.88586192880E+02  0.57212703116E+03  0.58462260871E+03  0.81100105253E+02 0.  0.
          5    1    3    3  501    0 -0.41847057362E+02 -0.12637176895E+03 -0.10119880394E+02  0.13358705842E+03  0.47000000000E+01 0. -1.
        -13    1    4    4    0    0 -0.25813706402E+02  0.27297337258E+02  0.60851932723E+01  0.38059448719E+02  0.00000000000E+00 0.  1.
         14    1    4    4    0    0  0.31778353626E+02 -0.24445393592E+02 -0.62557025407E+01  0.40578009332E+02  0.00000000000E+00 0. -1.
         -5    1    5    5    0  502  0.41315106281E+02  0.34933632406E+02  0.51149821945E+02  0.74603558662E+02  0.47000000000E+01 0.  1.
         11    1    6    6    0    0 -0.37791998148E+02  0.16566172853E+02  0.19930477579E+03  0.20353148862E+03  0.00000000000E+00 0. -1.
        -12    1    6    6    0    0  0.32359302005E+02  0.72020020027E+02  0.37282225537E+03  0.38109112009E+03  0.00000000000E+00 0.  1.
</event>
<event>
12    1  0.8500177E-002  0.2119741E+03  0.7818608E-02  0.1141435E+00
         21   -1    0    0  503  502  0.00000000000E+00  0.00000000000E+00  0.46096339194E+02  0.46096339194E+02  0.00000000000E+00 0.  1.
         21   -1    0    0  501  503 -0.00000000000E+00 -0.00000000000E+00 -0.99443640143E+03  0.99443640143E+03  0.00000000000E+00 0.  1.
          6    2    1    2  501    0 -0.11040181331E+03 -0.69598415846E+01 -0.60109843510E+03  0.63737928046E+03  0.18082040454E+03 0.  0.
         24    2    3    3    0    0 -0.13609880891E+03 -0.18662565380E+02 -0.36022478132E+03  0.39481074084E+03  0.85102590268E+02 0.  0.
         -6    2    1    2    0  502  0.11040181331E+03  0.69598415846E+01 -0.34724162714E+03  0.40315346017E+03  0.17239189381E+03 0.  0.
        -24    2    5    5    0    0  0.10912491800E+02  0.35401925470E+02 -0.89472310705E+02  0.12535103447E+03  0.79594023994E+02 0.  0.
          5    1    3    3  501    0  0.25696995604E+02  0.11702723795E+02 -0.24087365378E+03  0.24256853962E+03  0.47000000000E+01 0. -1.
        -13    1    4    4    0    0 -0.10212896504E+03 -0.36533898997E+02 -0.32533260733E+03  0.34293783208E+03  0.00000000000E+00 0.  1.
         14    1    4    4    0    0 -0.33969843870E+02  0.17871333617E+02 -0.34892173992E+02  0.51872908765E+02  0.00000000000E+00 0. -1.
         -5    1    5    5    0  502  0.99489321509E+02 -0.28442083885E+02 -0.25776931643E+03  0.27780242570E+03  0.47000000000E+01 0.  1.
         11    1    6    6    0    0 -0.24840635053E+02  0.15182336951E+02 -0.25644431919E+01  0.29225620165E+02  0.00000000000E+00 0. -1.
        -12    1    6    6    0    0  0.35753126854E+02  0.20219588519E+02 -0.86907867513E+02  0.96125414306E+02  0.00000000000E+00 0.  1.
</event>
<event>
12    1  0.8500177E-002  0.5235400E+03  0.7818608E-02  0.1007875E+00
         21   -1    0    0  501  502  0.00000000000E+00  0.00000000000E+00  0.11231822905E+04  0.11231822905E+04  0.00000000000E+00 0. -1.
         21   -1    0    0  502  503 -0.00000000000E+00 -0.00000000000E+00 -0.24522226281E+03  0.24522226281E+03  0.00000000000E+00 0.  1.
         -6    2    1    2    0  503  0.45340358223E+03 -0.19670703369E+03  0.49507449170E+03  0.71979417023E+03  0.16951822819E+03 0.  0.
        -24    2    3    3    0    0  0.22714752756E+03 -0.31613067869E+02  0.22317650319E+03  0.32941176030E+03  0.78159906056E+02 0.  0.
          6    2    1    2  501    0 -0.45340358223E+03  0.19670703369E+03  0.38288553595E+03  0.64861038304E+03  0.17270098398E+03 0.  0.
         24    2    5    5    0    0 -0.15316116954E+03  0.12940449467E+03  0.15929649300E+03  0.26822993104E+03  0.79800101065E+02 0.  0.
          5    1    5    5  501    0 -0.30024241269E+03  0.67302539027E+02  0.22358904295E+03  0.38038045200E+03  0.47000000000E+01 0. -1.
        -11    1    6    6    0    0 -0.88223820382E+02  0.30593520999E+02  0.44530753712E+02  0.10345237569E+03  0.00000000000E+00 0.  1.
         12    1    6    6    0    0 -0.64937349154E+02  0.98810973667E+02  0.11476573929E+03  0.16477755535E+03  0.00000000000E+00 0. -1.
         -5    1    3    3    0  503  0.22625605467E+03 -0.16509396582E+03  0.27189798852E+03  0.39038240993E+03  0.47000000000E+01 0.  1.
         13    1    4    4    0    0  0.11102107610E+03 -0.33012328822E+02  0.15903129573E+03  0.19673953902E+03  0.00000000000E+00 0. -1.
        -14    1    4    4    0    0  0.11612645147E+03  0.13992609525E+01  0.64145207457E+02  0.13267222129E+03  0.00000000000E+00 0.  1.
</event>
<event>
12    1  0.8500177E-002  0.1862173E+03  0.7818608E-02  0.1163130E+00
         21   -1    0    0  501  502  0.00000000000E+00  0.00000000000E+00  0.33628968643E+03  0.33628968643E+03  0.00000000000E+00 0.  1.
         21   -1    0    0  502  503 -0.00000000000E+00 -0.00000000000E+00 -0.15353179212E+03  0.15353179212E+03  0.00000000000E+00 0.  1.
         -6    2    1    2    0  503  0.41533827640E+01  0.62278043713E+02 -0.53686807629E+02  0.18885144310E+03  0.16996113947E+03 0.  0.
        -24    2    3    3    0    0  0.26752482361E+02  0.27032653588E+01 -0.83318926786E+02  0.11842399103E+03  0.79744561793E+02 0.  0.
          6    2    1    2  501    0 -0.41533827640E+01 -0.62278043713E+02  0.23644470195E+03  0.30097003545E+03  0.17544531867E+03 0.  0.
         24    2    5    5    0    0 -0.62726836558E+02 -0.75329422286E+02  0.15642246064E+03  0.20083593998E+03  0.79106957402E+02 0.  0.
          5    1    5    5  501    0  0.58573453794E+02  0.13051378573E+02  0.80022241306E+02  0.10013409547E+03  0.47000000000E+01 0. -1.
        -11    1    6    6    0    0 -0.61842035178E+01 -0.68763880563E+02  0.85405923483E+02  0.10982207159E+03  0.00000000000E+00 0.  1.
         12    1    6    6    0    0 -0.56542633040E+02 -0.65655417234E+01  0.71016537158E+02  0.91013868389E+02  0.00000000000E+00 0. -1.
         -5    1    3    3    0  503 -0.22599099597E+02  0.59574778355E+02  0.29632119158E+02  0.70427452065E+02  0.47000000000E+01 0.  1.
         13    1    4    4    0    0  0.18579354869E+02 -0.95272572938E+01  0.10560975577E+02  0.23398616712E+02  0.00000000000E+00 0. -1.
        -14    1    4    4    0    0  0.81731274920E+01  0.12230522653E+02 -0.93879902363E+02  0.95025374322E+02  0.00000000000E+00 0.  1.
</event>
<event>
12    1  0.8500177E-002  0.2786422E+03  0.7818608E-02  0.1096454E+00
         21   -1    0    0  503  502  0.00000000000E+00  0.00000000000E+00  0.14229687248E+03  0.14229687248E+03  0.00000000000E+00 0. -1.
         21   -1    0    0  501  503 -0.00000000000E+00 -0.00000000000E+00 -0.58173771249E+03  0.58173771249E+03  0.00000000000E+00 0. -1.
          6    2    1    2  501    0  0.47553616106E+02  0.21420831706E+03 -0.12909649356E+03  0.30695533954E+03  0.17149089282E+03 0.  0.
         24    2    3    3    0    0  0.49046392358E+01  0.18917467725E+03 -0.14864265915E+03  0.25357218734E+03  0.79956863809E+02 0.  0.
         -6    2    1    2    0  502 -0.47553616106E+02 -0.21420831706E+03 -0.31034434644E+03  0.41707924543E+03  0.17174089233E+03 0.  0.
        -24    2    5    5    0    0 -0.29978750879E+02 -0.84169332253E+02 -0.59421063395E+02  0.13387684884E+03  0.80055892256E+02 0.  0.
          5    1    3    3  501    0  0.42648976871E+02  0.25033639809E+02  0.19546165589E+02  0.53383152206E+02  0.47000000000E+01 0. -1.
        -11    1    4    4    0    0  0.26837440559E+02  0.14945152895E+03 -0.14165997676E+03  0.20766212157E+03  0.00000000000E+00 0.  1.
         12    1    4    4    0    0 -0.21932801323E+02  0.39723148304E+02 -0.69826823980E+01  0.45910065765E+02  0.00000000000E+00 0. -1.
         -5    1    5    5    0  502 -0.17574865227E+02 -0.13003898481E+03 -0.25092328305E+03  0.28320239659E+03  0.47000000000E+01 0.  1.
         11    1    6    6    0    0 -0.52574069296E+02 -0.59511069059E+02 -0.61394199011E+02  0.10037354121E+03  0.00000000000E+00 0. -1.
        -12    1    6    6    0    0  0.22595318417E+02 -0.24658263193E+02  0.19731356165E+01  0.33503307632E+02  0.00000000000E+00 0.  1.
</event>
<event>
12    1  0.8500177E-002  0.1960810E+03  0.7818608E-02  0.1153230E+00
         21   -1    0    0  503  502  0.00000000000E+00  0.00000000000E+00  0.33900534508E+03  0.33900534508E+03  0.00000000000E+00 0. -1.
         21   -1    0    0  501  503 -0.00000000000E+00 -0.00000000000E+00 -0.11869870355E+03  0.11869870355E+03  0.00000000000E+00 0. -1.
          6    2    1    2  501    0 -0.89184750715E+02  0.23405256644E+02  0.60341657482E+02  0.20515575810E+03  0.17304925210E+03 0.  0.
         24    2    3    3    0    0 -0.36778285733E+02  0.56249364966E+02  0.88388267996E+02  0.13708318370E+03  0.80390795329E+02 0.  0.
         -6    2    1    2    0  502  0.89184750715E+02 -0.23405256644E+02  0.15996498405E+03  0.25254829053E+03  0.17230820389E+03 0.  0.
        -24    2    5    5    0    0  0.38845442701E+02 -0.91340332776E+01  0.34635151099E+01  0.87464937254E+02  0.77754230299E+02 0.  0.
          5    1    3    3  501    0 -0.52406464982E+02 -0.32844108322E+02 -0.28046610514E+02  0.68072574395E+02  0.47000000000E+01 0. -1.
        -11    1    4    4    0    0 -0.46520196763E+02  0.31306540520E+02  0.94252174614E+02  0.10967087401E+03  0.00000000000E+00 0.  1.
         12    1    4    4    0    0  0.97419110308E+01  0.24942824446E+02 -0.58639066174E+01  0.27412309693E+02  0.00000000000E+00 0. -1.
         -5    1    5    5    0  502  0.50339308014E+02 -0.14271223367E+02  0.15650146894E+03  0.16508335327E+03  0.47000000000E+01 0.  1.
         13    1    6    6    0    0  0.14197605394E+02  0.14485637767E+02  0.35347229963E+02  0.40753311110E+02  0.00000000000E+00 0. -1.
        -14    1    6    6    0    0  0.24647837307E+02 -0.23619671044E+02 -0.31883714853E+02  0.46711626144E+02  0.00000000000E+00 0.  1.
</event>
<event>
12    1  0.8500177E-002  0.2814819E+03  0.7818608E-02  0.1095034E+00
         21   -1    0    0  503  502  0.00000000000E+00  0.00000000000E+00  0.15675408189E+03  0.15675408189E+03  0.00000000000E+00 0. -1.
         21   -1    0    0  501  503 -0.00000000000E+00 -0.00000000000E+00 -0.11396724021E+04  0.11396724021E+04  0.00000000000E+00 0.  1.
          6    2    1    2  501    0 -0.77139203677E+02  0.20637677579E+03 -0.97620646529E+03  0.10159779218E+04  0.17518631319E+03 0.  0.
         24    2    3    3    0    0 -0.69128621996E+02  0.11317832479E+03 -0.81412412550E+03  0.82878044433E+03  0.80565709874E+02 0.  0.
         -6    2    1    2    0  502  0.77139203677E+02 -0.20637677579E+03 -0.67118548926E+01  0.28044856219E+03  0.17339122443E+03 0.  0.
        -24    2    5    5    0    0 -0.64235648759E+00 -0.17528272797E+03  0.16029020445E+02  0.19352302899E+03  0.80434979366E+02 0.  0.
          5    1    3    3  501    0 -0.80105816804E+01  0.93198451005E+02 -0.16208233979E+03  0.18719747744E+03  0.47000000000E+01 0. -1.
        -13    1    4    4    0    0 -0.16100189631E+02  0.13359007065E+02 -0.36682621262E+03  0.36742230395E+03  0.00000000000E+00 0.  1.
         14    1    4    4    0    0 -0.53028432366E+02  0.99819317724E+02 -0.44729791288E+03  0.46135814038E+03  0.00000000000E+00 0. -1.
         -5    1    5    5    0  502  0.77781560164E+02 -0.31094047821E+02 -0.22740875337E+02  0.86925533203E+02  0.47000000000E+01 0.  1.
         11    1    6    6    0    0 -0.39025438045E+02 -0.75259970096E+02  0.16602857285E+02  0.86386936417E+02  0.00000000000E+00 0. -1.
        -12    1    6    6    0    0  0.38383081558E+02 -0.10002275788E+03 -0.57383683995E+00  0.10713609257E+03  0.00000000000E+00 0.  1.
</event>
<event>
12    1  0.8500177E-002  0.2955266E+03  0.7818608E-02  0.1087618E+00
         21   -1    0    0  503  502  0.00000000000E+00  0.00000000000E+00  0.59935485875E+03  0.59935485875E+03  0.00000000000E+00 0.  1.
         21   -1    0    0  501  503 -0.00000000000E+00 -0.00000000000E+00 -0.21506969323E+03  0.21506969323E+03  0.00000000000E+00 0.  1.
          6    2    1    2  501    0 -0.15622448985E+03 -0.18167580673E+03 -0.39658738904E+02  0.29817576365E+03  0.17298491402E+03 0.  0.
         24    2    3    3    0    0 -0.17759882795E+03 -0.12891013058E+03 -0.99210909331E+01  0.23377470298E+03  0.79956352158E+02 0.  0.
         -6    2    1    2    0  502  0.15622448985E+03  0.18167580673E+03  0.42394390443E+03  0.51624878833E+03  0.17138315953E+03 0.  0.
        -24    2    5    5    0    0  0.44298361022E+02  0.52607917760E+02  0.14663956053E+03  0.19050998588E+03  0.10030431799E+03 0.  0.
          5    1    3    3  501    0  0.21374338105E+02 -0.52765676152E+02 -0.29737647971E+02  0.64401060675E+02  0.47000000000E+01 0. -1.
        -13    1    4    4    0    0 -0.14955917714E+03 -0.13511729941E+03  0.45699005552E+01  0.20160733136E+03  0.00000000000E+00 0.  1.
         14    1    4    4    0    0 -0.28039650813E+02  0.62071688283E+01 -0.14490991488E+02  0.32167371619E+02  0.00000000000E+00 0. -1.
         -5    1    5    5    0  502  0.11192612882E+03  0.12906788897E+03  0.27730434390E+03  0.32573880245E+03  0.47000000000E+01 0.  1.
         13    1    6    6    0    0  0.31629586593E+02  0.15763733838E+02 -0.33915189465E+01  0.35502513338E+02  0.00000000000E+00 0. -1.
        -14    1    6    6    0    0  0.12668774429E+02  0.36844183923E+02  0.15003107947E+03  0.15500747254E+03  0.00000000000E+00 0.  1.
</event>
<event>
12    1  0.8500177E-002  0.3197486E+03  0.7818608E-02  0.1075812E+00
         21   -1    0    0  501  502  0.00000000000E+00  0.00000000000E+00  0.72656772597E+02  0.72656772597E+02  0.00000000000E+00 0.  1.
         21   -1    0    0  502  503 -0.00000000000E+00 -0.00000000000E+00 -0.26284632947E+04  0.26284632947E+04  0.00000000000E+00 0. -1.
         -6    2    1    2    0  503  0.26883049734E+03 -0.31697163311E+01 -0.35617785946E+03  0.47837279804E+03  0.17233102719E+03 0.  0.
        -24    2    3    3    0    0  0.11031281854E+03  0.11984628349E+02 -0.25567921996E+03  0.29001257082E+03  0.80142862849E+02 0.  0.
          6    2    1    2  501    0 -0.26883049734E+03  0.31697163311E+01 -0.21996286626E+04  0.22227472692E+04  0.17308750984E+03 0.  0.
         24    2    5    5    0    0 -0.25032638777E+03 -0.45297664465E+02 -0.19025486218E+04  0.19211347202E+04  0.79700540014E+02 0.  0.
          5    1    5    5  501    0 -0.18504109578E+02  0.48467380796E+02 -0.29708004078E+03  0.30161254898E+03  0.47000000000E+01 0. -1.
        -13    1    6    6    0    0 -0.56588446791E+02  0.15722022648E+02 -0.29371502848E+03  0.29952955157E+03  0.00000000000E+00 0.  1.
         14    1    6    6    0    0 -0.19373794098E+03 -0.61019687114E+02 -0.16088335934E+04  0.16216051687E+04  0.00000000000E+00 0. -1.
         -5    1    3    3    0  503  0.15851767881E+03 -0.15154344681E+02 -0.10049863951E+03  0.18836022722E+03  0.47000000000E+01 0.  1.
         11    1    4    4    0    0  0.29499991255E+02 -0.46687708660E+01 -0.16389009917E+03  0.16658934994E+03  0.00000000000E+00 0. -1.
        -12    1    4    4    0    0  0.80812827283E+02  0.16653399215E+02 -0.91789120781E+02  0.12342322088E+03  0.00000000000E+00 0.  1.
</event>
<event>
12    1  0.8500177E-002  0.1928827E+03  0.7818608E-02  0.1155931E+00
         21   -1    0    0  503  502  0.00000000000E+00  0.00000000000E+00  0.72348319313E+02  0.72348319313E+02  0.00000000000E+00 0. -1.
         21   -1    0    0  501  503 -0.00000000000E+00 -0.00000000000E+00 -0.67181268708E+03  0.67181268708E+03  0.00000000000E+00 0. -1.
          6    2    1    2  501    0  0.40079309709E+02 -0.77014828955E+02 -0.48012048861E+03  0.51734235776E+03  0.17201684974E+03 0.  0.
         24    2    3    3    0    0  0.11090459148E+02 -0.72413826320E+02 -0.14234122983E+03  0.17825764807E+03  0.78409201357E+02 0.  0.
         -6    2    1    2    0  502 -0.40079309709E+02  0.77014828955E+02 -0.11934387915E+03  0.22681864863E+03  0.17223850595E+03 0.  0.
        -24    2    5    5    0    0 -0.90032457069E+02  0.32534359269E+02 -0.92252653870E+02  0.15450092189E+03  0.78712482230E+02 0.  0.
          5    1    3    3  501    0  0.28988850561E+02 -0.46010026350E+01 -0.33777925878E+03  0.33908470969E+03  0.47000000000E+01 0. -1.
        -11    1    4    4    0    0 -0.25544441513E+02 -0.33497986723E+01 -0.56818956174E+02  0.62386965178E+02  0.00000000000E+00 0.  1.
         12    1    4    4    0    0  0.36634900661E+02 -0.69064027648E+02 -0.85522273656E+02  0.11587068289E+03  0.00000000000E+00 0. -1.
         -5    1    5    5    0  502  0.49953147360E+02  0.44480469687E+02 -0.27091225280E+02  0.72317726747E+02  0.47000000000E+01 0.  1.
         11    1    6    6    0    0 -0.19948887328E+02  0.46252187832E+02 -0.24308473927E+02  0.55929642315E+02  0.00000000000E+00 0. -1.
        -12    1    6    6    0    0 -0.70083569741E+02 -0.13717828564E+02 -0.67944179943E+02  0.98571279571E+02  0.00000000000E+00 0.  1.
</event>
<event>
12    1  0.8500177E-002  0.2532711E+03  0.7818608E-02  0.1112141E+00
         21   -1    0    0  501  502  0.00000000000E+00  0.00000000000E+00  0.21860781713E+03  0.21860781713E+03  0.00000000000E+00 0.  1.
         21   -1    0    0  502  503 -0.00000000000E+00 -0.00000000000E+00 -0.51910547439E+03  0.51910547439E+03  0.00000000000E+00 0. -1.
         -6    2    1    2    0  503  0.13250084870E+03  0.11772025272E+03 -0.39598253628E+03  0.46704077047E+03  0.17294617495E+03 0.  0.
        -24    2    3    3    0    0  0.82163325384E+02  0.99615213484E+01 -0.12070171437E+03  0.16712839767E+03  0.80702871767E+02 0.  0.
          6    2    1    2  501    0 -0.13250084870E+03 -0.11772025272E+03  0.95484879013E+02  0.27067252105E+03  0.18091909442E+03 0.  0.
         24    2    5    5    0    0 -0.78177639404E+02 -0.61147375997E+02  0.13834722496E+03  0.18116960406E+03  0.61900936091E+02 0.  0.
          5    1    5    5  501    0 -0.54323209301E+02 -0.56572876727E+02 -0.42862345945E+02  0.89502916990E+02  0.47000000000E+01 0. -1.
        -11    1    6    6    0    0 -0.28677908031E+01 -0.36171708585E+02  0.31273900847E+02  0.47902751490E+02  0.00000000000E+00 0.  1.
         12    1    6    6    0    0 -0.75309848601E+02 -0.24975667412E+02  0.10707332411E+03  0.13326685257E+03  0.00000000000E+00 0. -1.
         -5    1    3    3    0  503  0.50337523321E+02  0.10775873138E+03 -0.27528082191E+03  0.29991237280E+03  0.47000000000E+01 0.  1.
         11    1    4    4    0    0  0.61045409725E+02  0.43196989168E+02 -0.91113934856E+02  0.11787396255E+03  0.00000000000E+00 0. -1.
        -12    1    4    4    0    0  0.21117915659E+02 -0.33235467820E+02 -0.29587779510E+02  0.49254435124E+02  0.00000000000E+00 0.  1.
</event>
<event>
12    1  0.8500177E-002  0.1846964E+03  0.7818608E-02  0.1165803E+00
         21   -1    0    0  503  502  0.00000000000E+00  0.00000000000E+00  0.74652876919E+03  0.74652876919E+03  0.00000000000E+00 0. -1.
         21   -1    0    0  501  503 -0.00000000000E+00 -0.00000000000E+00 -0.16554676321E+03  0.16554676321E+03  0.00000000000E+00 0. -1.
          6    2    1    2  501    0  0.22026877155E+02 -0.56948632469E+02 -0.99356576724E+02  0.20972481295E+03  0.17431132428E+03 0.  0.
         24    2    3    3    0    0 -0.42318334921E+01  0.11113672492E+02  0.61073104194E+01  0.81402099712E+02  0.80296827247E+02 0.  0.
         -6    2    1    2    0  502 -0.22026877155E+02  0.56948632469E+02  0.68033858271E+03  0.70235071945E+03  0.16342464911E+03 0.  0.
        -24    2    5    5    0    0  0.97184925114E+01 -0.26510401480E+02  0.34973800426E+03  0.35987150649E+03  0.79959859147E+02 0.  0.
          5    1    3    3  501    0  0.26258710647E+02 -0.68062304961E+02 -0.10546388714E+03  0.12832271324E+03  0.47000000000E+01 0. -1.
        -13    1    4    4    0    0 -0.33396758266E+02 -0.19316681332E+02 -0.13181551971E+01  0.38603305214E+02  0.00000000000E+00 0.  1.
         14    1    4    4    0    0  0.29164924773E+02  0.30430353824E+02  0.74254656165E+01  0.42798794498E+02  0.00000000000E+00 0. -1.
         -5    1    5    5    0  502 -0.31745369666E+02  0.83459033950E+02  0.33060057844E+03  0.34247921296E+03  0.47000000000E+01 0.  1.
         13    1    6    6    0    0 -0.14229446104E+02  0.21540218176E+02  0.18009267388E+03  0.18193358492E+03  0.00000000000E+00 0. -1.
        -14    1    6    6    0    0  0.23947938615E+02 -0.48050619656E+02  0.16964533038E+03  0.17793792157E+03  0.00000000000E+00 0.  1.
</event>
<event>
12    1  0.8500177E-002  0.1877072E+03  0.7818608E-02  0.1160759E+00
         21   -1    0    0  501  502  0.00000000000E+00  0.00000000000E+00  0.76590230388E+02  0.76590230388E+02  0.00000000000E+00 0. -1.
         21   -1    0    0  502  503 -0.00000000000E+00 -0.00000000000E+00 -0.55676539254E+03  0.55676539254E+03  0.00000000000E+00 0. -1.
         -6    2    1    2    0  503  0.50384779217E+02 -0.52431448374E+02 -0.37313840529E+03  0.41727493786E+03  0.17204191786E+03 0.  0.
        -24    2    3    3    0    0  0.79412140132E+02 -0.86378802515E+02 -0.28891957621E+03  0.32182908039E+03  0.79572922183E+02 0.  0.
          6    2    1    2  501    0 -0.50384779217E+02  0.52431448374E+02 -0.10703675686E+03  0.21608068507E+03  0.17305002857E+03 0.  0.
         24    2    5    5    0    0 -0.10074940406E+03  0.38004614311E+02 -0.91737797179E+02  0.16130042271E+03  0.77506192067E+02 0.  0.
          5    1    5    5  501    0  0.50364624845E+02  0.14426834063E+02 -0.15298959682E+02  0.54780262360E+02  0.47000000000E+01 0. -1.
        -11    1    6    6    0    0 -0.28935447930E+02  0.22589644668E+02 -0.78511217594E+02  0.86669276455E+02  0.00000000000E+00 0.  1.
         12    1    6    6    0    0 -0.71813956133E+02  0.15414969643E+02 -0.13226579586E+02  0.74631146260E+02  0.00000000000E+00 0. -1.
         -5    1    3    3    0  503 -0.29027360914E+02  0.33947354141E+02 -0.84218829081E+02  0.95445857462E+02  0.47000000000E+01 0.  1.
         13    1    4    4    0    0  0.61431068975E+02 -0.54324684467E+02 -0.26637518563E+03  0.27871255281E+03  0.00000000000E+00 0. -1.
        -14    1    4    4    0    0  0.17981071157E+02 -0.32054118047E+02 -0.22544390583E+02  0.43116527579E+02  0.00000000000E+00 0.  1.
</event>
<event>
12    1  0.8500177E-002  0.2127814E+03  0.7818608E-02  0.1139598E+00
         21   -1    0    0  503  502  0.00000000000E+00  0.00000000000E+00  0.17362420872E+03  0.17362420872E+03  0.00000000000E+00 0. -1.
         21   -1    0    0  501  503 -0.00000000000E+00 -0.00000000000E+00 -0.32912526959E+03  0.32912526959E+03  0.00000000000E+00 0.  1.
          6    2    1    2  501    0  0.10549937026E+03  0.62812606383E+02 -0.19328008485E+03  0.28664028114E+03  0.17242366115E+03 0.  0.
         24    2    3    3    0    0  0.37515098530E+02  0.46983630580E+02 -0.22461535566E+02  0.10205023683E+03  0.79340318232E+02 0.  0.
         -6    2    1    2    0  502 -0.10549937026E+03 -0.62812606383E+02  0.37779023978E+02  0.21610919717E+03  0.17378259350E+03 0.  0.
        -24    2    5    5    0    0 -0.98027163443E+02 -0.61463355698E+02  0.87822223655E+02  0.16527548605E+03  0.78842719742E+02 0.  0.
          5    1    3    3  501    0  0.67984271725E+02  0.15828975803E+02 -0.17081854928E+03  0.18459004431E+03  0.47000000000E+01 0. -1.
        -11    1    4    4    0    0  0.19869582043E+02  0.21299139604E+02 -0.51686014400E+02  0.59328725951E+02  0.00000000000E+00 0.  1.
         12    1    4    4    0    0  0.17645516487E+02  0.25684490975E+02  0.29224478834E+02  0.42721510880E+02  0.00000000000E+00 0. -1.
         -5    1    5    5    0  502 -0.74722068128E+01 -0.13492506847E+01 -0.50043199677E+02  0.50833711118E+02  0.47000000000E+01 0.  1.
         11    1    6    6    0    0 -0.55823114249E+02  0.89453834461E+01  0.24566217200E+02  0.61642022979E+02  0.00000000000E+00 0. -1.
        -12    1    6    6    0    0 -0.42204049194E+02 -0.70408739144E+02  0.63256006455E+02  0.10363346307E+03  0.00000000000E+00 0.  1.
</event>
<event>
12    1  0.8500177E-002  0.2146796E+03  0.7818608E-02  0.1138011E+00
         21   -1    0    0  503  502  0.00000000000E+00  0.00000000000E+00  0.11591475855E+03  0.11591475855E+03  0.00000000000E+00 0. -1.
         21   -1    0    0  501  503 -0.00000000000E+00 -0.00000000000E+00 -0.45190149788E+03  0.45190149788E+03  0.00000000000E+00 0. -1.
          6    2    1    2  501    0  0.11448403744E+03  0.53807017372E+02 -0.26743607812E+03  0.34294226813E+03  0.17345187644E+03 0.  0.
         24    2    3    3    0    0  0.42054946476E+02  0.88371046418E+02 -0.12827112702E+03  0.18222631081E+03  0.84704698550E+02 0.  0.
         -6    2    1    2    0  502 -0.11448403744E+03 -0.53807017372E+02 -0.68550661206E+02  0.22487398831E+03  0.17282166391E+03 0.  0.
        -24    2    5    5    0    0 -0.47169656969E+02 -0.81636113998E+02 -0.84493553681E+02  0.15016153782E+03  0.80745867874E+02 0.  0.
          5    1    3    3  501    0  0.72429090968E+02 -0.34564029046E+02 -0.13916495110E+03  0.16071595732E+03  0.47000000000E+01 0. -1.
        -11    1    4    4    0    0 -0.17131845384E+02 -0.27081682481E+01 -0.34971957249E+02  0.39036804369E+02  0.00000000000E+00 0.  1.
         12    1    4    4    0    0  0.59186791860E+02  0.91079214666E+02 -0.93299169770E+02  0.14318950644E+03  0.00000000000E+00 0. -1.
         -5    1    5    5    0  502 -0.67314380474E+02  0.27829096626E+02  0.15942892475E+02  0.74712450489E+02  0.47000000000E+01 0.  1.
         13    1    6    6    0    0 -0.24825680898E+02 -0.50112431168E+02  0.14372839345E+01  0.55943149489E+02  0.00000000000E+00 0. -1.
        -14    1    6    6    0    0 -0.22343976071E+02 -0.31523682829E+02 -0.85930837616E+02  0.94218388328E+02  0.00000000000E+00 0.  1.
</event>
<event>
12    1  0.8500177E-002  0.2360062E+03  0.7818608E-02  0.1123480E+00
         21   -1    0    0  501  502  0.00000000000E+00  0.00000000000E+00  0.76404762261E+03  0.76404762261E+03  0.00000000000E+00 0.  1.
         21   -1    0    0  502  503 -0.00000000000E+00 -0.00000000000E+00 -0.89683015485E+02  0.89683015485E+02  0.00000000000E+00 0.  1.
         -6    2    1    2    0  503  0.42272402140E+02  0.15565275333E+03  0.53467142810E+03  0.58444199076E+03  0.17229094270E+03 0.  0.
        -24    2    3    3    0    0  0.67773131164E+02  0.39699912872E+02  0.19995593201E+03  0.22926330093E+03  0.80062513170E+02 0.  0.
          6    2    1    2  501    0 -0.42272402140E+02 -0.15565275333E+03  0.13969317903E+03  0.26928864733E+03  0.16427859177E+03 0.  0.
         24    2    5    5    0    0  0.61233183984E+01 -0.11013073456E+03  0.24310646505E+02  0.13606095213E+03  0.75863703033E+02 0.  0.
          5    1    5    5  501    0 -0.48395720539E+02 -0.45522018772E+02  0.11538253252E+03  0.13322769521E+03  0.47000000000E+01 0. -1.
        -13    1    6    6    0    0  0.30506353138E+02 -0.95842530572E+02  0.34020731838E+02  0.10617833321E+03  0.00000000000E+00 0.  1.
         14    1    6    6    0    0 -0.24383034740E+02 -0.14288203986E+02 -0.97100853327E+01  0.29882618918E+02  0.00000000000E+00 0. -1.
         -5    1    3    3    0  503 -0.25500729023E+02  0.11595284046E+03  0.33471549609E+03  0.35517868984E+03  0.47000000000E+01 0.  1.
         11    1    4    4    0    0  0.65279362035E+02  0.61759259502E+02  0.16397087331E+03  0.18698141228E+03  0.00000000000E+00 0. -1.
        -12    1    4    4    0    0  0.24937691281E+01 -0.22059346630E+02  0.35985058700E+02  0.42281888650E+02  0.00000000000E+00 0.  1.
</event>
<event>
12    1  0.8500177E-002  0.1770364E+03  0.7818608E-02  0.1170834E+00
         21   -1    0    0  501  502  0.00000000000E+00  0.00000000000E+00  0.98709074139E+03  0.98709074139E+03  0.00000000000E+00 0. -1.
         21   -1    0    0  502  503 -0.00000000000E+00 -0.00000000000E+00 -0.33830968231E+02  0.33830968231E+02  0.00000000000E+00 0. -1.
         -6    2    1    2    0  503  0.35016176106E+02  0.81960908112E+01  0.34788808560E+03  0.39034346744E+03  0.17334530274E+03 0.  0.
        -24    2    3    3    0    0 -0.57810976612E+01 -0.56511717309E+02  0.16761836371E+03  0.19445885700E+03  0.80568827288E+02 0.  0.
          6    2    1    2  501    0 -0.35016176106E+02 -0.81960908112E+01  0.60537168756E+03  0.63057824218E+03  0.17280257785E+03 0.  0.
         24    2    5    5    0    0  0.33888540507E+02 -0.73924708760E+01  0.46831652897E+03  0.47710279700E+03  0.84283010107E+02 0.  0.
          5    1    5    5  501    0 -0.68904716613E+02 -0.80361993523E+00  0.13705515859E+03  0.15347544518E+03  0.47000000000E+01 0. -1.
        -11    1    6    6    0    0  0.15355558127E+02  0.17803465543E+02  0.41210557908E+03  0.41277568347E+03  0.00000000000E+00 0.  1.
         12    1    6    6    0    0  0.18532982380E+02 -0.25195936419E+02  0.56210949891E+02  0.64327113533E+02  0.00000000000E+00 0. -1.
         -5    1    3    3    0  503  0.40797273767E+02  0.64707808120E+02  0.18026972188E+03  0.19588461044E+03  0.47000000000E+01 0.  1.
         11    1    4    4    0    0 -0.10102047127E+00  0.17633634607E+02  0.67377780940E+02  0.69647115080E+02  0.00000000000E+00 0. -1.
        -12    1    4    4    0    0 -0.56800771900E+01 -0.74145351916E+02  0.10024058277E+03  0.12481174192E+03  0.00000000000E+00 0.  1.
</event>
<event>
12    1  0.8500177E-002  0.2238898E+03  0.7818608E-02  0.1132048E+00
         21   -1    0    0  501  502  0.00000000000E+00  0.00000000000E+00  0.32722403529E+03  0.32722403529E+03  0.00000000000E+00 0. -1.
         21   -1    0    0  502  503 -0.00000000000E+00 -0.00000000000E+00 -0.18609424695E+03  0.18609424695E+03  0.00000000000E+00 0.  1.
         -6    2    1    2    0  503 -0.24331380460E+02  0.14227887154E+03 -0.42699308374E+02  0.22792510790E+03  0.17114710198E+03 0.  0.
        -24    2    3    3    0    0 -0.59922423226E+02  0.49804201595E+02  0.16738803130E+02  0.11228226980E+03  0.79094660239E+02 0.  0.
          6    2    1    2  501    0  0.24331380460E+02 -0.14227887154E+03  0.18382909671E+03  0.28539317433E+03  0.16377067440E+03 0.  0.
         24    2    5    5    0    0  0.30905326867E+01 -0.14402359700E+03  0.19965312788E+03  0.25843565880E+03  0.78582888616E+02 0.  0.
          5    1    5    5  501    0  0.21240847774E+02  0.17447254627E+01 -0.15824031165E+02  0.26957515527E+02  0.47000000000E+01 0. -1.
        -11    1    6    6    0    0  0.27916099557E+01 -0.78265679217E+02  0.44859523626E+02  0.90253456938E+02  0.00000000000E+00 0.  1.
         12    1    6    6    0    0  0.29892273096E+00 -0.65757917785E+02  0.15479360425E+03  0.16818220186E+03  0.00000000000E+00 0. -1.
         -5    1    3    3    0  503  0.35591042766E+02  0.92474669944E+02 -0.59438111505E+02  0.11564283811E+03  0.47000000000E+01 0.  1.
         11    1    4    4    0    0  0.12682485116E+02  0.33590925985E+02 -0.53756366999E+00  0.35909395873E+02  0.00000000000E+00 0. -1.
        -12    1    4    4    0    0 -0.72604908342E+02  0.16213275610E+02  0.17276366800E+02  0.76372873922E+02  0.00000000000E+00 0.  1.
</event>
<event>
12    1  0.8500177E-002  0.1776612E+03  0.7818608E-02  0.1170187E+00
         21   -1    0    0  501  502  0.00000000000E+00  0.00000000000E+00  0.39665855424E+03  0.39665855424E+03  0.00000000000E+00 0.  1.
         21   -1    0    0  502  503 -0.00000000000E+00 -0.00000000000E+00 -0.99432170927E+02  0.99432170927E+02  0.00000000000E+00 0.  1.
         -6    2    1    2    0  503  0.26445859541E+01 -0.42086551762E+02  0.37111685244E+02  0.18109363381E+03  0.17216084151E+03 0.  0.
        -24    2    3    3    0    0  0.19871516108E+02 -0.26290775159E+02  0.87232666941E+02  0.12559159342E+03  0.84128640458E+02 0.  0.
          6    2    1    2  501    0 -0.26445859541E+01  0.42086551762E+02  0.26011469807E+03  0.31499709136E+03  0.17258400777E+03 0.  0.
         24    2    5    5    0    0  0.23588298831E+02 -0.21093895240E+02  0.62860033315E+02  0.10616360292E+03  0.79485637306E+02 0.  0.
          5    1    5    5  501    0 -0.26232884785E+02  0.63180447002E+02  0.19725466475E+03  0.20883348844E+03  0.47000000000E+01 0. -1.
        -13    1    6    6    0    0  0.46251515038E+02 -0.35525554520E+02  0.47488048737E+02  0.75208925269E+02  0.00000000000E+00 0.  1.
         14    1    6    6    0    0 -0.22663216207E+02  0.14431659280E+02  0.15371984578E+02  0.30954677648E+02  0.00000000000E+00 0. -1.
         -5    1    3    3    0  503 -0.17226930154E+02 -0.15795776603E+02 -0.50120981697E+02  0.55502040389E+02  0.47000000000E+01 0.  1.
         13    1    4    4    0    0  0.27739890088E+02 -0.51336045355E+02  0.37520487678E+02  0.69373467914E+02  0.00000000000E+00 0. -1.
        -14    1    4    4    0    0 -0.78683739802E+01  0.25045270197E+02  0.49712179263E+02  0.56218125506E+02  0.00000000000E+00 0.  1.
</event>
<event>
12    1  0.8500177E-002  0.2179551E+03  0.7818608E-02  0.1135754E+00
         21   -1    0    0  501  502  0.00000000000E+00  0.00000000000E+00  0.89303375314E+02  0.89303375314E+02  0.00000000000E+00 0.  1.
         21   -1    0    0  502  503 -0.00000000000E+00 -0.00000000000E+00 -0.58803270773E+03  0.58803270773E+03  0.00000000000E+00 0.  1.
         -6    2    1    2    0  503  0.10079533077E+03 -0.87554864370E+02 -0.35700472777E+03  0.41735476744E+03  0.17002080248E+03 0.  0.
        -24    2    3    3    0    0  0.32858670547E+01  0.17555216091E+01 -0.53982776925E+02  0.86705658488E+02  0.67748448180E+02 0.  0.
          6    2    1    2  501    0 -0.10079533077E+03  0.87554864370E+02 -0.14172460465E+03  0.25998131560E+03  0.17227555811E+03 0.  0.
         24    2    5    5    0    0 -0.13807659243E+03  0.72891558353E+02 -0.12730086978E+03  0.21714395875E+03  0.81041117461E+02 0.  0.
          5    1    5    5  501    0  0.37281261664E+02  0.14663306017E+02 -0.14423734865E+02  0.42837356852E+02  0.47000000000E+01 0. -1.
        -11    1    6    6    0    0 -0.24677865461E+02  0.10193282519E+02 -0.71017035516E+02  0.75870411794E+02  0.00000000000E+00 0.  1.
         12    1    6    6    0    0 -0.11339872697E+03  0.62698275833E+02 -0.56283834264E+02  0.14127354696E+03  0.00000000000E+00 0. -1.
         -5    1    3    3    0  503  0.97509463711E+02 -0.89310385979E+02 -0.30302195085E+03  0.33064910895E+03  0.47000000000E+01 0.  1.
         11    1    4    4    0    0 -0.15341924415E+02 -0.20004214612E+02  0.43032524986E+00  0.25213655563E+02  0.00000000000E+00 0. -1.
        -12    1    4    4    0    0  0.18627791469E+02  0.21759736221E+02 -0.54413102175E+02  0.61492002925E+02  0.00000000000E+00 0.  1.
</event>
<event>
12    1  0.8500177E-002  0.2048697E+03  0.7818608E-02  0.1146769E+00
         21   -1    0    0  501  502  0.00000000000E+00  0.00000000000E+00  0.56695438739E+03  0.56695438739E+03  0.00000000000E+00 0. -1.
         21   -1    0    0  502  503 -0.00000000000E+00 -0.00000000000E+00 -0.77526331207E+02  0.77526331207E+02  0.00000000000E+00 0.  1.
         -6    2    1    2    0  503 -0.90215216613E+02  0.66528264470E+02  0.33234416363E+03  0.39041544125E+03  0.17148404703E+03 0.  0.
        -24    2    3    3    0    0 -0.41565151084E+02  0.10242477795E+03  0.14943947929E+03  0.19771982088E+03  0.67397868481E+02 0.  0.
          6    2    1    2  501    0  0.90215216613E+02 -0.66528264470E+02  0.15708389255E+03  0.25406527734E+03  0.16525441165E+03 0.  0.
         24    2    5    5    0    0  0.13089805171E+01  0.13419785322E+02  0.32720881279E+02  0.81484113669E+02  0.73397552008E+02 0.  0.
          5    1    5    5  501    0  0.88906236095E+02 -0.79948049793E+02  0.12436301127E+03  0.17258116367E+03  0.47000000000E+01 0. -1.
        -13    1    6    6    0    0  0.31114307609E+02 -0.14903842778E+01 -0.45563915438E+01  0.31481456243E+02  0.00000000000E+00 0.  1.
         14    1    6    6    0    0 -0.29805327092E+02  0.14910169600E+02  0.37277272822E+02  0.50002657426E+02  0.00000000000E+00 0. -1.
         -5    1    3    3    0  503 -0.48650065528E+02 -0.35896513482E+02  0.18290468434E+03  0.19269562037E+03  0.47000000000E+01 0.  1.
         11    1    4    4    0    0 -0.42865735925E+02  0.43730081486E+02  0.11327136550E+03  0.12876410053E+03  0.00000000000E+00 0. -1.
        -12    1    4    4    0    0  0.13005848408E+01  0.58694696467E+02  0.36168113794E+02  0.68955720355E+02  0.00000000000E+00 0.  1.
</event>
<event>
12    1  0.8500177E-002  0.1850613E+03  0.7818608E-02  0.1163446E+00
         21   -1    0    0  501  502  0.00000000000E+00  0.00000000000E+00  0.13945870221E+03  0.13945870221E+03  0.00000000000E+00 0. -1.
         21   -1    0    0  502  503 -0.00000000000E+00 -0.00000000000E+00 -0.29370872902E+03  0.29370872902E+03  0.00000000000E+00 0.  1.
         -6    2    1    2    0  503  0.73586041148E+01  0.65749441468E+02 -0.16676571321E+03  0.24768339017E+03  0.17076041858E+03 0.  0.
        -24    2    3    3    0    0  0.10826702701E+02  0.84102046733E+02 -0.18717506526E+03  0.21962136104E+03  0.77515581726E+02 0.  0.
          6    2    1    2  501    0 -0.73586041148E+01 -0.65749441468E+02  0.12515686407E+02  0.18548404106E+03  0.17283098384E+03 0.  0.
         24    2    5    5    0    0  0.16578140230E+02 -0.42690390471E+02  0.71088914372E+02  0.11797403738E+03  0.82261385702E+02 0.  0.
          5    1    5    5  501    0 -0.23936744345E+02 -0.23059050997E+02 -0.58573227964E+02  0.67510003680E+02  0.47000000000E+01 0. -1.
        -11    1    6    6    0    0 -0.19334763248E+02  0.16051508529E+02  0.15925279495E+02  0.29750605420E+02  0.00000000000E+00 0.  1.
         12    1    6    6    0    0  0.35912903478E+02 -0.58741899000E+02  0.55163634877E+02  0.88223431962E+02  0.00000000000E+00 0. -1.
         -5    1    3    3    0  503 -0.34680985866E+01 -0.18352605265E+02  0.20409352053E+02  0.28062029132E+02  0.47000000000E+01 0.  1.
         13    1    4    4    0    0 -0.18973426983E+02  0.55558288089E+02 -0.52474680996E+02  0.78742024691E+02  0.00000000000E+00 0. -1.
        -14    1    4    4    0    0  0.29800129685E+02  0.28543758645E+02 -0.13470038427E+03  0.14087933634E+03  0.00000000000E+00 0.  1.
</event>
<event>
12    1  0.8500177E-002  0.1887848E+03  0.7818608E-02  0.1160121E+00
         21   -1    0    0  503  502  0.00000000000E+00  0.00000000000E+00  0.52314068552E+03  0.52314068552E+03  0.00000000000E+00 0. -1.
         21   -1    0    0  501  503 -0.00000000000E+00 -0.00000000000E+00 -0.70679171402E+02  0.70679171402E+02  0.00000000000E+00 0. -1.
          6    2    1    2  501    0  0.62911244314E+02  0.35333208208E+02  0.16222075648E+03  0.24890816599E+03  0.17445183002E+03 0.  0.
         24    2    3    3    0    0  0.57611286428E+02 -0.16554349257E+02  0.16882157975E+03  0.19612493909E+03  0.79819541103E+02 0.  0.
         -6    2    1    2    0  502 -0.62911244314E+02 -0.35333208208E+02  0.29024075764E+03  0.34491169094E+03  0.17180837258E+03 0.  0.
        -24    2    5    5    0    0 -0.52320546460E+02 -0.56607348220E+02  0.30056458057E+03  0.31857876034E+03  0.72190913496E+02 0.  0.
          5    1    3    3  501    0  0.52999578859E+01  0.51887557465E+02 -0.66008232688E+01  0.52783226892E+02  0.47000000000E+01 0. -1.
        -13    1    4    4    0    0 -0.64242544691E+01  0.22560456807E+02  0.27729454862E+02  0.36320351372E+02  0.00000000000E+00 0.  1.
         14    1    4    4    0    0  0.64035540897E+02 -0.39114806064E+02  0.14109212489E+03  0.15980458772E+03  0.00000000000E+00 0. -1.
         -5    1    5    5    0  502 -0.10590697854E+02  0.21274140012E+02 -0.10323822928E+02  0.26332930603E+02  0.47000000000E+01 0.  1.
         11    1    6    6    0    0 -0.53011396515E+02 -0.43189138337E+01  0.15943642570E+03  0.16807389749E+03  0.00000000000E+00 0. -1.
        -12    1    6    6    0    0  0.69085005518E+00 -0.52288434387E+02  0.14112815487E+03  0.15050486285E+03  0.00000000000E+00 0.  1.
</event>
<event>
12    1  0.8500177E-002  0.1847356E+03  0.7818608E-02  0.1163460E+00
         21   -1    0    0  501  502  0.00000000000E+00  0.00000000000E+00  0.17648834890E+03  0.17648834890E+03  0.00000000000E+00 0. -1.
         21   -1    0    0  502  503 -0.00000000000E+00 -0.00000000000E+00 -0.28021521859E+03  0.28021521859E+03  0.00000000000E+00 0. -1.
         -6    2    1    2    0  503 -0.37586607476E+02  0.55280137154E+02 -0.17945404086E+03  0.25704927845E+03  0.17146991615E+03 0.  0.
        -24    2    3    3    0    0 -0.88396475188E+01 -0.37895909466E+02 -0.99796346649E+02  0.13105085934E+03  0.75503494001E+02 0.  0.
          6    2    1    2  501    0  0.37586607476E+02 -0.55280137154E+02  0.75727171169E+02  0.19965428905E+03  0.17221667764E+03 0.  0.
         24    2    5    5    0    0 -0.37389677763E-01 -0.98259218253E+02  0.46851827131E+02  0.13547764168E+03  0.80648758956E+02 0.  0.
          5    1    5    5  501    0  0.37623997154E+02  0.42979081099E+02  0.28875344038E+02  0.64176647367E+02  0.47000000000E+01 0. -1.
        -11    1    6    6    0    0 -0.32963100486E+02 -0.71582718454E+02  0.10228572553E+02  0.79468706240E+02  0.00000000000E+00 0.  1.
         12    1    6    6    0    0  0.32925710808E+02 -0.26676499799E+02  0.36623254577E+02  0.56008935444E+02  0.00000000000E+00 0. -1.
         -5    1    3    3    0  503 -0.28746959958E+02  0.93176046620E+02 -0.79657694211E+02  0.12599841911E+03  0.47000000000E+01 0.  1.
         11    1    4    4    0    0 -0.34422184618E+02  0.51238051197E+01 -0.38011713526E+02  0.51536691182E+02  0.00000000000E+00 0. -1.
        -12    1    4    4    0    0  0.25582537100E+02 -0.43019714586E+02 -0.61784633123E+02  0.79514168157E+02  0.00000000000E+00 0.  1.
</event>
<event>
12    1  0.8500177E-002  0.2048223E+03  0.7818608E-02  0.1146933E+00
         21   -1    0    0  503  502  0.00000000000E+00  0.00000000000E+00  0.14657135702E+03  0.14657135702E+03  0.00000000000E+00 0.  1.
         21   -1    0    0  501  503 -0.00000000000E+00 -0.00000000000E+00 -0.32061184774E+03  0.32061184774E+03  0.00000000000E+00 0. -1.
          6    2    1    2  501    0 -0.10085192988E+03 -0.14870556102E+02 -0.17088890238E+03  0.26233661292E+03  0.17095390116E+03 0.  0.
         24    2    3    3    0    0 -0.63497708046E+02 -0.54749694717E+02 -0.43801994700E+02  0.12392109468E+03  0.80052076603E+02 0.  0.
         -6    2    1    2    0  502  0.10085192988E+03  0.14870556102E+02 -0.31515883323E+01  0.20484659184E+03  0.17765119892E+03 0.  0.
        -24    2    5    5    0    0  0.10018342817E+03 -0.51874763254E+02 -0.56491614693E+01  0.13788606300E+03  0.79075552502E+02 0.  0.
          5    1    3    3  501    0 -0.37354221838E+02  0.39879138616E+02 -0.12708690768E+03  0.13841551824E+03  0.47000000000E+01 0. -1.
        -11    1    4    4    0    0  0.12471967637E+02  0.64225532764E+01  0.49534922262E+01  0.14877373846E+02  0.00000000000E+00 0.  1.
         12    1    4    4    0    0 -0.75969675683E+02 -0.61172247994E+02 -0.48755486926E+02  0.10904372083E+03  0.00000000000E+00 0. -1.
         -5    1    5    5    0  502  0.66850171860E+00  0.66745319356E+02  0.24975731370E+01  0.66960528836E+02  0.47000000000E+01 0.  1.
         13    1    6    6    0    0 -0.19135241232E+01 -0.16133721371E+02 -0.23175759253E+02  0.28303257000E+02  0.00000000000E+00 0. -1.
        -14    1    6    6    0    0  0.10209695229E+03 -0.35741041883E+02  0.17526597784E+02  0.10958280600E+03  0.00000000000E+00 0.  1.
</event>
<event>
12    1  0.8500177E-002  0.2045056E+03  0.7818608E-02  0.1146107E+00
         21   -1    0    0  503  502  0.00000000000E+00  0.00000000000E+00  0.59715735699E+03  0.59715735699E+03  0.00000000000E+00 0. -1.
         21   -1    0    0  501  503 -0.00000000000E+00 -0.00000000000E+00 -0.19627136794E+03  0.19627136794E+03  0.00000000000E+00 0. -1.
          6    2    1    2  501    0 -0.92677707882E+02 -0.58259606605E+02 -0.11805104864E+03  0.23564903199E+03  0.17207869389E+03 0.  0.
         24    2    3    3    0    0 -0.47070229899E+02 -0.18285625177E+02  0.86297030333E+01  0.95121226606E+02  0.80147397623E+02 0.  0.
         -6    2    1    2    0  502  0.92677707882E+02  0.58259606605E+02  0.51893703769E+03  0.55777969295E+03  0.17274026015E+03 0.  0.
        -24    2    5    5    0    0  0.53595671691E+02 -0.34375676138E+02  0.29656074871E+03  0.31368543848E+03  0.79975580692E+02 0.  0.
          5    1    3    3  501    0 -0.45607477983E+02 -0.39973981428E+02 -0.12668075168E+03  0.14052780538E+03  0.47000000000E+01 0. -1.
        -11    1    4    4    0    0 -0.36728092162E+02 -0.46693481960E+02  0.20204710831E+02  0.62749217933E+02  0.00000000000E+00 0.  1.
         12    1    4    4    0    0 -0.10342137737E+02  0.28407856783E+02 -0.11575007798E+02  0.32372008673E+02  0.00000000000E+00 0. -1.
         -5    1    5    5    0  502  0.39082036191E+02  0.92635282744E+02  0.22237628898E+03  0.24409425447E+03  0.47000000000E+01 0.  1.
         11    1    6    6    0    0 -0.13766078225E+02  0.13277652816E+02  0.43692959888E+02  0.47695657222E+02  0.00000000000E+00 0. -1.
        -12    1    6    6    0    0  0.67361749916E+02 -0.47653328954E+02  0.25286778882E+03  0.26598978126E+03  0.00000000000E+00 0.  1.
</event>
<event>
12    1  0.8500177E-002  0.2692812E+03  0.7818608E-02  0.1102597E+00
         21   -1    0    0  503  502  0.00000000000E+00  0.00000000000E+00  0.44520097960E+02  0.44520097960E+02  0.00000000000E+00 0.  1.
         21   -1    0    0  501  503 -0.00000000000E+00 -0.00000000000E+00 -0.18853558278E+04  0.18853558278E+04  0.00000000000E+00 0. -1.
          6    2    1    2  501    0  0.33500776322E+02  0.20251443739E+03 -0.53027433279E+03  0.59193588180E+03  0.16450781372E+03 0.  0.
         24    2    3    3    0    0  0.63763088143E+02  0.11431485045E+03 -0.22331562776E+03  0.27109213284E+03  0.80544760478E+02 0.  0.
         -6    2    1    2    0  502 -0.33500776322E+02 -0.20251443739E+03 -0.13105613971E+04  0.13379400440E+04  0.17429281809E+03 0.  0.
        -24    2    5    5    0    0 -0.28429870509E+02 -0.21668561020E+02 -0.47925756189E+03  0.48716445579E+03  0.79772252568E+02 0.  0.
          5    1    3    3  501    0 -0.30262311821E+02  0.88199586942E+02 -0.30695870503E+03  0.32084374896E+03  0.47000000000E+01 0. -1.
        -13    1    4    4    0    0  0.26769011444E+02 -0.37180544671E+01 -0.63404647244E+02  0.68924256941E+02  0.00000000000E+00 0.  1.
         14    1    4    4    0    0  0.36994076699E+02  0.11803290492E+03 -0.15991098052E+03  0.20216787590E+03  0.00000000000E+00 0. -1.
         -5    1    5    5    0  502 -0.50709058130E+01 -0.18084587637E+03 -0.83130383518E+03  0.85077558820E+03  0.47000000000E+01 0.  1.
         11    1    6    6    0    0 -0.50058258887E+02 -0.22656270045E+02 -0.42813026337E+03  0.43164181710E+03  0.00000000000E+00 0. -1.
        -12    1    6    6    0    0  0.21628388378E+02  0.98770902408E+00 -0.51127298518E+02  0.55522638686E+02  0.00000000000E+00 0.  1.
</event>
<event>
12    1  0.8500177E-002  0.1821936E+03  0.7818608E-02  0.1165845E+00
         21   -1    0    0  501  502  0.00000000000E+00  0.00000000000E+00  0.17889269416E+03  0.17889269416E+03  0.00000000000E+00 0. -1.
         21   -1    0    0  502  503 -0.00000000000E+00 -0.00000000000E+00 -0.18496636817E+03  0.18496636817E+03  0.00000000000E+00 0. -1.
         -6    2    1    2    0  503  0.44559558944E+02  0.35902032643E+02 -0.57707920369E+01  0.18228495918E+03  0.17297396932E+03 0.  0.
        -24    2    3    3    0    0  0.69729968671E+01  0.31740077125E+02 -0.67391997671E+02  0.10983266794E+03  0.80408198685E+02 0.  0.
          6    2    1    2  501    0 -0.44559558944E+02 -0.35902032643E+02 -0.30288197206E+00  0.18157410315E+03  0.17232107520E+03 0.  0.
         24    2    5    5    0    0 -0.49531181678E+02 -0.60792621979E+02 -0.53324096410E+02  0.12260294367E+03  0.77710627928E+02 0.  0.
          5    1    5    5  501    0  0.49716227337E+01  0.24890589336E+02  0.53021214438E+02  0.58971159481E+02  0.47000000000E+01 0. -1.
        -11    1    6    6    0    0 -0.55114864550E+01 -0.65781120591E+02 -0.34277380264E+02  0.74380582862E+02  0.00000000000E+00 0.  1.
         12    1    6    6    0    0 -0.44019695223E+02  0.49884986118E+01 -0.19046716146E+02  0.48222360807E+02  0.00000000000E+00 0. -1.
         -5    1    3    3    0  503  0.37586562077E+02  0.41619555176E+01  0.61621205634E+02  0.72452291243E+02  0.47000000000E+01 0.  1.
         11    1    4    4    0    0  0.38689457582E+02  0.38138508449E+02 -0.43927438637E+02  0.69864438879E+02  0.00000000000E+00 0. -1.
        -12    1    4    4    0    0 -0.31716460715E+02 -0.63984313241E+01 -0.23464559034E+02  0.39968229061E+02  0.00000000000E+00 0.  1.
</event>
<event>
12    1  0.8500177E-002  0.1786759E+03  0.7818608E-02  0.1169240E+00
         21   -1    0    0  503  502  0.00000000000E+00  0.00000000000E+00  0.11985007965E+03  0.11985007965E+03  0.00000000000E+00 0. -1.
         21   -1    0    0  501  503 -0.00000000000E+00 -0.00000000000E+00 -0.42809214769E+03  0.42809214769E+03  0.00000000000E+00 0. -1.
          6    2    1    2  501    0 -0.27270440658E+02  0.37934074670E+02 -0.32281951840E+03  0.36867267516E+03  0.17182674120E+03 0.  0.
         24    2    3    3    0    0 -0.59033644565E+02 -0.21721217349E+02 -0.13769832198E+03  0.17154428463E+03  0.80683525201E+02 0.  0.
         -6    2    1    2    0  502  0.27270440658E+02 -0.37934074670E+02  0.14577450361E+02  0.17926955218E+03  0.17245984844E+03 0.  0.
        -24    2    5    5    0    0  0.33784852014E+02  0.45592944749E+02 -0.26524056345E+02  0.85831741943E+02  0.58680742357E+02 0.  0.
          5    1    3    3  501    0  0.31763203906E+02  0.59655292019E+02 -0.18512119642E+03  0.19712839053E+03  0.47000000000E+01 0. -1.
        -13    1    4    4    0    0  0.15226825609E+02  0.13037717487E+02 -0.32206514981E+02  0.37935443883E+02  0.00000000000E+00 0.  1.
         14    1    4    4    0    0 -0.74260470174E+02 -0.34758934835E+02 -0.10549180700E+03  0.13360884074E+03  0.00000000000E+00 0. -1.
         -5    1    5    5    0  502 -0.65144113554E+01 -0.83527019419E+02  0.41101506706E+02  0.93437810237E+02  0.47000000000E+01 0.  1.
         11    1    6    6    0    0  0.25077554309E+02  0.10169606012E+02  0.14691689489E+02  0.30792050218E+02  0.00000000000E+00 0. -1.
        -12    1    6    6    0    0  0.87072977043E+01  0.35423338737E+02 -0.41215745834E+02  0.55039691725E+02  0.00000000000E+00 0.  1.
</event>
<event>
12    1  0.8500177E-002  0.1826312E+03  0.7818608E-02  0.1167058E+00
         21   -1    0    0  501  502  0.00000000000E+00  0.00000000000E+00  0.38447346814E+02  0.38447346814E+02  0.00000000000E+00 0. -1.
         21   -1    0    0  502  503 -0.00000000000E+00 -0.00000000000E+00 -0.89670239310E+03  0.89670239310E+03  0.00000000000E+00 0. -1.
         -6    2    1    2    0  503 -0.19367112086E+02  0.57030378196E+02 -0.56179708925E+03  0.59073693981E+03  0.17241407569E+03 0.  0.
        -24    2    3    3    0    0 -0.29044065355E+02 -0.78264589219E+01 -0.47516790013E+03  0.48198603566E+03  0.74974622816E+02 0.  0.
          6    2    1    2  501    0  0.19367112086E+02 -0.57030378196E+02 -0.29645795704E+03  0.34441280011E+03  0.16463689599E+03 0.  0.
         24    2    5    5    0    0 -0.29756621202E+02 -0.82335973384E+02 -0.21794597257E+03  0.24828925447E+03  0.80513588355E+02 0.  0.
          5    1    5    5  501    0  0.49123733289E+02  0.25305595188E+02 -0.78511984472E+02  0.96123545637E+02  0.47000000000E+01 0. -1.
        -13    1    6    6    0    0  0.60103456204E+01 -0.82623393929E+02 -0.14347149508E+03  0.16567081632E+03  0.00000000000E+00 0.  1.
         14    1    6    6    0    0 -0.35766966823E+02  0.28742054415E+00 -0.74474477487E+02  0.82618438156E+02  0.00000000000E+00 0. -1.
         -5    1    3    3    0  503  0.96769532689E+01  0.64856837118E+02 -0.86629189125E+02  0.10875090415E+03  0.47000000000E+01 0.  1.
         11    1    4    4    0    0 -0.33045808364E+02  0.17940118908E+02 -0.11752168177E+03  0.12339051423E+03  0.00000000000E+00 0. -1.
        -12    1    4    4    0    0  0.40017430085E+01 -0.25766577830E+02 -0.35764621836E+03  0.35859552143E+03  0.00000000000E+00 0.  1.
</event>
<event>
12    1  0.8500177E-002  0.2008374E+03  0.7818608E-02  0.1149060E+00
         21   -1    0    0  503  502  0.00000000000E+00  0.00000000000E+00  0.13979311392E+03  0.13979311392E+03  0.00000000000E+00 0.  1.
         21   -1    0    0  501  503 -0.00000000000E+00 -0.00000000000E+00 -0.32118948012E+03  0.32118948012E+03  0.00000000000E+00 0.  1.
          6    2    1    2  501    0  0.99658484932E+02 -0.25584207713E+02 -0.16436066609E+03  0.25942399401E+03  0.17233692236E+03 0.  0.
         24    2    3    3    0    0  0.67032374091E+02  0.52395691731E+02 -0.87465940513E+02  0.14505521922E+03  0.78435184615E+02 0.  0.
         -6    2    1    2    0  502 -0.99658484932E+02  0.25584207713E+02 -0.17035700111E+02  0.20155860003E+03  0.17247982162E+03 0.  0.
        -24    2    5    5    0    0 -0.29147270633E+02  0.97250824686E+01  0.54970949761E+02  0.99429315195E+02  0.76943113975E+02 0.  0.
          5    1    3    3  501    0  0.32626110841E+02 -0.77979899445E+02 -0.76894725573E+02  0.11436877479E+03  0.47000000000E+01 0. -1.
        -13    1    4    4    0    0  0.37563856054E+02 -0.48655235900E+01 -0.18498465094E+01  0.37922797016E+02  0.00000000000E+00 0.  1.
         14    1    4    4    0    0  0.29468518037E+02  0.57261215321E+02 -0.85616094004E+02  0.10713242221E+03  0.00000000000E+00 0. -1.
         -5    1    5    5    0  502 -0.70511214299E+02  0.15859125245E+02 -0.72006649872E+02  0.10212928484E+03  0.47000000000E+01 0.  1.
         11    1    6    6    0    0  0.18002781618E+02  0.59530007138E+01 -0.80773641643E+01  0.20610244426E+02  0.00000000000E+00 0. -1.
        -12    1    6    6    0    0 -0.47150052251E+02  0.37720817549E+01  0.63048313926E+02  0.78819070769E+02  0.00000000000E+00 0.  1.
</event>
<event>
12    1  0.8500177E-002  0.1926127E+03  0.7818608E-02  0.1156460E+00
         21   -1    0    0  503  502  0.00000000000E+00  0.00000000000E+00  0.98753063231E+03  0.98753063231E+03  0.00000000000E+00 0. -1.
         21   -1    0    0  501  503 -0.00000000000E+00 -0.00000000000E+00 -0.59214483212E+02  0.59214483212E+02  0.00000000000E+00 0. -1.
          6    2    1    2  501    0  0.70451525414E+02  0.47538026029E+02  0.14673286469E+03  0.24213669640E+03  0.17284780824E+03 0.  0.
         24    2    3    3    0    0  0.61321799077E+02  0.97968313182E+02  0.10228797341E+03  0.17413666607E+03  0.80638672696E+02 0.  0.
         -6    2    1    2    0  502 -0.70451525414E+02 -0.47538026029E+02  0.78158328440E+03  0.80460841911E+03  0.17116949582E+03 0.  0.
        -24    2    5    5    0    0 -0.15901551303E+02 -0.86921264816E+02  0.49289171610E+03  0.50814315844E+03  0.86365850111E+02 0.  0.
          5    1    3    3  501    0  0.91297263376E+01 -0.50430287153E+02  0.44444891278E+02  0.68000030338E+02  0.47000000000E+01 0. -1.
        -11    1    4    4    0    0 -0.17069757018E+02  0.38898060239E+01  0.65363704645E+01  0.18687732190E+02  0.00000000000E+00 0.  1.
         12    1    4    4    0    0  0.78391556095E+02  0.94078507158E+02  0.95751602948E+02  0.15544893388E+03  0.00000000000E+00 0. -1.
         -5    1    5    5    0  502 -0.54549974111E+02  0.39383238787E+02  0.28869156831E+03  0.29646526067E+03  0.47000000000E+01 0.  1.
         13    1    6    6    0    0 -0.23718461938E+02 -0.33631952065E+02  0.65394837767E+02  0.77266800393E+02  0.00000000000E+00 0. -1.
        -14    1    6    6    0    0  0.78169106349E+01 -0.53289312751E+02  0.42749687833E+03  0.43087635805E+03  0.00000000000E+00 0.  1.
</event>
<event>
12    1  0.8500177E-002  0.1796081E+03  0.7818608E-02  0.1168573E+00
         21   -1    0    0  503  502  0.00000000000E+00  0.00000000000E+00  0.46267335810E+03  0.46267335810E+03  0.00000000000E+00 0. -1.
         21   -1    0    0  501  503 -0.00000000000E+00 -0.00000000000E+00 -0.74246841400E+02  0.74246841400E+02  0.00000000000E+00 0. -1.
          6    2    1    2  501    0 -0.22704452639E+02  0.41681227221E+02  0.12436258022E+03  0.21846077893E+03  0.17322310383E+03 0.  0.
         24    2    3    3    0    0  0.26306539789E+02 -0.18564836426E+02  0.10718728448E+03  0.13878175818E+03  0.82064457978E+02 0.  0.
         -6    2    1    2    0  502  0.22704452639E+02 -0.41681227221E+02  0.26406393648E+03  0.31845942057E+03  0.17156288389E+03 0.  0.
        -24    2    5    5    0    0 -0.97788303014E+00 -0.73694294408E+02  0.92593548031E+02  0.14236321502E+03  0.79132259986E+02 0.  0.
          5    1    3    3  501    0 -0.49010992428E+02  0.60246063647E+02  0.17175295743E+02  0.79679020750E+02  0.47000000000E+01 0. -1.
        -13    1    4    4    0    0  0.19629127511E+02  0.11039792485E+02  0.10604707914E+03  0.10841200422E+03  0.00000000000E+00 0.  1.
         14    1    4    4    0    0  0.66774122784E+01 -0.29604628912E+02  0.11402053426E+01  0.30369753966E+02  0.00000000000E+00 0. -1.
         -5    1    5    5    0  502  0.23682335669E+02  0.32013067188E+02  0.17147038845E+03  0.17609620554E+03  0.47000000000E+01 0.  1.
         13    1    6    6    0    0  0.42007175201E+01 -0.51152303516E+02  0.10444515626E+03  0.11637437367E+03  0.00000000000E+00 0. -1.
        -14    1    6    6    0    0 -0.51786005502E+01 -0.22541990892E+02 -0.11851608225E+02  0.25988841347E+02  0.00000000000E+00 0.  1.
</event>
<event>
12    1  0.8500177E-002  0.2048045E+03  0.7818608E-02  0.1146113E+00
         21   -1    0    0  501  502  0.00000000000E+00  0.00000000000E+00  0.10240884035E+04  0.10240884035E+04  0.00000000000E+00 0. -1.
         21   -1    0    0  502  503 -0.00000000000E+00 -0.00000000000E+00 -0.41383629819E+02  0.41383629819E+02  0.00000000000E+00 0.  1.
         -6    2    1    2    0  503 -0.70783993001E+02 -0.81981770667E+02  0.42029337853E+03  0.46753761157E+03  0.17382033773E+03 0.  0.
        -24    2    3    3    0    0 -0.80521169638E+02  0.70795565984E+01  0.31327164254E+03  0.32788635093E+03  0.53259348715E+02 0.  0.
          6    2    1    2  501    0  0.70783993001E+02  0.81981770667E+02  0.56241139513E+03  0.59793442173E+03  0.17171957061E+03 0.  0.
         24    2    5    5    0    0  0.95529740349E+02  0.31951881107E+02  0.25677507305E+03  0.28720786471E+03  0.80050392975E+02 0.  0.
          5    1    5    5  501    0 -0.24745747348E+02  0.50029889561E+02  0.30563632209E+03  0.31072655703E+03  0.47000000000E+01 0. -1.
        -11    1    6    6    0    0  0.70147410913E+02 -0.14923262946E+02  0.17981753157E+03  0.19359160027E+03  0.00000000000E+00 0.  1.
         12    1    6    6    0    0  0.25382329435E+02  0.46875144053E+02  0.76957541472E+02  0.93616264436E+02  0.00000000000E+00 0. -1.
         -5    1    3    3    0  503  0.97371766366E+01 -0.89061327266E+02  0.10702173599E+03  0.13965126064E+03  0.47000000000E+01 0.  1.
         11    1    4    4    0    0 -0.25290712698E+02 -0.20574578060E+02  0.75815930404E+02  0.82528714483E+02  0.00000000000E+00 0. -1.
        -12    1    4    4    0    0 -0.55230456939E+02  0.27654134658E+02  0.23745571213E+03  0.24535763645E+03  0.00000000000E+00 0.  1.
</event>
<event>
12    1  0.8500177E-002  0.1866644E+03  0.7818608E-02  0.1162859E+00
         21   -1    0    0  501  502  0.00000000000E+00  0.00000000000E+00  0.26182710494E+03  0.26182710494E+03  0.00000000000E+00 0. -1.
         21   -1    0    0  502  503 -0.00000000000E+00 -0.00000000000E+00 -0.14302156257E+03  0.14302156257E+03  0.00000000000E+00 0. -1.
         -6    2    1    2    0  503 -0.43800473560E+02  0.47937250834E+02 -0.31404169296E+01  0.18669080113E+03  0.17500608991E+03 0.  0.
        -24    2    3    3    0    0 -0.23873542070E+02  0.92745578379E+02  0.29589218547E+02  0.12754532071E+03  0.78870771899E+02 0.  0.
          6    2    1    2  501    0  0.43800473560E+02 -0.47937250834E+02  0.12194595930E+03  0.21815786638E+03  0.16883594456E+03 0.  0.
         24    2    5    5    0    0  0.63334312688E+02 -0.93908009688E+01  0.16276331491E+02  0.10389693733E+03  0.80188729336E+02 0.  0.
          5    1    5    5  501    0 -0.19533839128E+02 -0.38546449865E+02  0.10566962781E+03  0.11426092906E+03  0.47000000000E+01 0. -1.
        -13    1    6    6    0    0  0.46191694082E+01  0.19724332274E+02 -0.20437725067E+02  0.28776494150E+02  0.00000000000E+00 0.  1.
         14    1    6    6    0    0  0.58715143280E+02 -0.29115133243E+02  0.36714056558E+02  0.75120443177E+02  0.00000000000E+00 0. -1.
         -5    1    3    3    0  503 -0.19926931490E+02 -0.44808327545E+02 -0.32729635477E+02  0.59145480423E+02  0.47000000000E+01 0.  1.
         13    1    4    4    0    0 -0.15330801333E+02  0.42755916836E+02  0.54580224927E+02  0.71007766104E+02  0.00000000000E+00 0. -1.
        -14    1    4    4    0    0 -0.85427407371E+01  0.49989661543E+02 -0.24991006380E+02  0.56537554602E+02  0.00000000000E+00 0.  1.
</event>
<event>
12    1  0.8500177E-002  0.2126793E+03  0.7818608E-02  0.1139898E+00
         21   -1    0    0  501  502  0.00000000000E+00  0.00000000000E+00  0.25818566394E+03  0.25818566394E+03  0.00000000000E+00 0.  1.
         21   -1    0    0  502  503 -0.00000000000E+00 -0.00000000000E+00 -0.30942643411E+03  0.30942643411E+03  0.00000000000E+00 0. -1.
         -6    2    1    2    0  503 -0.12085739763E+03 -0.35076892437E+02 -0.21374115286E+03  0.29995771902E+03  0.16867855178E+03 0.  0.
        -24    2    3    3    0    0 -0.60442482510E+02 -0.26542878951E+02 -0.21474409932E+03  0.23875406507E+03  0.80812482197E+02 0.  0.
          6    2    1    2  501    0  0.12085739763E+03  0.35076892437E+02  0.16250038268E+03  0.26765437903E+03  0.17145143131E+03 0.  0.
         24    2    5    5    0    0  0.57211621766E+02 -0.13568445658E+02  0.16070906683E+03  0.18738948935E+03  0.76355380778E+02 0.  0.
          5    1    5    5  501    0  0.63645775864E+02  0.48645338095E+02  0.17913158568E+01  0.80264889685E+02  0.47000000000E+01 0. -1.
        -11    1    6    6    0    0  0.74051421439E+02 -0.14322399865E+01  0.13802551633E+03  0.15664197230E+03  0.00000000000E+00 0.  1.
         12    1    6    6    0    0 -0.16839799673E+02 -0.12136205672E+02  0.22683550498E+02  0.30747517044E+02  0.00000000000E+00 0. -1.
         -5    1    3    3    0  503 -0.60414915120E+02 -0.85340134857E+01  0.10029464641E+01  0.61203653949E+02  0.47000000000E+01 0.  1.
         11    1    4    4    0    0 -0.46808554350E+02 -0.37954944454E+02 -0.67688528424E+02  0.90627564510E+02  0.00000000000E+00 0. -1.
        -12    1    4    4    0    0 -0.13633928161E+02  0.11412065503E+02 -0.14705557090E+03  0.14812650056E+03  0.00000000000E+00 0.  1.
</event>
<event>
12    1  0.8500177E-002  0.2096917E+03  0.7818608E-02  0.1142006E+00
         21   -1    0    0  503  502  0.00000000000E+00  0.00000000000E+00  0.14866035941E+03  0.14866035941E+03  0.00000000000E+00 0.  1.
         21   -1    0    0  501  503 -0.00000000000E+00 -0.00000000000E+00 -0.54768393125E+03  0.54768393125E+03  0.00000000000E+00 0. -1.
          6    2    1    2  501    0  0.11853666051E+03 -0.16466494742E+02 -0.43603534299E+03  0.48341125959E+03  0.17098988340E+03 0.  0.
         24    2    3    3    0    0  0.74813024502E+02  0.68080206469E+01 -0.11882737813E+03  0.16232491234E+03  0.81154750907E+02 0.  0.
         -6    2    1    2    0  502 -0.11853666051E+03  0.16466494742E+02  0.37011771148E+02  0.21293303107E+03  0.17218745362E+03 0.  0.
        -24    2    5    5    0    0 -0.14394882666E+03  0.39337638748E+02  0.10530548697E+02  0.16943346142E+03  0.79549298403E+02 0.  0.
          5    1    3    3  501    0  0.43723636003E+02 -0.23274515389E+02 -0.31720796487E+03  0.32108634724E+03  0.47000000000E+01 0. -1.
        -13    1    4    4    0    0  0.13972920463E+02 -0.23921985652E+02 -0.29142972327E+01  0.27856723285E+02  0.00000000000E+00 0.  1.
         14    1    4    4    0    0  0.60840104039E+02  0.30730006299E+02 -0.11591308089E+03  0.13446818906E+03  0.00000000000E+00 0. -1.
         -5    1    5    5    0  502  0.25412166151E+02 -0.22871144007E+02  0.26481222451E+02  0.43499569643E+02  0.47000000000E+01 0.  1.
         13    1    6    6    0    0 -0.83061493864E+02  0.33949638833E+02 -0.31669013042E+02  0.95156272136E+02  0.00000000000E+00 0. -1.
        -14    1    6    6    0    0 -0.60887332793E+02  0.53879999153E+01  0.42199561739E+02  0.74277189289E+02  0.00000000000E+00 0.  1.
</event>
<event>
12    1  0.8500177E-002  0.2651883E+03  0.7818608E-02  0.1104165E+00
         21   -1    0    0  503  502  0.00000000000E+00  0.00000000000E+00  0.44909754893E+02  0.44909754893E+02  0.00000000000E+00 0.  1.
         21   -1    0    0  501  503 -0.00000000000E+00 -0.00000000000E+00 -0.19591548258E+04  0.19591548258E+04  0.00000000000E+00 0. -1.
          6    2    1    2  501    0 -0.19783221111E+03  0.40533232220E+02 -0.14093054906E+04  0.14340386244E+04  0.17188450758E+03 0.  0.
         24    2    3    3    0    0 -0.11198307126E+03 -0.34067140177E+02 -0.96650768621E+03  0.97684361580E+03  0.79909723648E+02 0.  0.
         -6    2    1    2    0  502  0.19783221111E+03 -0.40533232220E+02 -0.50493958033E+03  0.57002595625E+03  0.17083642572E+03 0.  0.
        -24    2    5    5    0    0  0.16286771095E+03  0.16295816939E+02 -0.44308353361E+03  0.47891987734E+03  0.79055589514E+02 0.  0.
          5    1    3    3  501    0 -0.85849139846E+02  0.74600372397E+02 -0.44279780437E+03  0.45719500865E+03  0.47000000000E+01 0. -1.
        -11    1    4    4    0    0 -0.55782023598E+01 -0.32156150166E+02 -0.15586679003E+03  0.15924694838E+03  0.00000000000E+00 0.  1.
         12    1    4    4    0    0 -0.10640486890E+03 -0.19109900117E+01 -0.81064089618E+03  0.81759666741E+03  0.00000000000E+00 0. -1.
         -5    1    5    5    0  502  0.34964500157E+02 -0.56829049159E+02 -0.61856046718E+02  0.91106078914E+02  0.47000000000E+01 0.  1.
         13    1    6    6    0    0  0.86093195750E+02  0.40776381463E+02 -0.17839139119E+03  0.20223313302E+03  0.00000000000E+00 0. -1.
        -14    1    6    6    0    0  0.76774515201E+02 -0.24480564524E+02 -0.26469214242E+03  0.27668674432E+03  0.00000000000E+00 0.  1.
</event>
<event>
12    1  0.8500177E-002  0.1860883E+03  0.7818608E-02  0.1162269E+00
         21   -1    0    0  501  502  0.00000000000E+00  0.00000000000E+00  0.22933265503E+02  0.22933265503E+02  0.00000000000E+00 0. -1.
         21   -1    0    0  502  503 -0.00000000000E+00 -0.00000000000E+00 -0.16050882502E+04  0.16050882502E+04  0.00000000000E+00 0. -1.
         -6    2    1    2    0  503 -0.62968920084E+02 -0.31594140484E+02 -0.58271222062E+03  0.61140226021E+03  0.17116050107E+03 0.  0.
        -24    2    3    3    0    0 -0.73511883270E+02  0.33242681270E+02 -0.30170750270E+03  0.32278363812E+03  0.81564618624E+02 0.  0.
          6    2    1    2  501    0  0.62968920084E+02  0.31594140484E+02 -0.99944276403E+03  0.10166192554E+04  0.17223703828E+03 0.  0.
         24    2    5    5    0    0 -0.11288296098E+02  0.65206184092E+02 -0.54373434294E+03  0.55365472259E+03  0.80667490826E+02 0.  0.
          5    1    5    5  501    0  0.74257216182E+02 -0.33612043608E+02 -0.45570842109E+03  0.46296453286E+03  0.47000000000E+01 0. -1.
        -11    1    6    6    0    0 -0.98591740108E+01  0.18813344046E+02 -0.24815693298E+02  0.32664412749E+02  0.00000000000E+00 0.  1.
         12    1    6    6    0    0 -0.14291220872E+01  0.46392840046E+02 -0.51891864964E+03  0.52099030984E+03  0.00000000000E+00 0. -1.
         -5    1    3    3    0  503  0.10542963185E+02 -0.64836821755E+02 -0.28100471792E+03  0.28861862209E+03  0.47000000000E+01 0.  1.
         11    1    4    4    0    0 -0.24495810997E+02 -0.27082653428E+02 -0.83137128967E+02  0.90803618242E+02  0.00000000000E+00 0. -1.
        -12    1    4    4    0    0 -0.49016072273E+02  0.60325334698E+02 -0.21857037373E+03  0.23198001988E+03  0.00000000000E+00 0.  1.
</event>
<event>
12    1  0.8500177E-002  0.2492779E+03  0.7818608E-02  0.1114164E+00
         21   -1    0    0  503  502  0.00000000000E+00  0.00000000000E+00  0.10616135083E+04  0.10616135083E+04  0.00000000000E+00 0. -1.
         21   -1    0    0  501  503 -0.00000000000E+00 -0.00000000000E+00 -0.19009698056E+03  0.19009698056E+03  0.00000000000E+00 0. -1.
          6    2    1    2  501    0 -0.16253115259E+03  0.77783831562E+02 -0.85392224779E+02  0.26349819256E+03  0.17225784573E+03 0.  0.
         24    2    3    3    0    0 -0.15823908195E+03  0.22765853630E+02 -0.10176581696E+03  0.20574367510E+03  0.80101730297E+02 0.  0.
         -6    2    1    2    0  502  0.16253115259E+03 -0.77783831562E+02  0.95690875256E+03  0.98821229633E+03  0.16858968498E+03 0.  0.
        -24    2    5    5    0    0  0.31465275709E+02 -0.78440090175E+02  0.44385945061E+03  0.45866496984E+03  0.78863371384E+02 0.  0.
          5    1    3    3  501    0 -0.42920706399E+01  0.55017977933E+02  0.16373592178E+02  0.57754517460E+02  0.47000000000E+01 0. -1.
        -13    1    4    4    0    0 -0.17659099515E+02 -0.74063442422E+01 -0.48960663516E+02  0.52572276940E+02  0.00000000000E+00 0.  1.
         14    1    4    4    0    0 -0.14057998243E+03  0.30172197872E+02 -0.52805153441E+02  0.15317139816E+03  0.00000000000E+00 0. -1.
         -5    1    5    5    0  502  0.13106587688E+03  0.65625861303E+00  0.51304930196E+03  0.52954732649E+03  0.47000000000E+01 0.  1.
         13    1    6    6    0    0  0.46358309416E+02 -0.31946536469E+02  0.33018180651E+03  0.33494730838E+03  0.00000000000E+00 0. -1.
        -14    1    6    6    0    0 -0.14893033706E+02 -0.46493553707E+02  0.11367764410E+03  0.12371766146E+03  0.00000000000E+00 0.  1.
</event>
<event>
12    1  0.8500177E-002  0.2132061E+03  0.7818608E-02  0.1139293E+00
         21   -1    0    0  501  502  0.00000000000E+00  0.00000000000E+00  0.26854580806E+03  0.26854580806E+03  0.00000000000E+00 0.  1.
         21   -1    0    0  502  503 -0.00000000000E+00 -0.00000000000E+00 -0.16921265663E+03  0.16921265663E+03  0.00000000000E+00 0.  1.
         -6    2    1    2    0  503 -0.42799367981E+01  0.12344287006E+03  0.65692565089E+02  0.22191465770E+03  0.17226184188E+03 0.  0.
        -24    2    3    3    0    0 -0.43593493544E+02  0.11848187536E+02  0.11776662048E+02  0.91807227044E+02  0.79051280453E+02 0.  0.
          6    2    1    2  501    0  0.42799367981E+01 -0.12344287006E+03  0.33640586344E+02  0.21584380699E+03  0.17378262266E+03 0.  0.
         24    2    5    5    0    0 -0.15031021322E+02 -0.12606335849E+03  0.78311997337E+02  0.16688050417E+03  0.74822668948E+02 0.  0.
          5    1    5    5  501    0  0.19310958120E+02  0.26204884275E+01 -0.44671410993E+02  0.48963302821E+02  0.47000000000E+01 0. -1.
        -13    1    6    6    0    0 -0.20574989404E+02 -0.91216605121E+02  0.15426644696E+02  0.94772256518E+02  0.00000000000E+00 0.  1.
         14    1    6    6    0    0  0.55439680824E+01 -0.34846753370E+02  0.62885352641E+02  0.72108247651E+02  0.00000000000E+00 0. -1.
         -5    1    3    3    0  503  0.39313556746E+02  0.11159468253E+03  0.53915903041E+02  0.13010743066E+03  0.47000000000E+01 0.  1.
         11    1    4    4    0    0 -0.11325243215E+02 -0.13196818313E+02  0.39012286569E+02  0.42712710646E+02  0.00000000000E+00 0. -1.
        -12    1    4    4    0    0 -0.32268250329E+02  0.25045005849E+02 -0.27235624521E+02  0.49094516398E+02  0.00000000000E+00 0.  1.
</event>
<event>
12    1  0.8500177E-002  0.2427874E+03  0.7818608E-02  0.1118084E+00
         21   -1    0    0  501  502  0.00000000000E+00  0.00000000000E+00  0.13735773846E+03  0.13735773846E+03  0.00000000000E+00 0.  1.
         21   -1    0    0  502  503 -0.00000000000E+00 -0.00000000000E+00 -0.56389997328E+03  0.56389997328E+03  0.00000000000E+00 0.  1.
         -6    2    1    2    0  503 -0.14350051517E+03 -0.92597682316E+02 -0.40680839276E+02  0.24536876568E+03  0.17141812000E+03 0.  0.
        -24    2    3    3    0    0 -0.12595598347E+03 -0.11363530707E+03  0.97027314049E+01  0.18782759396E+03  0.80044795424E+02 0.  0.
          6    2    1    2  501    0  0.14350051517E+03  0.92597682316E+02 -0.38586139554E+03  0.45588894606E+03  0.17256588871E+03 0.  0.
         24    2    5    5    0    0  0.13249031083E+03  0.71357555563E+02 -0.39477560215E+03  0.42992896410E+03  0.79658991446E+02 0.  0.
          5    1    5    5  501    0  0.11010204339E+02  0.21240126753E+02  0.89142066073E+01  0.25959981963E+02  0.47000000000E+01 0. -1.
        -13    1    6    6    0    0  0.40390166619E+02  0.47645406758E+02 -0.82409115861E+02  0.10340557394E+03  0.00000000000E+00 0.  1.
         14    1    6    6    0    0  0.92100144210E+02  0.23712148804E+02 -0.31236648629E+03  0.32652339016E+03  0.00000000000E+00 0. -1.
         -5    1    3    3    0  503 -0.17544531703E+02  0.21037624751E+02 -0.50383570681E+02  0.57541171715E+02  0.47000000000E+01 0.  1.
         13    1    4    4    0    0 -0.89803413290E+02 -0.11965151384E+03  0.16644173803E+02  0.15052629778E+03  0.00000000000E+00 0. -1.
        -14    1    4    4    0    0 -0.36152570176E+02  0.60162067721E+01 -0.69414423984E+01  0.37301296181E+02  0.00000000000E+00 0.  1.
</event>
<event>
12    1  0.8500177E-002  0.4456908E+03  0.7818608E-02  0.1029093E+00
         21   -1    0    0  501  502  0.00000000000E+00  0.00000000000E+00  0.96673793624E+03  0.96673793624E+03  0.00000000000E+00 0. -1.
         21   -1    0    0  502  503 -0.00000000000E+00 -0.00000000000E+00 -0.22964034973E+03  0.22964034973E+03  0.00000000000E+00 0.  1.
         -6    2    1    2    0  503 -0.20416955321E+03 -0.35634683113E+03  0.17298508459E+03  0.47808376449E+03  0.17312416314E+03 0.  0.
        -24    2    3    3    0    0 -0.91594281455E+02 -0.13093620540E+03  0.13374650701E+03  0.22304475184E+03  0.79542635770E+02 0.  0.
          6    2    1    2  501    0  0.20416955321E+03  0.35634683113E+03  0.56411250191E+03  0.71829452148E+03  0.17045771984E+03 0.  0.
         24    2    5    5    0    0  0.17235305950E+03  0.31259713804E+03  0.55270660196E+03  0.66281020414E+03  0.80063918380E+02 0.  0.
          5    1    5    5  501    0  0.31816493705E+02  0.43749693091E+02  0.11405899957E+02  0.55484317344E+02  0.47000000000E+01 0. -1.
        -11    1    6    6    0    0  0.70238955278E+02  0.58611571562E+02  0.15543026094E+03  0.18035352277E+03  0.00000000000E+00 0.  1.
         12    1    6    6    0    0  0.10211410422E+03  0.25398556648E+03  0.39727634101E+03  0.48245668136E+03  0.00000000000E+00 0. -1.
         -5    1    3    3    0  503 -0.11257527175E+03 -0.22541062573E+03  0.39238577575E+02  0.25503901265E+03  0.47000000000E+01 0.  1.
         13    1    4    4    0    0 -0.94103285279E+01 -0.28256381521E+02 -0.68111671062E+01  0.30551094531E+02  0.00000000000E+00 0. -1.
        -14    1    4    4    0    0 -0.82183952928E+02 -0.10267982388E+03  0.14055767412E+03  0.19249365731E+03  0.00000000000E+00 0.  1.
</event>
<event>
12    1  0.8500177E-002  0.1965896E+03  0.7818608E-02  0.1153079E+00
         21   -1    0    0  501  502  0.00000000000E+00  0.00000000000E+00  0.22840281558E+03  0.22840281558E+03  0.00000000000E+00 0.  1.
         21   -1    0    0  502  503 -0.00000000000E+00 -0.00000000000E+00 -0.22135567089E+03  0.22135567089E+03  0.00000000000E+00 0. -1.
         -6    2    1    2    0  503 -0.95194528197E+02  0.53002516984E+01 -0.10737989741E+03  0.22400427106E+03  0.17192259950E+03 0.  0.
        -24    2    3    3    0    0 -0.14856277607E+01  0.22975914913E+02 -0.97897337284E+02  0.12805743141E+03  0.79276209149E+02 0.  0.
          6    2    1    2  501    0  0.95194528197E+02 -0.53002516984E+01  0.11442704210E+03  0.22575421541E+03  0.16965060255E+03 0.  0.
         24    2    5    5    0    0  0.39498076146E+01 -0.25436335728E+02  0.10247199144E+03  0.13143521335E+03  0.78179908692E+02 0.  0.
          5    1    5    5  501    0  0.91244720583E+02  0.20136084030E+02  0.11955050665E+02  0.94319002066E+02  0.47000000000E+01 0. -1.
        -11    1    6    6    0    0  0.23448597605E+02 -0.25842624761E+02  0.10601738109E+03  0.11161255788E+03  0.00000000000E+00 0.  1.
         12    1    6    6    0    0 -0.19498789991E+02  0.40628903294E+00 -0.35453896523E+01  0.19822655464E+02  0.00000000000E+00 0. -1.
         -5    1    3    3    0  503 -0.93708900437E+02 -0.17675663214E+02 -0.94825601269E+01  0.95946839644E+02  0.47000000000E+01 0.  1.
         13    1    4    4    0    0 -0.10245594432E+02  0.51378565009E+02 -0.68657931453E+02  0.86363422229E+02  0.00000000000E+00 0. -1.
        -14    1    4    4    0    0  0.87599666713E+01 -0.28402650096E+02 -0.29239405831E+02  0.41694009185E+02  0.00000000000E+00 0.  1.
</event>
<event>
12    1  0.8500177E-002  0.1767207E+03  0.7818608E-02  0.1171380E+00
         21   -1    0    0  501  502  0.00000000000E+00  0.00000000000E+00  0.20612554946E+03  0.20612554946E+03  0.00000000000E+00 0. -1.
         21   -1    0    0  502  503 -0.00000000000E+00 -0.00000000000E+00 -0.15552371658E+03  0.15552371658E+03  0.00000000000E+00 0. -1.
         -6    2    1    2    0  503  0.38937365275E+02 -0.10787692770E+02 -0.78729582680E+01  0.17689596485E+03  0.17203983893E+03 0.  0.
        -24    2    3    3    0    0  0.47362807987E+02 -0.14716111851E+02 -0.68641066985E+02  0.11524149544E+03  0.78161414179E+02 0.  0.
          6    2    1    2  501    0 -0.38937365275E+02  0.10787692770E+02  0.58474791150E+02  0.18475330118E+03  0.17053441989E+03 0.  0.
         24    2    5    5    0    0 -0.28099876298E+02 -0.10624731965E+02  0.10336484276E+03  0.13363432395E+03  0.79191879893E+02 0.  0.
          5    1    5    5  501    0 -0.10837488977E+02  0.21412424735E+02 -0.44890051608E+02  0.51118977236E+02  0.47000000000E+01 0. -1.
        -13    1    6    6    0    0  0.25864403336E+02 -0.15473387721E+02  0.43118164269E+02  0.52607691238E+02  0.00000000000E+00 0.  1.
         14    1    6    6    0    0 -0.53964279634E+02  0.48486557561E+01  0.60246678489E+02  0.81026632708E+02  0.00000000000E+00 0. -1.
         -5    1    3    3    0  503 -0.84254427127E+01  0.39284190809E+01  0.60768108717E+02  0.61654469411E+02  0.47000000000E+01 0.  1.
         13    1    4    4    0    0  0.53516893439E+02 -0.29096772121E+02 -0.76455990168E+02  0.97755810384E+02  0.00000000000E+00 0. -1.
        -14    1    4    4    0    0 -0.61540854519E+01  0.14380660270E+02  0.78149231838E+01  0.17485685057E+02  0.00000000000E+00 0.  1.
</event>
<event>
12    1  0.8500177E-002  0.1885689E+03  0.7818608E-02  0.1159800E+00
         21   -1    0    0  501  502  0.00000000000E+00  0.00000000000E+00  0.15792599659E+02  0.15792599659E+02  0.00000000000E+00 0.  1.
         21   -1    0    0  502  503 -0.00000000000E+00 -0.00000000000E+00 -0.23962066140E+04  0.23962066140E+04  0.00000000000E+00 0. -1.
         -6    2    1    2    0  503  0.70908635558E+02 -0.11996977757E+01 -0.14881792707E+04  0.15000556439E+04  0.17452770278E+03 0.  0.
        -24    2    3    3    0    0 -0.17893394525E+02  0.35965104638E+02 -0.61906981463E+03  0.62561847646E+03  0.80854068432E+02 0.  0.
          6    2    1    2  501    0 -0.70908635558E+02  0.11996977757E+01 -0.89223474363E+03  0.91194356980E+03  0.17472482045E+03 0.  0.
         24    2    5    5    0    0 -0.85277514489E+01  0.39534467036E+02 -0.70470882551E+03  0.71057577395E+03  0.81656017212E+02 0.  0.
          5    1    5    5  501    0 -0.62380884110E+02 -0.38334769260E+02 -0.18752591812E+03  0.20136779585E+03  0.47000000000E+01 0. -1.
        -11    1    6    6    0    0 -0.61736664411E+01 -0.11121936773E+02 -0.18246441113E+02  0.22242847124E+02  0.00000000000E+00 0.  1.
         12    1    6    6    0    0 -0.23540850079E+01  0.50656403809E+02 -0.68646238440E+03  0.68833292683E+03  0.00000000000E+00 0. -1.
         -5    1    3    3    0  503  0.88802030084E+02 -0.37164802414E+02 -0.86910945607E+03  0.87443716739E+03  0.47000000000E+01 0.  1.
         11    1    4    4    0    0 -0.46168771829E+02  0.33781523797E+02 -0.49781807771E+03  0.50109438766E+03  0.00000000000E+00 0. -1.
        -12    1    4    4    0    0  0.28275377304E+02  0.21835808407E+01 -0.12125173692E+03  0.12452408881E+03  0.00000000000E+00 0.  1.
</event>
<event>
12    1  0.8500177E-002  0.2154057E+03  0.7818608E-02  0.1137380E+00
         21   -1    0    0  501  502  0.00000000000E+00  0.00000000000E+00  0.20662721172E+03  0.20662721172E+03  0.00000000000E+00 0.  1.
         21   -1    0    0  502  503 -0.00000000000E+00 -0.00000000000E+00 -0.23459077777E+03  0.23459077777E+03  0.00000000000E+00 0.  1.
         -6    2    1    2    0  503  0.32032071945E+02  0.12801608028E+03 -0.59902370538E+02  0.22345736942E+03  0.17009036278E+03 0.  0.
        -24    2    3    3    0    0  0.33742649366E+02  0.15646846932E+02  0.17285980748E-01  0.96012377702E+02  0.88515457226E+02 0.  0.
          6    2    1    2  501    0 -0.32032071945E+02 -0.12801608028E+03  0.31938804481E+02  0.21776062007E+03  0.17025107922E+03 0.  0.
         24    2    5    5    0    0 -0.21097821249E+02 -0.15176207306E+03 -0.21809520289E+01  0.17452084907E+03  0.83522005052E+02 0.  0.
          5    1    5    5  501    0 -0.10934250696E+02  0.23745992780E+02  0.34119756510E+02  0.43239770995E+02  0.47000000000E+01 0. -1.
        -11    1    6    6    0    0  0.13168963484E+02 -0.67791085518E+02 -0.35812876989E+02  0.77792127064E+02  0.00000000000E+00 0.  1.
         12    1    6    6    0    0 -0.34266784732E+02 -0.83970987540E+02  0.33631924960E+02  0.96728722006E+02  0.00000000000E+00 0. -1.
         -5    1    3    3    0  503 -0.17105774218E+01  0.11236923335E+03 -0.59919656519E+02  0.12744499172E+03  0.47000000000E+01 0.  1.
         11    1    4    4    0    0  0.41205519050E+02 -0.17697807912E+02 -0.27093295247E+02  0.52394215830E+02  0.00000000000E+00 0. -1.
        -12    1    4    4    0    0 -0.74628696831E+01  0.33344654844E+02  0.27110581228E+02  0.43618161872E+02  0.00000000000E+00 0.  1.
</event>
<event>
12    1  0.8500177E-002  0.1754174E+03  0.7818608E-02  0.1172557E+00
         21   -1    0    0  501  502  0.00000000000E+00  0.00000000000E+00  0.23408924952E+03  0.23408924952E+03  0.00000000000E+00 0. -1.
         21   -1    0    0  502  503 -0.00000000000E+00 -0.00000000000E+00 -0.14744580839E+03  0.14744580839E+03  0.00000000000E+00 0. -1.
         -6    2    1    2    0  503 -0.18641019837E+02  0.29948528659E+02 -0.21029353026E+02  0.17570815934E+03  0.17084121745E+03 0.  0.
        -24    2    3    3    0    0 -0.24772066404E+01  0.36642654471E+02 -0.77056231418E+02  0.11682538359E+03  0.79760182871E+02 0.  0.
          6    2    1    2  501    0  0.18641019837E+02 -0.29948528659E+02  0.10767279416E+03  0.20582689856E+03  0.17183387204E+03 0.  0.
         24    2    5    5    0    0 -0.17405093508E+02 -0.84955583728E+00  0.13112196271E+03  0.15369220750E+03  0.78260248624E+02 0.  0.
          5    1    5    5  501    0  0.36046113346E+02 -0.29098972821E+02 -0.23449168556E+02  0.52134691066E+02  0.47000000000E+01 0. -1.
        -13    1    6    6    0    0  0.13575621291E+02  0.25775651949E+02  0.94295813052E+02  0.98693374073E+02  0.00000000000E+00 0.  1.
         14    1    6    6    0    0 -0.30980714799E+02 -0.26625207786E+02  0.36826149659E+02  0.54998833423E+02  0.00000000000E+00 0. -1.
         -5    1    3    3    0  503 -0.16163813197E+02 -0.66941258128E+01  0.56026878392E+02  0.58882775748E+02  0.47000000000E+01 0.  1.
         13    1    4    4    0    0 -0.28370390626E+01  0.66934950283E+01 -0.85419528861E+02  0.85728335906E+02  0.00000000000E+00 0. -1.
        -14    1    4    4    0    0  0.35983242218E+00  0.29949159443E+02  0.83632974426E+01  0.31097047687E+02  0.00000000000E+00 0.  1.
</event>
<event>
12    1  0.8500177E-002  0.1930365E+03  0.7818608E-02  0.1156025E+00
         21   -1    0    0  503  502  0.00000000000E+00  0.00000000000E+00  0.89911444142E+02  0.89911444142E+02  0.00000000000E+00 0. -1.
         21   -1    0    0  501  503 -0.00000000000E+00 -0.00000000000E+00 -0.42081603226E+03  0.42081603226E+03  0.00000000000E+00 0. -1.
          6    2    1    2  501    0  0.81983498731E+02  0.29520272856E+02 -0.12856838033E+03  0.23193297288E+03  0.17225079076E+03 0.  0.
         24    2    3    3    0    0  0.39720330815E+02  0.32613573042E+02 -0.15429261925E+03  0.18213768860E+03  0.82015702322E+02 0.  0.
         -6    2    1    2    0  502 -0.81983498731E+02 -0.29520272856E+02 -0.20233620779E+03  0.27879450352E+03  0.17086162130E+03 0.  0.
        -24    2    5    5    0    0 -0.99740570337E+02  0.12430900128E+02 -0.92778836352E+02  0.16005056833E+03  0.83099719005E+02 0.  0.
          5    1    3    3  501    0  0.42263167916E+02 -0.30933001860E+01  0.25724238926E+02  0.49795284281E+02  0.47000000000E+01 0. -1.
        -11    1    4    4    0    0  0.44786635077E+02  0.54873107543E+02 -0.13411503519E+03  0.15166984960E+03  0.00000000000E+00 0.  1.
         12    1    4    4    0    0 -0.50663042621E+01 -0.22259534501E+02 -0.20177584061E+02  0.30467839004E+02  0.00000000000E+00 0. -1.
         -5    1    5    5    0  502  0.17757071607E+02 -0.41951172984E+02 -0.10955737144E+03  0.11874393519E+03  0.47000000000E+01 0.  1.
         11    1    6    6    0    0 -0.49710183721E+02 -0.22255828761E+02 -0.70711440232E+01  0.54921993383E+02  0.00000000000E+00 0. -1.
        -12    1    6    6    0    0 -0.50030386617E+02  0.34686728889E+02 -0.85707692329E+02  0.10512857495E+03  0.00000000000E+00 0.  1.
</event>
<event>
12    1  0.8500177E-002  0.2426696E+03  0.7818608E-02  0.1118093E+00
         21   -1    0    0  501  502  0.00000000000E+00  0.00000000000E+00  0.68437226914E+02  0.68437226914E+02  0.00000000000E+00 0.  1.
         21   -1    0    0  502  503 -0.00000000000E+00 -0.00000000000E+00 -0.16473450059E+04  0.16473450059E+04  0.00000000000E+00 0. -1.
         -6    2    1    2    0  503  0.17016426955E+03 -0.14686319993E+02 -0.13825611466E+04  0.14036275893E+04  0.17182409252E+03 0.  0.
        -24    2    3    3    0    0  0.66915532743E+02 -0.55168050248E+01 -0.46687464769E+03  0.48208093507E+03  0.99609074114E+02 0.  0.
          6    2    1    2  501    0 -0.17016426955E+03  0.14686319993E+02 -0.19634663232E+03  0.31215464344E+03  0.17238606316E+03 0.  0.
         24    2    5    5    0    0 -0.12585688035E+03  0.56758513989E+02 -0.73222609731E+02  0.17462344994E+03  0.77912229156E+02 0.  0.
          5    1    5    5  501    0 -0.44307389196E+02 -0.42072193997E+02 -0.12312402259E+03  0.13753119350E+03  0.47000000000E+01 0. -1.
        -13    1    6    6    0    0 -0.11676950039E+03  0.20792874878E+02 -0.69181167219E+02  0.13730802513E+03  0.00000000000E+00 0.  1.
         14    1    6    6    0    0 -0.90873799559E+01  0.35965639111E+02 -0.40414425112E+01  0.37315424809E+02  0.00000000000E+00 0. -1.
         -5    1    3    3    0  503  0.10324873680E+03 -0.91695149681E+01 -0.91568649892E+03  0.92154665425E+03  0.47000000000E+01 0.  1.
         13    1    4    4    0    0  0.47565329464E+02 -0.20654909190E+02 -0.44827996083E+03  0.45126933103E+03  0.00000000000E+00 0. -1.
        -14    1    4    4    0    0  0.19350203278E+02  0.15138104165E+02 -0.18594686857E+02  0.30811604047E+02  0.00000000000E+00 0.  1.
</event>
<event>
12    1  0.8500177E-002  0.2514645E+03  0.7818608E-02  0.1112445E+00
         21   -1    0    0  501  502  0.00000000000E+00  0.00000000000E+00  0.38506800220E+03  0.38506800220E+03  0.00000000000E+00 0.  1.
         21   -1    0    0  502  503 -0.00000000000E+00 -0.00000000000E+00 -0.18844213016E+03  0.18844213016E+03  0.00000000000E+00 0. -1.
         -6    2    1    2    0  503 -0.17985793345E+03  0.31337784509E+02 -0.51188922324E+01  0.25112010163E+03  0.17234897569E+03 0.  0.
        -24    2    3    3    0    0 -0.16699756036E+03 -0.30686632514E+02 -0.23834677863E+00  0.18741510005E+03  0.79337937546E+02 0.  0.
          6    2    1    2  501    0  0.17985793345E+03 -0.31337784509E+02  0.20174476427E+03  0.32239003072E+03  0.17292613752E+03 0.  0.
         24    2    5    5    0    0  0.80007288063E+02 -0.37503056872E+02  0.18651408885E+03  0.22108738791E+03  0.79274726958E+02 0.  0.
          5    1    5    5  501    0  0.99850645389E+02  0.61652723623E+01  0.15230675420E+02  0.10130264282E+03  0.47000000000E+01 0. -1.
        -11    1    6    6    0    0  0.54728938634E+02  0.15941166410E+02  0.11457416626E+03  0.12797115723E+03  0.00000000000E+00 0.  1.
         12    1    6    6    0    0  0.25278349430E+02 -0.53444223281E+02  0.71939922591E+02  0.93116230671E+02  0.00000000000E+00 0. -1.
         -5    1    3    3    0  503 -0.12860373090E+02  0.62024417024E+02 -0.48805454538E+01  0.63705001586E+02  0.47000000000E+01 0.  1.
         13    1    4    4    0    0 -0.52622281688E+02 -0.48213913310E+02  0.53456862090E+01  0.71569982030E+02  0.00000000000E+00 0. -1.
        -14    1    4    4    0    0 -0.11437527867E+03  0.17527280795E+02 -0.55840329876E+01  0.11584511802E+03  0.00000000000E+00 0.  1.
</event>
<event>
12    1  0.8500177E-002  0.1842112E+03  0.7818608E-02  0.1164485E+00
         21   -1    0    0  503  502  0.00000000000E+00  0.00000000000E+00  0.69698821459E+02  0.69698821459E+02  0.00000000000E+00 0.  1.
         21   -1    0    0  501  503 -0.00000000000E+00 -0.00000000000E+00 -0.52541824095E+03  0.52541824095E+03  0.00000000000E+00 0.  1.
          6    2    1    2  501    0 -0.21939385007E+02  0.45818466923E+02 -0.31451118934E+03  0.36301031758E+03  0.17400728123E+03 0.  0.
         24    2    3    3    0    0  0.14538317403E+02  0.91134915725E+02 -0.20565584783E+03  0.23949603224E+03  0.80914066629E+02 0.  0.
         -6    2    1    2    0  502  0.21939385007E+02 -0.45818466923E+02 -0.14120823016E+03  0.23210674484E+03  0.17706808919E+03 0.  0.
        -24    2    5    5    0    0 -0.12688149726E+02 -0.48092306640E+02 -0.16583050015E+03  0.18929806945E+03  0.76551585340E+02 0.  0.
          5    1    3    3  501    0 -0.36477702410E+02 -0.45316448802E+02 -0.10885534151E+03  0.12351428533E+03  0.47000000000E+01 0. -1.
        -13    1    4    4    0    0 -0.27832794015E+02  0.68795366413E+02 -0.11298403894E+03  0.13517714274E+03  0.00000000000E+00 0.  1.
         14    1    4    4    0    0  0.42371111419E+02  0.22339549312E+02 -0.92671808885E+02  0.10431888951E+03  0.00000000000E+00 0. -1.
         -5    1    5    5    0  502  0.34627534733E+02  0.22738397172E+01  0.24622269990E+02  0.42808675385E+02  0.47000000000E+01 0.  1.
         11    1    6    6    0    0 -0.40421362724E+02 -0.26332915978E+02 -0.55820161842E+02  0.73778042102E+02  0.00000000000E+00 0. -1.
        -12    1    6    6    0    0  0.27733212997E+02 -0.21759390662E+02 -0.11001033830E+03  0.11552002735E+03  0.00000000000E+00 0.  1.
</event>
<event>
12    1  0.8500177E-002  0.1753998E+03  0.7818608E-02  0.1172335E+00
         21   -1    0    0  501  502  0.00000000000E+00  0.00000000000E+00  0.36506054007E+03  0.36506054007E+03  0.00000000000E+00 0. -1.
         21   -1    0    0  502  503 -0.00000000000E+00 -0.00000000000E+00 -0.23222660329E+03  0.23222660329E+03  0.00000000000E+00 0. -1.
         -6    2    1    2    0  503 -0.10547748540E+02  0.33424354846E+02 -0.17196243756E+03  0.24563419775E+03  0.17186226078E+03 0.  0.
        -24    2    3    3    0    0 -0.50625471222E+02  0.15689881974E+02 -0.17687895560E+03  0.20128335184E+03  0.80123105670E+02 0.  0.
          6    2    1    2  501    0  0.10547748540E+02 -0.33424354846E+02  0.30479637433E+03  0.35165294561E+03  0.17184446995E+03 0.  0.
         24    2    5    5    0    0 -0.38972986273E+02 -0.13492276996E+02  0.13495924035E+03  0.17356214578E+03  0.10103903550E+03 0.  0.
          5    1    5    5  501    0  0.49520734814E+02 -0.19932077851E+02  0.16983713398E+03  0.17809079983E+03  0.47000000000E+01 0. -1.
        -13    1    6    6    0    0  0.11745546040E+02  0.67768859806E+01 -0.11163981764E+02  0.17564695391E+02  0.00000000000E+00 0.  1.
         14    1    6    6    0    0 -0.50718532313E+02 -0.20269162976E+02  0.14612322211E+03  0.15599745039E+03  0.00000000000E+00 0. -1.
         -5    1    3    3    0  503  0.40077722682E+02  0.17734472872E+02  0.49165180427E+01  0.44350845912E+02  0.47000000000E+01 0.  1.
         13    1    4    4    0    0 -0.55524349914E+02  0.19639460405E+02 -0.59442379072E+02  0.83678302254E+02  0.00000000000E+00 0. -1.
        -14    1    4    4    0    0  0.48988786921E+01 -0.39495784313E+01 -0.11743657653E+03  0.11760504959E+03  0.00000000000E+00 0.  1.
</event>
<event>
12    1  0.8500177E-002  0.2189582E+03  0.7818608E-02  0.1135468E+00
         21   -1    0    0  501  502  0.00000000000E+00  0.00000000000E+00  0.11506082276E+03  0.11506082276E+03  0.00000000000E+00 0.  1.
         21   -1    0    0  502  503 -0.00000000000E+00 -0.00000000000E+00 -0.41238274944E+03  0.41238274944E+03  0.00000000000E+00 0.  1.
         -6    2    1    2    0  503 -0.96384677872E+02 -0.94297189763E+02 -0.12201553233E+03  0.24695290608E+03  0.16708076360E+03 0.  0.
        -24    2    3    3    0    0 -0.10647855274E+03 -0.44720477279E+02 -0.33666298841E+02  0.14503424347E+03  0.81017953674E+02 0.  0.
          6    2    1    2  501    0  0.96384677872E+02  0.94297189763E+02 -0.17530639435E+03  0.28049066612E+03  0.17251294372E+03 0.  0.
         24    2    5    5    0    0  0.12833996601E+03  0.58909083547E+02 -0.94329583301E+02  0.18640138708E+03  0.76850372926E+02 0.  0.
          5    1    5    5  501    0 -0.31955288140E+02  0.35388106217E+02 -0.80976811050E+02  0.94089279037E+02  0.47000000000E+01 0. -1.
        -13    1    6    6    0    0  0.61874748509E+02  0.56234092179E+02 -0.85002506232E+02  0.11923163880E+03  0.00000000000E+00 0.  1.
         14    1    6    6    0    0  0.66465217504E+02  0.26749913680E+01 -0.93270770688E+01  0.67169748275E+02  0.00000000000E+00 0. -1.
         -5    1    3    3    0  503  0.10093874872E+02 -0.49576712484E+02 -0.88349233489E+02  0.10191866261E+03  0.47000000000E+01 0.  1.
         13    1    4    4    0    0  0.94754522243E+01 -0.18568731806E+02  0.19733082061E+01  0.20939817120E+02  0.00000000000E+00 0. -1.
        -14    1    4    4    0    0 -0.11595400497E+03 -0.26151745472E+02 -0.35639607047E+02  0.12409442635E+03  0.00000000000E+00 0.  1.
</event>
<event>
12    1  0.8500177E-002  0.1744383E+03  0.7818608E-02  0.1173672E+00
         21   -1    0    0  501  502  0.00000000000E+00  0.00000000000E+00  0.24922798066E+02  0.24922798066E+02  0.00000000000E+00 0. -1.
         21   -1    0    0  502  503 -0.00000000000E+00 -0.00000000000E+00 -0.13875549785E+04  0.13875549785E+04  0.00000000000E+00 0. -1.
         -6    2    1    2    0  503  0.73557300579E+01  0.36584867128E+02 -0.43162664070E+03  0.46554298442E+03  0.17039998271E+03 0.  0.
        -24    2    3    3    0    0  0.28143936787E+02 -0.13240338464E+02 -0.38275446139E+03  0.39256846447E+03  0.81496219785E+02 0.  0.
          6    2    1    2  501    0 -0.73557300579E+01 -0.36584867128E+02 -0.93100553972E+03  0.94693479214E+03  0.16888346959E+03 0.  0.
         24    2    5    5    0    0 -0.51693696814E+02 -0.15420386261E+02 -0.32666123224E+03  0.34057852513E+03  0.79850764135E+02 0.  0.
          5    1    5    5  501    0  0.44337966756E+02 -0.21164480867E+02 -0.60434430749E+03  0.60635626701E+03  0.47000000000E+01 0. -1.
        -11    1    6    6    0    0 -0.90525177733E+01 -0.41340064605E+02 -0.20028271438E+03  0.20470494547E+03  0.00000000000E+00 0.  1.
         12    1    6    6    0    0 -0.42641179041E+02  0.25919678344E+02 -0.12637851785E+03  0.13587357966E+03  0.00000000000E+00 0. -1.
         -5    1    3    3    0  503 -0.20788206729E+02  0.49825205591E+02 -0.48872179312E+02  0.72974519950E+02  0.47000000000E+01 0.  1.
         13    1    4    4    0    0  0.46949027304E+02 -0.15933587777E+01 -0.11973402758E+03  0.12861954485E+03  0.00000000000E+00 0. -1.
        -14    1    4    4    0    0 -0.18805090517E+02 -0.11646979686E+02 -0.26302043381E+03  0.26394891961E+03  0.00000000000E+00 0.  1.
</event>
<event>
12    1  0.8500177E-002  0.2523908E+03  0.7818608E-02  0.1112174E+00
         21   -1    0    0  501  502  0.00000000000E+00  0.00000000000E+00  0.22930609726E+03  0.22930609726E+03  0.00000000000E+00 0.  1.
         21   -1    0    0  502  503 -0.00000000000E+00 -0.00000000000E+00 -0.54239079046E+03  0.54239079046E+03  0.00000000000E+00 0.  1.
         -6    2    1    2    0  503  0.15462619026E+03  0.10060360942E+03 -0.42772816705E+03  0.49664123716E+03  0.17225210773E+03 0.  0.
        -24    2    3    3    0    0  0.82294214336E+02  0.77242229232E+02 -0.38550666754E+03  0.40956418021E+03  0.79929514636E+02 0.  0.
          6    2    1    2  501    0 -0.15462619026E+03 -0.10060360942E+03  0.11464347386E+03  0.27505565056E+03  0.16876652472E+03 0.  0.
         24    2    5    5    0    0 -0.13225554260E+03 -0.54171437098E+02  0.14019656394E+03  0.21733699746E+03  0.84582626927E+02 0.  0.
          5    1    5    5  501    0 -0.22370647659E+02 -0.46432172322E+02 -0.25553090086E+02  0.57718653105E+02  0.47000000000E+01 0. -1.
        -11    1    6    6    0    0 -0.82176156083E+02 -0.49414670583E+02  0.37461533952E+02  0.10294705835E+03  0.00000000000E+00 0.  1.
         12    1    6    6    0    0 -0.50079386513E+02 -0.47567665145E+01  0.10273502999E+03  0.11438993911E+03  0.00000000000E+00 0. -1.
         -5    1    3    3    0  503  0.72331975919E+02  0.23361380188E+02 -0.42221499513E+02  0.87077056943E+02  0.47000000000E+01 0.  1.
         13    1    4    4    0    0  0.52549197701E+01 -0.12500931807E+02 -0.13207979344E+02  0.18929822931E+02  0.00000000000E+00 0. -1.
        -14    1    4    4    0    0  0.77039294566E+02  0.89743161040E+02 -0.37229868819E+03  0.39063435728E+03  0.00000000000E+00 0.  1.
</event>
<event>
12    1  0.8500177E-002  0.2005418E+03  0.7818608E-02  0.1149621E+00
         21   -1    0    0  501  502  0.00000000000E+00  0.00000000000E+00  0.93429767715E+02  0.93429767715E+02  0.00000000000E+00 0. -1.
         21   -1    0    0  502  503 -0.00000000000E+00 -0.00000000000E+00 -0.51262229447E+03  0.51262229447E+03  0.00000000000E+00 0. -1.
         -6    2    1    2    0  503  0.94365402728E+02  0.42734785245E+02 -0.85061896692E+02  0.21635951538E+03  0.16983763578E+03 0.  0.
        -24    2    3    3    0    0  0.57900257248E+02  0.34369538859E+02  0.17000900229E+02  0.10755423657E+03  0.82129033874E+02 0.  0.
          6    2    1    2  501    0 -0.94365402728E+02 -0.42734785245E+02 -0.33413063006E+03  0.38969254680E+03  0.17171462368E+03 0.  0.
         24    2    5    5    0    0 -0.62722777915E+02 -0.55503555530E+02 -0.10001914966E+03  0.15306082354E+03  0.80056191872E+02 0.  0.
          5    1    5    5  501    0 -0.31642624813E+02  0.12768770285E+02 -0.23411148040E+03  0.23663172326E+03  0.47000000000E+01 0. -1.
        -13    1    6    6    0    0  0.26474423886E+01  0.16789836771E+02 -0.71683142393E+01  0.18447013282E+02  0.00000000000E+00 0.  1.
         14    1    6    6    0    0 -0.65370220304E+02 -0.72293392300E+02 -0.92850835425E+02  0.13461381026E+03  0.00000000000E+00 0. -1.
         -5    1    3    3    0  503  0.36465145480E+02  0.83652463855E+01 -0.10206279692E+03  0.10880527881E+03  0.47000000000E+01 0.  1.
         11    1    4    4    0    0  0.65264888051E+02  0.43679470504E+02 -0.89265798072E+01  0.79038506963E+02  0.00000000000E+00 0. -1.
        -12    1    4    4    0    0 -0.73646308033E+01 -0.93099316446E+01  0.25927480036E+02  0.28515729608E+02  0.00000000000E+00 0.  1.
</event>
<event>
12    1  0.8500177E-002  0.2657197E+03  0.7818608E-02  0.1104078E+00
         21   -1    0    0  501  502  0.00000000000E+00  0.00000000000E+00  0.20801136051E+04  0.20801136051E+04  0.00000000000E+00 0. -1.
         21   -1    0    0  502  503 -0.00000000000E+00 -0.00000000000E+00 -0.14529379611E+03  0.14529379611E+03  0.00000000000E+00 0.  1.
         -6    2    1    2    0  503  0.19981264631E+03  0.21551693294E+02 -0.88464133186E+01  0.26366191163E+03  0.17043994692E+03 0.  0.
        -24    2    3    3    0    0  0.37958763101E+02  0.43797493482E+01  0.32427073914E+02  0.95682311922E+02  0.81507912448E+02 0.  0.
          6    2    1    2  501    0 -0.19981264631E+03 -0.21551693294E+02  0.19436662223E+04  0.19617454896E+04  0.17383156510E+03 0.  0.
         24    2    5    5    0    0 -0.17703436800E+03 -0.38501738590E+02  0.11362478883E+04  0.11538144219E+04  0.86051759001E+02 0.  0.
          5    1    5    5  501    0 -0.22778278307E+02  0.16950045296E+02  0.80741833403E+03  0.80793106769E+03  0.47000000000E+01 0. -1.
        -11    1    6    6    0    0 -0.27243328587E+02  0.84933530536E+01  0.63207941334E+02  0.69351134427E+02  0.00000000000E+00 0.  1.
         12    1    6    6    0    0 -0.14979103942E+03 -0.46995091644E+02  0.10730399470E+04  0.10844632875E+04  0.00000000000E+00 0. -1.
         -5    1    3    3    0  503  0.16185388321E+03  0.17171943946E+02 -0.41273487233E+02  0.16797959970E+03  0.47000000000E+01 0.  1.
         11    1    4    4    0    0 -0.15171004673E+02  0.22908691289E+02  0.28016823990E+02  0.39241686328E+02  0.00000000000E+00 0. -1.
        -12    1    4    4    0    0  0.53129767773E+02 -0.18528941941E+02  0.44102499240E+01  0.56440625594E+02  0.00000000000E+00 0.  1.
</event>
<event>
12    1  0.8500177E-002  0.1981919E+03  0.7818608E-02  0.1151907E+00
         21   -1    0    0  503  502  0.00000000000E+00  0.00000000000E+00  0.23445187832E+03  0.23445187832E+03  0.00000000000E+00 0. -1.
         21   -1    0    0  501  503 -0.00000000000E+00 -0.00000000000E+00 -0.16539980483E+03  0.16539980483E+03  0.00000000000E+00 0. -1.
          6    2    1    2  501    0 -0.97917488727E+02  0.68925165498E+01  0.25207633746E+02  0.19686804425E+03  0.16877873286E+03 0.  0.
         24    2    3    3    0    0 -0.79892761496E+02  0.66281958074E+02  0.31295662353E+01  0.13082618161E+03  0.79558433271E+02 0.  0.
         -6    2    1    2    0  502  0.97917488727E+02 -0.68925165498E+01  0.43844439739E+02  0.20298363890E+03  0.17217630900E+03 0.  0.
        -24    2    5    5    0    0  0.87266400693E+02  0.52516407601E+02  0.30908380474E+01  0.13000547781E+03  0.80737062269E+02 0.  0.
          5    1    3    3  501    0 -0.18024727230E+02 -0.59389441524E+02  0.22078067511E+02  0.66041862643E+02  0.47000000000E+01 0. -1.
        -13    1    4    4    0    0 -0.17390969259E+02  0.50183641996E+02  0.29903691278E+02  0.60951410876E+02  0.00000000000E+00 0.  1.
         14    1    4    4    0    0 -0.62501792238E+02  0.16098316078E+02 -0.26774125043E+02  0.69874770735E+02  0.00000000000E+00 0. -1.
         -5    1    5    5    0  502  0.10651088034E+02 -0.59408924151E+02  0.40753601691E+02  0.72978161089E+02  0.47000000000E+01 0.  1.
         13    1    6    6    0    0  0.93865201035E+02  0.24089985551E+02  0.15780389902E+02  0.98183624270E+02  0.00000000000E+00 0. -1.
        -14    1    6    6    0    0 -0.65988003423E+01  0.28426422050E+02 -0.12689551855E+02  0.31821853541E+02  0.00000000000E+00 0.  1.
</event>
<event>
12    1  0.8500177E-002  0.2556029E+03  0.7818608E-02  0.1109970E+00
         21   -1    0    0  503  502  0.00000000000E+00  0.00000000000E+00  0.14141324255E+03  0.14141324255E+03  0.00000000000E+00 0.  1.
         21   -1    0    0  501  503 -0.00000000000E+00 -0.00000000000E+00 -0.59957316958E+03  0.59957316958E+03  0.00000000000E+00 0. -1.
          6    2    1    2  501    0  0.14597913920E+02 -0.18787002572E+03 -0.50785007524E+02  0.26059919339E+03  0.17269793557E+03 0.  0.
         24    2    3    3    0    0 -0.57944774459E+01 -0.20318982530E+03 -0.72152738021E+02  0.22699538718E+03  0.70719213262E+02 0.  0.
         -6    2    1    2    0  502 -0.14597913920E+02  0.18787002572E+03 -0.40737491951E+03  0.48038721875E+03  0.17119961812E+03 0.  0.
        -24    2    5    5    0    0  0.52825828990E+02  0.12377736827E+03 -0.29998942926E+03  0.33823390940E+03  0.79354361506E+02 0.  0.
          5    1    3    3  501    0  0.20392391366E+02  0.15319799580E+02  0.21367730498E+02  0.33603806204E+02  0.47000000000E+01 0. -1.
        -13    1    4    4    0    0 -0.34029399577E+02 -0.13906175790E+03 -0.33734875756E+02  0.14708573822E+03  0.00000000000E+00 0.  1.
         14    1    4    4    0    0  0.28234922132E+02 -0.64128067397E+02 -0.38417862265E+02  0.79909648960E+02  0.00000000000E+00 0. -1.
         -5    1    5    5    0  502 -0.67423742910E+02  0.64092657446E+02 -0.10738549024E+03  0.14215330936E+03  0.47000000000E+01 0.  1.
         11    1    6    6    0    0  0.28239478757E+02  0.67377787651E+02 -0.24518938291E+03  0.25584188070E+03  0.00000000000E+00 0. -1.
        -12    1    6    6    0    0  0.24586350233E+02  0.56399580621E+02 -0.54800046357E+02  0.82392028697E+02  0.00000000000E+00 0.  1.
</event>
<event>
12    1  0.8500177E-002  0.1795853E+03  0.7818608E-02  0.1168533E+00
         21   -1    0    0  503  502  0.00000000000E+00  0.00000000000E+00  0.39330432395E+02  0.39330432395E+02  0.00000000000E+00 0. -1.
         21   -1    0    0  501  503 -0.00000000000E+00 -0.00000000000E+00 -0.81474951430E+03  0.81474951430E+03  0.00000000000E+00 0. -1.
          6    2    1    2  501    0 -0.47335766095E+02  0.18613863701E+02 -0.37223178979E+03  0.41270608122E+03  0.17082931093E+03 0.  0.
         24    2    3    3    0    0 -0.70263291541E+02  0.36048540258E+02 -0.36573090229E+03  0.38280640049E+03  0.80902533781E+02 0.  0.
         -6    2    1    2    0  502  0.47335766095E+02 -0.18613863701E+02 -0.40318729211E+03  0.44137386547E+03  0.17223166354E+03 0.  0.
        -24    2    5    5    0    0 -0.17963273548E+02  0.32638122287E+02 -0.26574655589E+03  0.28074143842E+03  0.82502103356E+02 0.  0.
          5    1    3    3  501    0  0.22927525446E+02 -0.17434676557E+02 -0.65008875042E+01  0.29899680735E+02  0.47000000000E+01 0. -1.
        -11    1    4    4    0    0  0.82329320938E+01 -0.71500347126E+01 -0.13265276892E+03  0.13310019259E+03  0.00000000000E+00 0.  1.
         12    1    4    4    0    0 -0.78496223635E+02  0.43198574970E+02 -0.23307813337E+03  0.24970620789E+03  0.00000000000E+00 0. -1.
         -5    1    5    5    0  502  0.65299039643E+02 -0.51251985988E+02 -0.13744073622E+03  0.16063242705E+03  0.47000000000E+01 0.  1.
         13    1    6    6    0    0  0.30733853347E+02  0.24212325449E+02 -0.14708167340E+03  0.15219666585E+03  0.00000000000E+00 0. -1.
        -14    1    6    6    0    0 -0.48697126895E+02  0.84257968387E+01 -0.11866488249E+03  0.12854477258E+03  0.00000000000E+00 0.  1.
</event>
<event>
12    1  0.8500177E-002  0.1948014E+03  0.7818608E-02  0.1154232E+00
         21   -1    0    0  503  502  0.00000000000E+00  0.00000000000E+00  0.57542892308E+02  0.57542892308E+02  0.00000000000E+00 0. -1.
         21   -1    0    0  501  503 -0.00000000000E+00 -0.00000000000E+00 -0.75680762860E+03  0.75680762860E+03  0.00000000000E+00 0. -1.
          6    2    1    2  501    0 -0.52925170722E+02  0.73007170671E+02 -0.20313141130E+03  0.28134407945E+03  0.17251376792E+03 0.  0.
         24    2    3    3    0    0 -0.55373716574E+02  0.11125387576E+03 -0.12323780738E+03  0.19260917215E+03  0.80418049410E+02 0.  0.
         -6    2    1    2    0  502  0.52925170722E+02 -0.73007170671E+02 -0.49613332499E+03  0.53300644146E+03  0.17267446192E+03 0.  0.
        -24    2    5    5    0    0  0.57910114968E+02 -0.33071954372E+02 -0.12772316932E+03  0.16237481305E+03  0.74866790707E+02 0.  0.
          5    1    3    3  501    0  0.24485458521E+01 -0.38246705085E+02 -0.79893603919E+02  0.88734907302E+02  0.47000000000E+01 0. -1.
        -11    1    4    4    0    0 -0.68196548368E+02  0.55417483322E+02 -0.55675536237E+02  0.10402707341E+03  0.00000000000E+00 0.  1.
         12    1    4    4    0    0  0.12822831794E+02  0.55836392434E+02 -0.67562271143E+02  0.88582098741E+02  0.00000000000E+00 0. -1.
         -5    1    5    5    0  502 -0.49849442460E+01 -0.39935216300E+02 -0.36841015568E+03  0.37063162841E+03  0.47000000000E+01 0.  1.
         11    1    6    6    0    0  0.43730623441E+01 -0.41888497265E+02 -0.78650272848E+02  0.89216788198E+02  0.00000000000E+00 0. -1.
        -12    1    6    6    0    0  0.53537052624E+02  0.88165428929E+01 -0.49072896469E+02  0.73158024851E+02  0.00000000000E+00 0.  1.
</event>
<event>
12    1  0.8500177E-002  0.2025518E+03  0.7818608E-02  0.1147900E+00
         21   -1    0    0  503  502  0.00000000000E+00  0.00000000000E+00  0.15912808148E+03  0.15912808148E+03  0.00000000000E+00 0.  1.
         21   -1    0    0  501  503 -0.00000000000E+00 -0.00000000000E+00 -0.25604199502E+03  0.25604199502E+03  0.00000000000E+00 0.  1.
          6    2    1    2  501    0  0.66618921361E+02  0.80439983201E+02 -0.50637812749E+02  0.20878554486E+03  0.17354695065E+03 0.  0.
         24    2    3    3    0    0  0.48334938337E+02  0.12363187588E+03 -0.42458027782E+02  0.16094369591E+03  0.80492745850E+02 0.  0.
         -6    2    1    2    0  502 -0.66618921361E+02 -0.80439983201E+02 -0.46276100789E+02  0.20638453165E+03  0.17188492028E+03 0.  0.
        -24    2    5    5    0    0 -0.25198684867E+02 -0.23111512663E+01  0.31452862517E+02  0.88555706197E+02  0.78819511546E+02 0.  0.
          5    1    3    3  501    0  0.18283983024E+02 -0.43191892675E+02 -0.81797849677E+01  0.47841848942E+02  0.47000000000E+01 0. -1.
        -13    1    4    4    0    0  0.34795233054E+02  0.33308279522E+02  0.17991431779E+02  0.51418297769E+02  0.00000000000E+00 0.  1.
         14    1    4    4    0    0  0.13539705283E+02  0.90323596354E+02 -0.60449459561E+02  0.10952539814E+03  0.00000000000E+00 0. -1.
         -5    1    5    5    0  502 -0.41420236495E+02 -0.78128831935E+02 -0.77728963305E+02  0.11782882545E+03  0.47000000000E+01 0.  1.
         11    1    6    6    0    0 -0.52061104275E+02  0.62432829674E+01  0.29811457691E+02  0.60316334191E+02  0.00000000000E+00 0. -1.
        -12    1    6    6    0    0  0.26862419408E+02 -0.85544342338E+01  0.16414048259E+01  0.28239372006E+02  0.00000000000E+00 0.  1.
</event>
<event>
12    1  0.8500177E-002  0.2254838E+03  0.7818608E-02  0.1129984E+00
         21   -1    0    0  501  502  0.00000000000E+00  0.00000000000E+00  0.71659057482E+02  0.71659057482E+02  0.00000000000E+00 0.  1.
         21   -1    0    0  502  503 -0.00000000000E+00 -0.00000000000E+00 -0.70735608240E+03  0.70735608240E+03  0.00000000000E+00 0.  1.
         -6    2    1    2    0  503  0.37744693665E+02 -0.14015949122E+03 -0.31909292872E+03  0.39032360726E+03  0.17164753522E+03 0.  0.
        -24    2    3    3    0    0 -0.37074150674E+02 -0.53646454129E+02 -0.10722865173E+03  0.14951055338E+03  0.81258766490E+02 0.  0.
          6    2    1    2  501    0 -0.37744693665E+02  0.14015949122E+03 -0.31660409620E+03  0.38869153262E+03  0.17255030838E+03 0.  0.
         24    2    5    5    0    0 -0.66648443197E+02  0.64472802374E+02 -0.26256619292E+03  0.29119237059E+03  0.85165919229E+02 0.  0.
          5    1    5    5  501    0  0.28903749533E+02  0.75686688850E+02 -0.54037903279E+02  0.97499162032E+02  0.47000000000E+01 0. -1.
        -11    1    6    6    0    0 -0.19461115141E+02  0.73263971385E+02 -0.18562451640E+03  0.20050637295E+03  0.00000000000E+00 0.  1.
         12    1    6    6    0    0 -0.47187328057E+02 -0.87911690107E+01 -0.76941676521E+02  0.90685997638E+02  0.00000000000E+00 0. -1.
         -5    1    3    3    0  503  0.74818844339E+02 -0.86513037095E+02 -0.21186427699E+03  0.24081305388E+03  0.47000000000E+01 0.  1.
         11    1    4    4    0    0 -0.93725286192E+01  0.21511068956E+02 -0.17782841646E+02  0.29441464592E+02  0.00000000000E+00 0. -1.
        -12    1    4    4    0    0 -0.27701622055E+02 -0.75157523085E+02 -0.89445810082E+02  0.12006908879E+03  0.00000000000E+00 0.  1.
</event>
<event>
12    1  0.8500177E-002  0.2366754E+03  0.7818608E-02  0.1122091E+00
         21   -1    0    0  503  502  0.00000000000E+00  0.00000000000E+00  0.27621739410E+03  0.27621739410E+03  0.00000000000E+00 0. -1.
         21   -1    0    0  501  503 -0.00000000000E+00 -0.00000000000E+00 -0.34997860205E+03  0.34997860205E+03  0.00000000000E+00 0.  1.
          6    2    1    2  501    0  0.41986477455E+02 -0.15702075870E+03 -0.24012813321E+03  0.33689825942E+03  0.17152414959E+03 0.  0.
         24    2    3    3    0    0  0.75826780694E+02 -0.47415139928E+02 -0.10290671546E+03  0.15798385173E+03  0.79819854402E+02 0.  0.
         -6    2    1    2    0  502 -0.41986477455E+02  0.15702075870E+03  0.16636692526E+03  0.28929773673E+03  0.17203733230E+03 0.  0.
        -24    2    5    5    0    0 -0.32995967938E+02  0.87687532623E+01  0.37268550671E+02  0.92452704539E+02  0.77414034732E+02 0.  0.
          5    1    3    3  501    0 -0.33840303238E+02 -0.10960561877E+03 -0.13722141775E+03  0.17891440769E+03  0.47000000000E+01 0. -1.
        -11    1    4    4    0    0  0.29991663260E+01 -0.46882941940E+02 -0.37865189955E+02  0.60338858573E+02  0.00000000000E+00 0.  1.
         12    1    4    4    0    0  0.72827614368E+02 -0.53219798877E+00 -0.65041525504E+02  0.97644993159E+02  0.00000000000E+00 0. -1.
         -5    1    5    5    0  502 -0.89905095177E+01  0.14825200544E+03  0.12909837459E+03  0.19684503219E+03  0.47000000000E+01 0.  1.
         13    1    6    6    0    0 -0.40069464131E+02  0.18938910331E+02 -0.84216660573E+01  0.45112844506E+02  0.00000000000E+00 0. -1.
        -14    1    6    6    0    0  0.70734961932E+01 -0.10170157069E+02  0.45690216728E+02  0.47339860032E+02  0.00000000000E+00 0.  1.
</event>
<event>
12    1  0.8500177E-002  0.1738756E+03  0.7818608E-02  0.1174361E+00
         21   -1    0    0  501  502  0.00000000000E+00  0.00000000000E+00  0.68880153934E+02  0.68880153934E+02  0.00000000000E+00 0.  1.
         21   -1    0    0  502  503 -0.00000000000E+00 -0.00000000000E+00 -0.43441236510E+03  0.43441236510E+03  0.00000000000E+00 0.  1.
         -6    2    1    2    0  503  0.20671359803E+02  0.29960908762E+01 -0.17626416623E+03  0.24759192880E+03  0.17261641067E+03 0.  0.
        -24    2    3    3    0    0  0.20759990046E+02 -0.28839568955E+02 -0.26297617115E+02  0.94211444560E+02  0.83195755276E+02 0.  0.
          6    2    1    2  501    0 -0.20671359803E+02 -0.29960908762E+01 -0.18926804494E+03  0.25570059023E+03  0.17065789562E+03 0.  0.
         24    2    5    5    0    0 -0.49313375759E+01  0.43810330584E+02 -0.18501036851E+03  0.20591296930E+03  0.78915469420E+02 0.  0.
          5    1    5    5  501    0 -0.15740022227E+02 -0.46806421460E+02 -0.42576764240E+01  0.49787620933E+02  0.47000000000E+01 0. -1.
        -11    1    6    6    0    0 -0.39575862129E+02  0.38587153373E+02 -0.10883898260E+03  0.12207023143E+03  0.00000000000E+00 0.  1.
         12    1    6    6    0    0  0.34644524553E+02  0.52231772113E+01 -0.76171385912E+02  0.83842737870E+02  0.00000000000E+00 0. -1.
         -5    1    3    3    0  503 -0.88630243839E-01  0.31835659831E+02 -0.14996654912E+03  0.15338048424E+03  0.47000000000E+01 0.  1.
         11    1    4    4    0    0  0.88784077423E+01  0.29536272041E+02 -0.10492412575E+02  0.32577725699E+02  0.00000000000E+00 0. -1.
        -12    1    4    4    0    0  0.11881582304E+02 -0.58375840996E+02 -0.15805204540E+02  0.61633718860E+02  0.00000000000E+00 0.  1.
</event>
<event>
12    1  0.8500177E-002  0.2303690E+03  0.7818608E-02  0.1127180E+00
         21   -1    0    0  503  502  0.00000000000E+00  0.00000000000E+00  0.17636548884E+03  0.17636548884E+03  0.00000000000E+00 0. -1.
         21   -1    0    0  501  503 -0.00000000000E+00 -0.00000000000E+00 -0.93888420886E+03  0.93888420886E+03  0.00000000000E+00 0. -1.
          6    2    1    2  501    0  0.58362740979E+02  0.14195336575E+03 -0.84183519456E+03  0.87160865412E+03  0.16570511022E+03 0.  0.
         24    2    3    3    0    0  0.15632388289E+02  0.57116827620E+02 -0.64897623697E+03  0.65657426439E+03  0.80080615305E+02 0.  0.
         -6    2    1    2    0  502 -0.58362740979E+02 -0.14195336575E+03  0.79316474540E+02  0.24364104357E+03  0.17179315294E+03 0.  0.
        -24    2    5    5    0    0  0.30489427342E+00 -0.57428305811E+01  0.42449537369E+02  0.90747412655E+02  0.80000353857E+02 0.  0.
          5    1    3    3  501    0  0.42730352691E+02  0.84836538133E+02 -0.19285895759E+03  0.21503438973E+03  0.47000000000E+01 0. -1.
        -13    1    4    4    0    0  0.33751297557E+01 -0.14460953863E+02 -0.31301708331E+02  0.34645456152E+02  0.00000000000E+00 0.  1.
         14    1    4    4    0    0  0.12257258533E+02  0.71577781483E+02 -0.61767452864E+03  0.62192880824E+03  0.00000000000E+00 0. -1.
         -5    1    5    5    0  502 -0.58667635253E+02 -0.13621053517E+03  0.36866937171E+02  0.15289363092E+03  0.47000000000E+01 0.  1.
         13    1    6    6    0    0 -0.81740326417E+01 -0.27360034549E+02  0.56712918436E+02  0.63495995289E+02  0.00000000000E+00 0. -1.
        -14    1    6    6    0    0  0.84789269151E+01  0.21617203968E+02 -0.14263381067E+02  0.27251417367E+02  0.00000000000E+00 0.  1.
</event>
<event>
12    1  0.8500177E-002  0.2551647E+03  0.7818608E-02  0.1111352E+00
         21   -1    0    0  503  502  0.00000000000E+00  0.00000000000E+00  0.14260636269E+03  0.14260636269E+03  0.00000000000E+00 0. -1.
         21   -1    0    0  501  503 -0.00000000000E+00 -0.00000000000E+00 -0.54445509871E+03  0.54445509871E+03  0.00000000000E+00 0.  1.
          6    2    1    2  501    0 -0.60087153686E+02 -0.17094127517E+03 -0.34716298582E+03  0.42610254695E+03  0.16795790008E+03 0.  0.
         24    2    3    3    0    0  0.14923460950E+02 -0.13103640319E+03 -0.27110276766E+03  0.31197000162E+03  0.80220462683E+02 0.  0.
         -6    2    1    2    0  502  0.60087153686E+02  0.17094127517E+03 -0.54685750198E+02  0.26095891445E+03  0.17965978449E+03 0.  0.
        -24    2    5    5    0    0  0.76984806964E+01  0.41460751069E+01 -0.28494928205E+02  0.84116439412E+02  0.78658489066E+02 0.  0.
          5    1    3    3  501    0 -0.75010614636E+02 -0.39904871980E+02 -0.76060218166E+02  0.11413254533E+03  0.47000000000E+01 0. -1.
        -13    1    4    4    0    0  0.10710623261E+02 -0.13161317175E+03 -0.19356862456E+03  0.23431934799E+03  0.00000000000E+00 0.  1.
         14    1    4    4    0    0  0.42128376893E+01  0.57676856347E+00 -0.77534143098E+02  0.77650653631E+02  0.00000000000E+00 0. -1.
         -5    1    5    5    0  502  0.52388672989E+02  0.16679520006E+03 -0.26190821993E+02  0.17684247504E+03  0.47000000000E+01 0.  1.
         11    1    6    6    0    0 -0.13152460795E+02 -0.23566454264E+00  0.24051982721E+02  0.27414241473E+02  0.00000000000E+00 0. -1.
        -12    1    6    6    0    0  0.20850941491E+02  0.43817396495E+01 -0.52546910925E+02  0.56702197940E+02  0.00000000000E+00 0.  1.
</event>
<event>
12    1  0.8500177E-002  0.2793034E+03  0.7818608E-02  0.1096153E+00
         21   -1    0    0  503  502  0.00000000000E+00  0.00000000000E+00  0.94837651070E+03  0.94837651070E+03  0.00000000000E+00 0. -1.
         21   -1    0    0  501  503 -0.00000000000E+00 -0.00000000000E+00 -0.15249487253E+03  0.15249487253E+03  0.00000000000E+00 0. -1.
          6    2    1    2  501    0 -0.21941771672E+03 -0.17508396857E+02  0.24134518125E+02  0.28034414274E+03  0.17192930242E+03 0.  0.
         24    2    3    3    0    0 -0.73307962073E+02  0.19506488018E+02 -0.40973849126E+02  0.11609021861E+03  0.77740093684E+02 0.  0.
         -6    2    1    2    0  502  0.21941771672E+03  0.17508396857E+02  0.77174712005E+03  0.82052724050E+03  0.17094050639E+03 0.  0.
        -24    2    5    5    0    0  0.40309588203E+02 -0.25618681725E+02  0.27650592490E+03  0.29210922606E+03  0.81185550999E+02 0.  0.
          5    1    3    3  501    0 -0.14610975465E+03 -0.37014884875E+02  0.65108367251E+02  0.16425392413E+03  0.47000000000E+01 0. -1.
        -13    1    4    4    0    0 -0.24412886667E+02  0.20030592849E+02  0.20418119958E+02  0.37604697950E+02  0.00000000000E+00 0.  1.
         14    1    4    4    0    0 -0.48895075406E+02 -0.52410483122E+00 -0.61391969084E+02  0.78485520657E+02  0.00000000000E+00 0. -1.
         -5    1    5    5    0  502  0.17910812852E+03  0.43127078582E+02  0.49524119515E+03  0.52841801444E+03  0.47000000000E+01 0.  1.
         13    1    6    6    0    0  0.35083206775E+02  0.16407211177E+02  0.59398027315E+02  0.70909474861E+02  0.00000000000E+00 0. -1.
        -14    1    6    6    0    0  0.52263814275E+01 -0.42025892902E+02  0.21710789759E+03  0.22119975120E+03  0.00000000000E+00 0.  1.
</event>
<event>
12    1  0.8500177E-002  0.2210073E+03  0.7818608E-02  0.1133503E+00
         21   -1    0    0  501  502  0.00000000000E+00  0.00000000000E+00  0.18741459662E+03  0.18741459662E+03  0.00000000000E+00 0. -1.
         21   -1    0    0  502  503 -0.00000000000E+00 -0.00000000000E+00 -0.32180040538E+03  0.32180040538E+03  0.00000000000E+00 0. -1.
         -6    2    1    2    0  503 -0.12066095708E+03  0.53724160144E+02 -0.18005885918E+03  0.28353771472E+03  0.17472003593E+03 0.  0.
        -24    2    3    3    0    0 -0.60262959884E+02  0.57510329424E+02 -0.18950912729E+03  0.22210766743E+03  0.80492510717E+02 0.  0.
          6    2    1    2  501    0  0.12066095708E+03 -0.53724160144E+02  0.45673050424E+02  0.22567728728E+03  0.17719723054E+03 0.  0.
         24    2    5    5    0    0  0.30203087717E+02  0.57786112018E+00 -0.34994492944E+02  0.92783802879E+02  0.80446622733E+02 0.  0.
          5    1    5    5  501    0  0.90457869360E+02 -0.54302021265E+02  0.80667543368E+02  0.13289348440E+03  0.47000000000E+01 0. -1.
        -13    1    6    6    0    0  0.40205911039E+02 -0.31063493325E+02 -0.30595075590E+02  0.59308638076E+02  0.00000000000E+00 0.  1.
         14    1    6    6    0    0 -0.10002823322E+02  0.31641354445E+02 -0.43994173535E+01  0.33475164803E+02  0.00000000000E+00 0. -1.
         -5    1    3    3    0  503 -0.60397997192E+02 -0.37861692792E+01  0.94502681094E+01  0.61430047290E+02  0.47000000000E+01 0.  1.
         13    1    4    4    0    0  0.12646478853E+02 -0.99526839113E+01 -0.33400723481E+02  0.37075567069E+02  0.00000000000E+00 0. -1.
        -14    1    4    4    0    0 -0.72909438737E+02  0.67463013335E+02 -0.15610840381E+03  0.18503210036E+03  0.00000000000E+00 0.  1.
</event>
<event>
12    1  0.8500177E-002  0.2378177E+03  0.7818608E-02  0.1121531E+00
         21   -1    0    0  503  502  0.00000000000E+00  0.00000000000E+00  0.13115983753E+03  0.13115983753E+03  0.00000000000E+00 0. -1.
         21   -1    0    0  501  503 -0.00000000000E+00 -0.00000000000E+00 -0.73629355470E+03  0.73629355470E+03  0.00000000000E+00 0.  1.
          6    2    1    2  501    0  0.58965783994E+02  0.15108317655E+03 -0.58370832001E+03  0.63029570862E+03  0.17393730921E+03 0.  0.
         24    2    3    3    0    0 -0.41528004975E+01  0.81088337155E+02 -0.47133012932E+03  0.48355041570E+03  0.71248505577E+02 0.  0.
         -6    2    1    2    0  502 -0.58965783994E+02 -0.15108317655E+03 -0.21425397157E+02  0.23715768361E+03  0.17170215298E+03 0.  0.
        -24    2    5    5    0    0  0.25240120239E+02 -0.93066396305E+02  0.19159108149E+02  0.12704059517E+03  0.80460074597E+02 0.  0.
          5    1    3    3  501    0  0.63118584492E+02  0.69994839393E+02 -0.11237819069E+03  0.14674529291E+03  0.47000000000E+01 0. -1.
        -11    1    4    4    0    0 -0.22237828867E+01  0.93303695867E+02 -0.44152817737E+03  0.45128445163E+03  0.00000000000E+00 0.  1.
         12    1    4    4    0    0 -0.19290176108E+01 -0.12215358712E+02 -0.29801951949E+02  0.32265964070E+02  0.00000000000E+00 0. -1.
         -5    1    5    5    0  502 -0.84205904233E+02 -0.58016780243E+02 -0.40584505306E+02  0.11011708845E+03  0.47000000000E+01 0.  1.
         13    1    6    6    0    0  0.28441555018E+02 -0.95753255100E+02 -0.73933412819E+01  0.10016121709E+03  0.00000000000E+00 0. -1.
        -14    1    6    6    0    0 -0.32014347787E+01  0.26868587955E+01  0.26552449431E+02  0.26879378074E+02  0.00000000000E+00 0.  1.
</event>
<event>
12    1  0.8500177E-002  0.2050184E+03  0.7818608E-02  0.1145642E+00
         21   -1    0    0  501  502  0.00000000000E+00  0.00000000000E+00  0.28811797298E+03  0.28811797298E+03  0.00000000000E+00 0. -1.
         21   -1    0    0  502  503 -0.00000000000E+00 -0.00000000000E+00 -0.14643869736E+03  0.14643869736E+03  0.00000000000E+00 0.  1.
         -6    2    1    2    0  503 -0.71391279347E+02 -0.85073316603E+02  0.54808303291E+02  0.21189304560E+03  0.17193175593E+03 0.  0.
        -24    2    3    3    0    0  0.56016423311E+01 -0.83831706047E+02  0.87732389966E+00  0.11776498324E+03  0.82514775913E+02 0.  0.
          6    2    1    2  501    0  0.71391279347E+02  0.85073316603E+02  0.86870972332E+02  0.22266362475E+03  0.17233206315E+03 0.  0.
         24    2    5    5    0    0  0.72681582839E+02  0.77605939540E+01  0.25624426513E+01  0.10816934479E+03  0.79694427271E+02 0.  0.
          5    1    5    5  501    0 -0.12903034922E+01  0.77312722649E+02  0.84308529680E+02  0.11449427996E+03  0.47000000000E+01 0. -1.
        -13    1    6    6    0    0  0.48293158736E+02  0.42181880745E+02  0.11244209071E+02  0.65099711839E+02  0.00000000000E+00 0.  1.
         14    1    6    6    0    0  0.24388424103E+02 -0.34421286791E+02 -0.86817664202E+01  0.43069632953E+02  0.00000000000E+00 0. -1.
         -5    1    3    3    0  503 -0.76992921678E+02 -0.12416105553E+01  0.53930979392E+02  0.94128062359E+02  0.47000000000E+01 0.  1.
         13    1    4    4    0    0 -0.35609995230E+02 -0.52781950597E+02  0.12467000021E+02  0.64880136857E+02  0.00000000000E+00 0. -1.
        -14    1    4    4    0    0  0.41211637561E+02 -0.31049755450E+02 -0.11589676121E+02  0.52884846380E+02  0.00000000000E+00 0.  1.
</event>
<event>
12    1  0.8500177E-002  0.3869060E+03  0.7818608E-02  0.1048419E+00
         21   -1    0    0  501  502  0.00000000000E+00  0.00000000000E+00  0.39466457639E+03  0.39466457639E+03  0.00000000000E+00 0. -1.
         21   -1    0    0  502  503 -0.00000000000E+00 -0.00000000000E+00 -0.49315844178E+03  0.49315844178E+03  0.00000000000E+00 0.  1.
         -6    2    1    2    0  503  0.13525997950E+03  0.31882471207E+03  0.16413412882E+03  0.42028114749E+03  0.17248701867E+03 0.  0.
        -24    2    3    3    0    0  0.10368792459E+03  0.27585201938E+03  0.71762647080E+02  0.31351960194E+03  0.79367127851E+02 0.  0.
          6    2    1    2  501    0 -0.13525997950E+03 -0.31882471207E+03 -0.26262799421E+03  0.46754187068E+03  0.17227152528E+03 0.  0.
         24    2    5    5    0    0 -0.73147459185E+02 -0.13860812874E+03 -0.20046964662E+03  0.26698830612E+03  0.80820246527E+02 0.  0.
          5    1    5    5  501    0 -0.62112520311E+02 -0.18021658333E+03 -0.62158347590E+02  0.20055356457E+03  0.47000000000E+01 0. -1.
        -13    1    6    6    0    0 -0.35354678394E+02 -0.12277180547E+03 -0.18118649441E+03  0.22170118462E+03  0.00000000000E+00 0.  1.
         14    1    6    6    0    0 -0.37792780791E+02 -0.15836323272E+02 -0.19283152205E+02  0.45287121499E+02  0.00000000000E+00 0. -1.
         -5    1    3    3    0  503  0.31572054903E+02  0.42972692686E+02  0.92371481741E+02  0.10676154554E+03  0.47000000000E+01 0.  1.
         13    1    4    4    0    0  0.82828747922E+02  0.22618585043E+03  0.89258782114E+02  0.25688084904E+03  0.00000000000E+00 0. -1.
        -14    1    4    4    0    0  0.20859176671E+02  0.49666168948E+02 -0.17496135034E+02  0.56638752903E+02  0.00000000000E+00 0.  1.
</event>
<event>
12    1  0.8500177E-002  0.2646121E+03  0.7818608E-02  0.1104470E+00
         21   -1    0    0  501  502  0.00000000000E+00  0.00000000000E+00  0.10440965779E+04  0.10440965779E+04  0.00000000000E+00 0. -1.
         21   -1    0    0  502  503 -0.00000000000E+00 -0.00000000000E+00 -0.10669857404E+03  0.10669857404E+03  0.00000000000E+00 0.  1.
         -6    2    1    2    0  503  0.12388178714E+03 -0.15825434192E+03  0.11774392617E+03  0.28962592220E+03  0.17212904676E+03 0.  0.
        -24    2    3    3    0    0  0.10620216653E+02 -0.28959794270E+02  0.70098229879E+02  0.11119535930E+03  0.80617537872E+02 0.  0.
          6    2    1    2  501    0 -0.12388178714E+03  0.15825434192E+03  0.81965407766E+03  0.86116922970E+03  0.17143074763E+03 0.  0.
         24    2    5    5    0    0 -0.58511982869E+02  0.10538903022E+03  0.28227302390E+03  0.31723132936E+03  0.80169548284E+02 0.  0.
          5    1    5    5  501    0 -0.65369804274E+02  0.52865311698E+02  0.53738105376E+03  0.54393790034E+03  0.47000000000E+01 0. -1.
        -11    1    6    6    0    0 -0.64256794423E+02  0.93243174734E+02  0.28189570925E+03  0.30379008568E+03  0.00000000000E+00 0.  1.
         12    1    6    6    0    0  0.57448115540E+01  0.12145855486E+02  0.37731465550E+00  0.13441243679E+02  0.00000000000E+00 0. -1.
         -5    1    3    3    0  503  0.11326157049E+03 -0.12929454765E+03  0.47645696291E+02  0.17843056290E+03  0.47000000000E+01 0.  1.
         11    1    4    4    0    0  0.35012319138E+02 -0.44686285906E+02  0.52048662578E+02  0.77018114205E+02  0.00000000000E+00 0. -1.
        -12    1    4    4    0    0 -0.24392102485E+02  0.15726491635E+02  0.18049567301E+02  0.34177245099E+02  0.00000000000E+00 0.  1.
</event>
<event>
12    1  0.8500177E-002  0.1742136E+03  0.7818608E-02  0.1173850E+00
         21   -1    0    0  503  502  0.00000000000E+00  0.00000000000E+00  0.19982296442E+03  0.19982296442E+03  0.00000000000E+00 0. -1.
         21   -1    0    0  501  503 -0.00000000000E+00 -0.00000000000E+00 -0.22521669634E+03  0.22521669634E+03  0.00000000000E+00 0. -1.
          6    2    1    2  501    0  0.16523784544E+02  0.25668384073E+02 -0.13491802240E+03  0.22034803359E+03  0.17151816739E+03 0.  0.
         24    2    3    3    0    0  0.73495502860E+02  0.19651957071E+02 -0.11937396247E+03  0.16080240503E+03  0.76285530674E+02 0.  0.
         -6    2    1    2    0  502 -0.16523784544E+02 -0.25668384073E+02  0.10952429048E+03  0.20469162716E+03  0.17020925541E+03 0.  0.
        -24    2    5    5    0    0 -0.39517696589E+02  0.86243419839E+01  0.13044274679E+03  0.15816869877E+03  0.79787213648E+02 0.  0.
          5    1    3    3  501    0 -0.56971718316E+02  0.60164270020E+01 -0.15544059928E+02  0.59545628562E+02  0.47000000000E+01 0. -1.
        -11    1    4    4    0    0  0.43854302873E+02 -0.17382649305E+02 -0.21097157718E+02  0.51676362499E+02  0.00000000000E+00 0.  1.
         12    1    4    4    0    0  0.29641199987E+02  0.37034606376E+02 -0.98276804756E+02  0.10912604253E+03  0.00000000000E+00 0. -1.
         -5    1    5    5    0  502  0.22993912045E+02 -0.34292726057E+02 -0.20918456309E+02  0.46522928389E+02  0.47000000000E+01 0.  1.
         11    1    6    6    0    0 -0.87481204935E+01  0.39454154751E+02  0.90317094464E+02  0.98946134294E+02  0.00000000000E+00 0. -1.
        -12    1    6    6    0    0 -0.30769576096E+02 -0.30829812768E+02  0.40125652328E+02  0.59222564476E+02  0.00000000000E+00 0.  1.
</event>
<event>
12    1  0.8500177E-002  0.1771873E+03  0.7818608E-02  0.1170602E+00
         21   -1    0    0  503  502  0.00000000000E+00  0.00000000000E+00  0.81604880072E+03  0.81604880072E+03  0.00000000000E+00 0.  1.
         21   -1    0    0  501  503 -0.00000000000E+00 -0.00000000000E+00 -0.38846626680E+02  0.38846626680E+02  0.00000000000E+00 0.  1.
          6    2    1    2  501    0 -0.23517062159E+02  0.33022595130E+02  0.34411611634E+03  0.38696499722E+03  0.17228599347E+03 0.  0.
         24    2    3    3    0    0 -0.28550082281E+02 -0.42244062570E+02  0.14162018334E+03  0.17082362234E+03  0.80776021192E+02 0.  0.
         -6    2    1    2    0  502  0.23517062159E+02 -0.33022595130E+02  0.43308605770E+03  0.46793043018E+03  0.17248713029E+03 0.  0.
        -24    2    5    5    0    0 -0.52736874110E+01 -0.82491290110E+02  0.33513164784E+03  0.35438213449E+03  0.80254913480E+02 0.  0.
          5    1    3    3  501    0  0.50330201220E+01  0.75266657700E+02  0.20249593300E+03  0.21614137488E+03  0.47000000000E+01 0. -1.
        -11    1    4    4    0    0  0.18668577831E+01 -0.28540013661E+02  0.35976343766E+01  0.28826385671E+02  0.00000000000E+00 0.  1.
         12    1    4    4    0    0 -0.30416940064E+02 -0.13704048909E+02  0.13802254897E+03  0.14199723667E+03  0.00000000000E+00 0. -1.
         -5    1    5    5    0  502  0.28790749570E+02  0.49468694980E+02  0.97954409862E+02  0.11354829570E+03  0.47000000000E+01 0.  1.
         11    1    6    6    0    0 -0.38624700146E+01 -0.40484021805E+02  0.42783281701E+02  0.59027823010E+02  0.00000000000E+00 0. -1.
        -12    1    6    6    0    0 -0.14112173965E+01 -0.42007268305E+02  0.29234836614E+03  0.29535431148E+03  0.00000000000E+00 0.  1.
</event>
<event>
12    1  0.8500177E-002  0.2274067E+03  0.7818608E-02  0.1128630E+00
         21   -1    0    0  501  502  0.00000000000E+00  0.00000000000E+00  0.18344687276E+03  0.18344687276E+03  0.00000000000E+00 0.  1.
         21   -1    0    0  502  503 -0.00000000000E+00 -0.00000000000E+00 -0.57965365011E+03  0.57965365011E+03  0.00000000000E+00 0.  1.
         -6    2    1    2    0  503  0.18834063144E+02  0.14781950287E+03 -0.47222649648E+03  0.52412944194E+03  0.17178032650E+03 0.  0.
        -24    2    3    3    0    0 -0.16228307248E+02  0.23724279181E+02 -0.11564247851E+03  0.14491545719E+03  0.82468827555E+02 0.  0.
          6    2    1    2  501    0 -0.18834063144E+02 -0.14781950287E+03  0.76019719126E+02  0.23897108093E+03  0.17065418970E+03 0.  0.
         24    2    5    5    0    0 -0.24233694585E+02 -0.15891292853E+03  0.10437189301E+03  0.20769559729E+03  0.80021111448E+02 0.  0.
          5    1    5    5  501    0  0.53996314412E+01  0.11093425658E+02 -0.28352173886E+02  0.31275483635E+02  0.47000000000E+01 0. -1.
        -13    1    6    6    0    0  0.26049171581E+02 -0.61640115346E+02  0.21222104713E+02  0.70202855272E+02  0.00000000000E+00 0.  1.
         14    1    6    6    0    0 -0.50282866166E+02 -0.97272813180E+02  0.83149788299E+02  0.13749274202E+03  0.00000000000E+00 0. -1.
         -5    1    3    3    0  503  0.35062370392E+02  0.12409522369E+03 -0.35658401797E+03  0.37921398475E+03  0.47000000000E+01 0.  1.
         11    1    4    4    0    0  0.25155434317E+02  0.40937140208E+01 -0.61344505614E+01  0.26214229988E+02  0.00000000000E+00 0. -1.
        -12    1    4    4    0    0 -0.41383741565E+02  0.19630565160E+02 -0.10950802795E+03  0.11870122720E+03  0.00000000000E+00 0.  1.
</event>
<event>
12    1  0.8500177E-002  0.1950287E+03  0.7818608E-02  0.1154228E+00
         21   -1    0    0  501  502  0.00000000000E+00  0.00000000000E+00  0.18066907489E+03  0.18066907489E+03  0.00000000000E+00 0.  1.
         21   -1    0    0  502  503 -0.00000000000E+00 -0.00000000000E+00 -0.52097014532E+03  0.52097014532E+03  0.00000000000E+00 0. -1.
         -6    2    1    2    0  503 -0.67043323860E+02 -0.62010541335E+02 -0.44162652269E+03  0.48277343993E+03  0.17232554729E+03 0.  0.
        -24    2    3    3    0    0 -0.65759250621E+02 -0.37625388275E+02 -0.44446952619E+03  0.45774431284E+03  0.78973079883E+02 0.  0.
          6    2    1    2  501    0  0.67043323860E+02  0.62010541335E+02  0.10132545226E+03  0.21886578028E+03  0.17115860479E+03 0.  0.
         24    2    5    5    0    0  0.27656720713E+02  0.88043029206E+02  0.11691510117E+03  0.16892459402E+03  0.79686312437E+02 0.  0.
          5    1    5    5  501    0  0.39386603147E+02 -0.26032487871E+02 -0.15589648917E+02  0.49941186265E+02  0.47000000000E+01 0. -1.
        -13    1    6    6    0    0  0.34835091008E+01  0.39287407292E+02  0.10643165051E+03  0.11350476394E+03  0.00000000000E+00 0.  1.
         14    1    6    6    0    0  0.24173211612E+02  0.48755621914E+02  0.10483450663E+02  0.55419830076E+02  0.00000000000E+00 0. -1.
         -5    1    3    3    0  503 -0.12840732393E+01 -0.24385153060E+02  0.28430034987E+01  0.25029127087E+02  0.47000000000E+01 0.  1.
         13    1    4    4    0    0 -0.27592025529E+02  0.20680751115E+02 -0.87756362111E+02  0.94287816977E+02  0.00000000000E+00 0. -1.
        -14    1    4    4    0    0 -0.38167225093E+02 -0.58306139390E+02 -0.35671316408E+03  0.36345649586E+03  0.00000000000E+00 0.  1.
</event>
<event>
12    1  0.8500177E-002  0.1976465E+03  0.7818608E-02  0.1151853E+00
         21   -1    0    0  503  502  0.00000000000E+00  0.00000000000E+00  0.46369771334E+03  0.46369771334E+03  0.00000000000E+00 0.  1.
         21   -1    0    0  501  503 -0.00000000000E+00 -0.00000000000E+00 -0.11381383931E+03  0.11381383931E+03  0.00000000000E+00 0.  1.
          6    2    1    2  501    0 -0.97131577704E+02  0.56407829120E+01  0.27032368505E+02  0.19896532430E+03  0.17143537998E+03 0.  0.
         24    2    3    3    0    0 -0.40695981726E+02 -0.21866926576E+02 -0.50986022350E+02  0.98712594233E+02  0.70783305790E+02 0.  0.
         -6    2    1    2    0  502  0.97131577704E+02 -0.56407829120E+01  0.32285150553E+03  0.37854622836E+03  0.17204008417E+03 0.  0.
        -24    2    5    5    0    0  0.30295566727E+02 -0.55033533899E+02  0.23460718712E+03  0.25723734185E+03  0.84758519213E+02 0.  0.
          5    1    3    3  501    0 -0.56435595978E+02  0.27507709488E+02  0.78018390855E+02  0.10025273007E+03  0.47000000000E+01 0. -1.
        -11    1    4    4    0    0 -0.54640757295E+02 -0.28982607056E+02 -0.21777981042E+02  0.65573503245E+02  0.00000000000E+00 0.  1.
         12    1    4    4    0    0  0.13944775570E+02  0.71156804802E+01 -0.29208041308E+02  0.33139090987E+02  0.00000000000E+00 0. -1.
         -5    1    5    5    0  502  0.66836010977E+02  0.49392750987E+02  0.88244318409E+02  0.12130888650E+03  0.47000000000E+01 0.  1.
         11    1    6    6    0    0 -0.22887934523E+02  0.68318843722E+01  0.55834682385E+02  0.60729267638E+02  0.00000000000E+00 0. -1.
        -12    1    6    6    0    0  0.53183501250E+02 -0.61865418271E+02  0.17877250473E+03  0.19650807421E+03  0.00000000000E+00 0.  1.
</event>
<event>
12    1  0.8500177E-002  0.2314651E+03  0.7818608E-02  0.1125797E+00
         21   -1    0    0  503  502  0.00000000000E+00  0.00000000000E+00  0.58466983476E+02  0.58466983476E+02  0.00000000000E+00 0. -1.
         21   -1    0    0  501  503 -0.00000000000E+00 -0.00000000000E+00 -0.10155503982E+04  0.10155503982E+04  0.00000000000E+00 0. -1.
          6    2    1    2  501    0  0.15374687676E+03 -0.21112007798E+01 -0.30819417788E+03  0.38543446814E+03  0.17301305923E+03 0.  0.
         24    2    3    3    0    0  0.13483164490E+03  0.52266504454E+02 -0.17629844024E+03  0.24144385584E+03  0.79389139904E+02 0.  0.
         -6    2    1    2    0  502 -0.15374687676E+03  0.21112007798E+01 -0.64888923683E+03  0.68858291353E+03  0.17160019769E+03 0.  0.
        -24    2    5    5    0    0 -0.14892308759E+03 -0.33365295445E+02 -0.37708532435E+03  0.41439081378E+03  0.78962495811E+02 0.  0.
          5    1    3    3  501    0  0.18915231856E+02 -0.54377705233E+02 -0.13189573764E+03  0.14399061230E+03  0.47000000000E+01 0. -1.
        -11    1    4    4    0    0  0.20597335487E+02 -0.94323987637E+01 -0.70229181347E+02  0.73792670966E+02  0.00000000000E+00 0.  1.
         12    1    4    4    0    0  0.11423430942E+03  0.61698903217E+02 -0.10606925889E+03  0.16765118487E+03  0.00000000000E+00 0. -1.
         -5    1    5    5    0  502 -0.48237891689E+01  0.35476496225E+02 -0.27180391247E+03  0.27419209975E+03  0.47000000000E+01 0.  1.
         13    1    6    6    0    0 -0.14546038187E+02 -0.15681237095E+02 -0.13725984484E+03  0.13891635408E+03  0.00000000000E+00 0. -1.
        -14    1    6    6    0    0 -0.13437704940E+03 -0.17684058350E+02 -0.23982547951E+03  0.27547445970E+03  0.00000000000E+00 0.  1.
</event>
<event>
12    1  0.8500177E-002  0.2588193E+03  0.7818608E-02  0.1107941E+00
         21   -1    0    0  501  502  0.00000000000E+00  0.00000000000E+00  0.26341353444E+03  0.26341353444E+03  0.00000000000E+00 0.  1.
         21   -1    0    0  502  503 -0.00000000000E+00 -0.00000000000E+00 -0.29863869545E+03  0.29863869545E+03  0.00000000000E+00 0. -1.
         -6    2    1    2    0  503  0.12450930321E+03  0.14806297868E+03 -0.12655672514E+03  0.28759115895E+03  0.17107559085E+03 0.  0.
        -24    2    3    3    0    0  0.48914655097E+02  0.15433205443E+03 -0.10420156161E+03  0.20837187171E+03  0.79685914509E+02 0.  0.
          6    2    1    2  501    0 -0.12450930321E+03 -0.14806297868E+03  0.91331564127E+02  0.27446107094E+03  0.17193665292E+03 0.  0.
         24    2    5    5    0    0 -0.94561893205E+02 -0.15567197851E+03  0.24517233749E+02  0.20069801116E+03  0.80640438943E+02 0.  0.
          5    1    5    5  501    0 -0.29947410007E+02  0.76089998320E+01  0.66814330378E+02  0.73763059782E+02  0.47000000000E+01 0. -1.
        -11    1    6    6    0    0 -0.62244819026E+02 -0.12568621539E+03  0.51035127010E+02  0.14925155417E+03  0.00000000000E+00 0.  1.
         12    1    6    6    0    0 -0.32317074179E+02 -0.29985763123E+02 -0.26517893261E+02  0.51446456987E+02  0.00000000000E+00 0. -1.
         -5    1    3    3    0  503  0.75594648114E+02 -0.62690757468E+01 -0.22355163528E+02  0.79219287238E+02  0.47000000000E+01 0.  1.
         13    1    4    4    0    0  0.53907339604E+02  0.43698277151E+02 -0.34279262059E+02  0.77399021289E+02  0.00000000000E+00 0. -1.
        -14    1    4    4    0    0 -0.49926845070E+01  0.11063377728E+03 -0.69922299554E+02  0.13097285042E+03  0.00000000000E+00 0.  1.
</event>
<event>
12    1  0.8500177E-002  0.2618725E+03  0.7818608E-02  0.1106309E+00
         21   -1    0    0  501  502  0.00000000000E+00  0.00000000000E+00  0.22713748962E+03  0.22713748962E+03  0.00000000000E+00 0.  1.
         21   -1    0    0  502  503 -0.00000000000E+00 -0.00000000000E+00 -0.43805932353E+03  0.43805932353E+03  0.00000000000E+00 0.  1.
         -6    2    1    2    0  503  0.95499810843E+02 -0.17131848900E+03 -0.29210457265E+03  0.39102930064E+03  0.17061240884E+03 0.  0.
        -24    2    3    3    0    0  0.10983666455E+03 -0.18968550815E+03 -0.24714313575E+03  0.34017152272E+03  0.81192674798E+02 0.  0.
          6    2    1    2  501    0 -0.95499810843E+02  0.17131848900E+03  0.81182738737E+02  0.27416751251E+03  0.17351354213E+03 0.  0.
         24    2    5    5    0    0 -0.55965059950E+02  0.69811148404E+02 -0.25239800355E+02  0.12180418506E+03  0.78698968228E+02 0.  0.
          5    1    5    5  501    0 -0.39534750893E+02  0.10150734060E+03  0.10642253909E+03  0.15236332744E+03  0.47000000000E+01 0. -1.
        -13    1    6    6    0    0 -0.19534220746E+01  0.20713512431E+02  0.25498687477E+02  0.32909702491E+02  0.00000000000E+00 0.  1.
         14    1    6    6    0    0 -0.54011637875E+02  0.49097635973E+02 -0.50738487832E+02  0.88894482571E+02  0.00000000000E+00 0. -1.
         -5    1    3    3    0  503 -0.14336853703E+02  0.18367019153E+02 -0.44961436899E+02  0.50857777918E+02  0.47000000000E+01 0.  1.
         11    1    4    4    0    0  0.14915292681E+01  0.14870698704E+01  0.51719877488E+01  0.55843973382E+01  0.00000000000E+00 0. -1.
        -12    1    4    4    0    0  0.10834513528E+03 -0.19117257802E+03 -0.25231512350E+03  0.33458712538E+03  0.00000000000E+00 0.  1.
</event>
<event>
12    1  0.8500177E-002  0.1724628E+03  0.7818608E-02  0.1175585E+00
         21   -1    0    0  503  502  0.00000000000E+00  0.00000000000E+00  0.30895359916E+02  0.30895359916E+02  0.00000000000E+00 0.  1.
         21   -1    0    0  501  503 -0.00000000000E+00 -0.00000000000E+00 -0.14772300822E+04  0.14772300822E+04  0.00000000000E+00 0.  1.
          6    2    1    2  501    0  0.12093067201E+02  0.12108466154E+02 -0.11693316810E+04  0.11818217395E+04  0.17050861098E+03 0.  0.
         24    2    3    3    0    0 -0.34814650414E+02  0.47038581601E+02 -0.87678220339E+03  0.88344658333E+03  0.91138056711E+02 0.  0.
         -6    2    1    2    0  502 -0.12093067201E+02 -0.12108466154E+02 -0.27700304126E+03  0.32630370264E+03  0.17161166704E+03 0.  0.
        -24    2    5    5    0    0  0.39517492265E+01  0.58318764763E+02 -0.19312294875E+03  0.21550933948E+03  0.75704077988E+02 0.  0.
          5    1    3    3  501    0  0.46907717615E+02 -0.34930115447E+02 -0.29254947763E+03  0.29837515613E+03  0.47000000000E+01 0. -1.
        -13    1    4    4    0    0 -0.57212267293E+02  0.10204336876E+02 -0.65077304525E+03  0.65336278471E+03  0.00000000000E+00 0.  1.
         14    1    4    4    0    0  0.22397616878E+02  0.36834244724E+02 -0.22600915814E+03  0.23008379862E+03  0.00000000000E+00 0. -1.
         -5    1    5    5    0  502 -0.16044816427E+02 -0.70427230917E+02 -0.83880092510E+02  0.11079436316E+03  0.47000000000E+01 0.  1.
         13    1    6    6    0    0  0.10832628602E+02  0.87199447609E+01 -0.14628395091E+03  0.14694345025E+03  0.00000000000E+00 0. -1.
        -14    1    6    6    0    0 -0.68808793750E+01  0.49598820002E+02 -0.46838997838E+02  0.68565889224E+02  0.00000000000E+00 0.  1.
</event>
<event>
12    1  0.8500177E-002  0.2179623E+03  0.7818608E-02  0.1135505E+00
         21   -1    0    0  501  502  0.00000000000E+00  0.00000000000E+00  0.13698904552E+03  0.13698904552E+03  0.00000000000E+00 0. -1.
         21   -1    0    0  502  503 -0.00000000000E+00 -0.00000000000E+00 -0.34688803477E+03  0.34688803477E+03  0.00000000000E+00 0.  1.
         -6    2    1    2    0  503  0.14644529715E+02  0.13194077703E+03 -0.11698961008E+03  0.24693885608E+03  0.17224807367E+03 0.  0.
        -24    2    3    3    0    0  0.39387936667E+02  0.71930780177E+01 -0.44039142052E+02  0.10024841542E+03  0.80666900491E+02 0.  0.
          6    2    1    2  501    0 -0.14644529715E+02 -0.13194077703E+03 -0.92909379169E+02  0.23693822421E+03  0.17287202915E+03 0.  0.
         24    2    5    5    0    0  0.53904454735E+02 -0.83774933016E+02 -0.24599413249E+02  0.12873816302E+03  0.77746085711E+02 0.  0.
          5    1    5    5  501    0 -0.68548984450E+02 -0.48165844010E+02 -0.68309965920E+02  0.10820006119E+03  0.47000000000E+01 0. -1.
        -13    1    6    6    0    0 -0.55834496327E+01 -0.45668586537E+02 -0.34356898974E+02  0.57421173910E+02  0.00000000000E+00 0.  1.
         14    1    6    6    0    0  0.59487904367E+02 -0.38106346479E+02  0.97574857248E+01  0.71316989110E+02  0.00000000000E+00 0. -1.
         -5    1    3    3    0  503 -0.24743406952E+02  0.12474769901E+03 -0.72950468024E+02  0.14669044066E+03  0.47000000000E+01 0.  1.
         13    1    4    4    0    0 -0.11286637591E+02  0.27473872119E+02  0.64423920750E+00  0.29708868734E+02  0.00000000000E+00 0. -1.
        -14    1    4    4    0    0  0.50674574258E+02 -0.20280794101E+02 -0.44683381260E+02  0.70539546684E+02  0.00000000000E+00 0.  1.
</event>
<event>
12    1  0.8500177E-002  0.1895420E+03  0.7818608E-02  0.1160481E+00
         21   -1    0    0  501  502  0.00000000000E+00  0.00000000000E+00  0.17614398983E+03  0.17614398983E+03  0.00000000000E+00 0. -1.
         21   -1    0    0  502  503 -0.00000000000E+00 -0.00000000000E+00 -0.20702189600E+03  0.20702189600E+03  0.00000000000E+00 0. -1.
         -6    2    1    2    0  503  0.14237522622E+02 -0.67339444712E+02  0.27389218435E+02  0.19151071423E+03  0.17660372735E+03 0.  0.
        -24    2    3    3    0    0 -0.23842598467E+02 -0.10384202318E+03 -0.14051968753E+01  0.13123018495E+03  0.76601250537E+02 0.  0.
          6    2    1    2  501    0 -0.14237522622E+02  0.67339444712E+02 -0.58267124608E+02  0.19165517160E+03  0.16911339133E+03 0.  0.
         24    2    5    5    0    0 -0.26614828303E+02  0.55589479996E+02  0.27669610038E+02  0.10391423629E+03  0.78955821906E+02 0.  0.
          5    1    5    5  501    0  0.12377305681E+02  0.11749964716E+02 -0.85936734646E+02  0.87740935306E+02  0.47000000000E+01 0. -1.
        -11    1    6    6    0    0  0.12345667684E+00 -0.19488639769E+02  0.11383137491E+02  0.22569850260E+02  0.00000000000E+00 0.  1.
         12    1    6    6    0    0 -0.26738284980E+02  0.75078119765E+02  0.16286472546E+02  0.81344386034E+02  0.00000000000E+00 0. -1.
         -5    1    3    3    0  503  0.38080121089E+02  0.36502578473E+02  0.28794415310E+02  0.60280529281E+02  0.47000000000E+01 0.  1.
         11    1    4    4    0    0  0.12793417001E+02 -0.64855949455E+02 -0.27632329285E+02  0.71648526293E+02  0.00000000000E+00 0. -1.
        -12    1    4    4    0    0 -0.36636015468E+02 -0.38986073730E+02  0.26227132409E+02  0.59581658660E+02  0.00000000000E+00 0.  1.
</event>
<event>
12    1  0.8500177E-002  0.2068876E+03  0.7818608E-02  0.1144365E+00
         21   -1    0    0  501  502  0.00000000000E+00  0.00000000000E+00  0.65186317574E+02  0.65186317574E+02  0.00000000000E+00 0.  1.
         21   -1    0    0  502  503 -0.00000000000E+00 -0.00000000000E+00 -0.77816448394E+03  0.77816448394E+03  0.00000000000E+00 0.  1.
         -6    2    1    2    0  503 -0.93402731178E+02  0.67066786582E+02 -0.52532767644E+03  0.56403879040E+03  0.17014277941E+03 0.  0.
        -24    2    3    3    0    0 -0.70281581640E+02 -0.25487815946E+02 -0.26816867454E+03  0.28971455840E+03  0.80193253226E+02 0.  0.
          6    2    1    2  501    0  0.93402731178E+02 -0.67066786582E+02 -0.18765048992E+03  0.27931201111E+03  0.17198973554E+03 0.  0.
         24    2    5    5    0    0  0.99218206857E+02 -0.42326772056E+02 -0.56993848763E+02  0.14612366344E+03  0.80423989059E+02 0.  0.
          5    1    5    5  501    0 -0.58154756790E+01 -0.24740014526E+02 -0.13065664116E+03  0.13318834767E+03  0.47000000000E+01 0. -1.
        -11    1    6    6    0    0  0.10596762688E+03 -0.55321349266E+02 -0.54036621043E+02  0.13118515939E+03  0.00000000000E+00 0.  1.
         12    1    6    6    0    0 -0.67494200206E+01  0.12994577210E+02 -0.29572277196E+01  0.14938504050E+02  0.00000000000E+00 0. -1.
         -5    1    3    3    0  503 -0.23121149538E+02  0.92554602529E+02 -0.25715900190E+03  0.27432423200E+03  0.47000000000E+01 0.  1.
         11    1    4    4    0    0 -0.85274740906E+02 -0.87015966781E+01 -0.19146440616E+03  0.20977635245E+03  0.00000000000E+00 0. -1.
        -12    1    4    4    0    0  0.14993159266E+02 -0.16786219268E+02 -0.76704268387E+02  0.79938205952E+02  0.00000000000E+00 0.  1.
</event>
<event>
12    1  0.8500177E-002  0.1770522E+03  0.7818608E-02  0.1176023E+00
         21   -1    0    0  501  502  0.00000000000E+00  0.00000000000E+00  0.41735629750E+02  0.41735629750E+02  0.00000000000E+00 0. -1.
         21   -1    0    0  502  503 -0.00000000000E+00 -0.00000000000E+00 -0.10320818445E+04  0.10320818445E+04  0.00000000000E+00 0.  1.
         -6    2    1    2    0  503  0.12823984151E+02  0.37926564416E+02 -0.83322363514E+03  0.85182692884E+03  0.17246626247E+03 0.  0.
        -24    2    3    3    0    0 -0.44697365805E+02  0.43959680907E+02 -0.69005424317E+03  0.69734499142E+03  0.78643947496E+02 0.  0.
          6    2    1    2  501    0 -0.12823984151E+02 -0.37926564416E+02 -0.15712257964E+03  0.22199054544E+03  0.15162261827E+03 0.  0.
         24    2    5    5    0    0 -0.56139934784E+02 -0.11351584914E+00 -0.91225803311E+02  0.13440873596E+03  0.81190245401E+02 0.  0.
          5    1    5    5  501    0  0.43315950633E+02 -0.37813048567E+02 -0.65896776330E+02  0.87581809480E+02  0.47000000000E+01 0. -1.
        -11    1    6    6    0    0 -0.19608443151E+02  0.46887638091E+01 -0.95234812905E+02  0.97345493670E+02  0.00000000000E+00 0.  1.
         12    1    6    6    0    0 -0.36531491633E+02 -0.48022796582E+01  0.40090095938E+01  0.37063242287E+02  0.00000000000E+00 0. -1.
         -5    1    3    3    0  503  0.57521349955E+02 -0.60331164910E+01 -0.14316939197E+03  0.15448193743E+03  0.47000000000E+01 0.  1.
         11    1    4    4    0    0  0.15440848515E+02  0.33534901415E+02 -0.18768750815E+03  0.19128410841E+03  0.00000000000E+00 0. -1.
        -12    1    4    4    0    0 -0.60138214320E+02  0.10424779492E+02 -0.50236673502E+03  0.50606088300E+03  0.00000000000E+00 0.  1.
</event>
<event>
12    1  0.8500177E-002  0.2040872E+03  0.7818608E-02  0.1147959E+00
         21   -1    0    0  503  502  0.00000000000E+00  0.00000000000E+00  0.10216237106E+03  0.10216237106E+03  0.00000000000E+00 0.  1.
         21   -1    0    0  501  503 -0.00000000000E+00 -0.00000000000E+00 -0.57297398769E+03  0.57297398769E+03  0.00000000000E+00 0. -1.
          6    2    1    2  501    0  0.97728299583E+02 -0.47153212827E+02 -0.42177872001E+03  0.46524163773E+03  0.16364060255E+03 0.  0.
         24    2    3    3    0    0  0.54695017025E+02  0.23196616337E+02 -0.14289830369E+03  0.17438542157E+03  0.80378617561E+02 0.  0.
         -6    2    1    2    0  502 -0.97728299583E+02  0.47153212827E+02 -0.49032896616E+02  0.20989472103E+03  0.17285057983E+03 0.  0.
        -24    2    5    5    0    0 -0.11309774364E+03  0.23367273340E+02 -0.84692640737E+02  0.16411592595E+03  0.80150263112E+02 0.  0.
          5    1    3    3  501    0  0.43033282558E+02 -0.70349829164E+02 -0.27888041632E+03  0.29085621616E+03  0.47000000000E+01 0. -1.
        -13    1    4    4    0    0 -0.13727586950E+02  0.94379400453E+01 -0.15316955212E+01  0.16729239281E+02  0.00000000000E+00 0.  1.
         14    1    4    4    0    0  0.68422603975E+02  0.13758676291E+02 -0.14136660817E+03  0.15765618229E+03  0.00000000000E+00 0. -1.
         -5    1    5    5    0  502  0.15369444054E+02  0.23785939487E+02  0.35659744121E+02  0.45778795076E+02  0.47000000000E+01 0.  1.
         13    1    6    6    0    0  0.73594013151E+01 -0.12717923488E+02 -0.67230969377E+01  0.16158787022E+02  0.00000000000E+00 0. -1.
        -14    1    6    6    0    0 -0.12045714495E+03  0.36085196828E+02 -0.77969543800E+02  0.14795713893E+03  0.00000000000E+00 0.  1.
</event>
<event>
12    1  0.8500177E-002  0.1854011E+03  0.7818608E-02  0.1164562E+00
         21   -1    0    0  503  502  0.00000000000E+00  0.00000000000E+00  0.56642812676E+02  0.56642812676E+02  0.00000000000E+00 0.  1.
         21   -1    0    0  501  503 -0.00000000000E+00 -0.00000000000E+00 -0.78648257921E+03  0.78648257921E+03  0.00000000000E+00 0.  1.
          6    2    1    2  501    0 -0.29161165578E+02  0.57194146736E+02 -0.57436398701E+03  0.60116197615E+03  0.16546959840E+03 0.  0.
         24    2    3    3    0    0 -0.80887302181E+02  0.40068969158E+02 -0.40994224467E+03  0.42788340197E+03  0.82965557755E+02 0.  0.
         -6    2    1    2    0  502  0.29161165578E+02 -0.57194146736E+02 -0.15547577952E+03  0.24196341573E+03  0.17393111434E+03 0.  0.
        -24    2    5    5    0    0  0.47572208648E+02  0.24653091343E+02 -0.49547489756E+02  0.10675679807E+03  0.77917714572E+02 0.  0.
          5    1    3    3  501    0  0.51726136603E+02  0.17125177578E+02 -0.16442174235E+03  0.17327857418E+03  0.47000000000E+01 0. -1.
        -13    1    4    4    0    0 -0.64200179956E+02  0.42178605850E+02 -0.40201659653E+03  0.40928967955E+03  0.00000000000E+00 0.  1.
         14    1    4    4    0    0 -0.16687122225E+02 -0.21096366922E+01 -0.79256481386E+01  0.18593722423E+02  0.00000000000E+00 0. -1.
         -5    1    5    5    0  502 -0.18411043070E+02 -0.81847238079E+02 -0.10592828976E+03  0.13520661766E+03  0.47000000000E+01 0.  1.
         11    1    6    6    0    0  0.58536188499E+01  0.49180412687E+01 -0.59129389255E+02  0.59621612334E+02  0.00000000000E+00 0. -1.
        -12    1    6    6    0    0  0.41718589798E+02  0.19735050074E+02  0.95818994993E+01  0.47135185734E+02  0.00000000000E+00 0.  1.
</event>
<event>
12    1  0.8500177E-002  0.3279359E+03  0.7818608E-02  0.1072071E+00
         21   -1    0    0  501  502  0.00000000000E+00  0.00000000000E+00  0.13044158012E+04  0.13044158012E+04  0.00000000000E+00 0. -1.
         21   -1    0    0  502  503 -0.00000000000E+00 -0.00000000000E+00 -0.23100093022E+03  0.23100093022E+03  0.00000000000E+00 0.  1.
         -6    2    1    2    0  503  0.27142155152E+03  0.64583038317E+02 -0.79066435508E+02  0.33718674177E+03  0.17205455569E+03 0.  0.
        -24    2    3    3    0    0  0.68782447292E+02  0.17639963517E+02 -0.72450196783E+02  0.12902304789E+03  0.79722785354E+02 0.  0.
          6    2    1    2  501    0 -0.27142155152E+03 -0.64583038317E+02  0.11524813065E+04  0.11982299896E+04  0.17234070562E+03 0.  0.
         24    2    5    5    0    0 -0.73291856142E+02 -0.61157491832E+02  0.35374201212E+03  0.37526361067E+03  0.81101364782E+02 0.  0.
          5    1    5    5  501    0 -0.19812969538E+03 -0.34255464853E+01  0.79873929433E+03  0.82296637894E+03  0.47000000000E+01 0. -1.
        -11    1    6    6    0    0 -0.79897037663E+02 -0.73230303777E+02  0.33440678583E+03  0.35153109738E+03  0.00000000000E+00 0.  1.
         12    1    6    6    0    0  0.66051815211E+01  0.12072811945E+02  0.19335226297E+02  0.23732513292E+02  0.00000000000E+00 0. -1.
         -5    1    3    3    0  503  0.20263910423E+03  0.46943074800E+02 -0.66162387248E+01  0.20816369388E+03  0.47000000000E+01 0.  1.
         11    1    4    4    0    0  0.62371388009E+02  0.39618677186E+02 -0.27990115402E+02  0.79014404916E+02  0.00000000000E+00 0. -1.
        -12    1    4    4    0    0  0.64110592830E+01 -0.21978713669E+02 -0.44460081381E+02  0.50008642973E+02  0.00000000000E+00 0.  1.
</event>
<event>
12    1  0.8500177E-002  0.1843973E+03  0.7818608E-02  0.1165191E+00
         21   -1    0    0  501  502  0.00000000000E+00  0.00000000000E+00  0.81478301981E+03  0.81478301981E+03  0.00000000000E+00 0.  1.
         21   -1    0    0  502  503 -0.00000000000E+00 -0.00000000000E+00 -0.66860610497E+02  0.66860610497E+02  0.00000000000E+00 0.  1.
         -6    2    1    2    0  503  0.17612945918E+02  0.63437250459E+01  0.91795884100E+02  0.20009805322E+03  0.17681144717E+03 0.  0.
        -24    2    3    3    0    0 -0.38554916294E+02  0.47895975926E+02  0.26751323427E+02  0.10452450472E+03  0.80182496230E+02 0.  0.
          6    2    1    2  501    0 -0.17612945918E+02 -0.63437250459E+01  0.65612652522E+03  0.68154557710E+03  0.18344453618E+03 0.  0.
         24    2    5    5    0    0  0.21738038815E+02  0.28289904382E+01  0.11182511113E+03  0.13572623145E+03  0.73730651054E+02 0.  0.
          5    1    5    5  501    0 -0.39350984732E+02 -0.91727154841E+01  0.54430141408E+03  0.54581934565E+03  0.47000000000E+01 0. -1.
        -13    1    6    6    0    0  0.36303684660E+02  0.28595342730E+02  0.56604537929E+02  0.73073421022E+02  0.00000000000E+00 0.  1.
         14    1    6    6    0    0 -0.14565645845E+02 -0.25766352292E+02  0.55220573203E+02  0.62652810425E+02  0.00000000000E+00 0. -1.
         -5    1    3    3    0  503  0.56167862212E+02 -0.41552250881E+02  0.65044560673E+02  0.95573548494E+02  0.47000000000E+01 0.  1.
         11    1    4    4    0    0  0.18000758781E+02  0.32741408718E+02  0.26787053008E+02  0.45973616024E+02  0.00000000000E+00 0. -1.
        -12    1    4    4    0    0 -0.56555675076E+02  0.15154567209E+02 -0.35729580574E-01  0.58550888697E+02  0.00000000000E+00 0.  1.
</event>
<event>
12    1  0.8500177E-002  0.2130274E+03  0.7818608E-02  0.1139448E+00
         21   -1    0    0  501  502  0.00000000000E+00  0.00000000000E+00  0.10907663259E+03  0.10907663259E+03  0.00000000000E+00 0.  1.
         21   -1    0    0  502  503 -0.00000000000E+00 -0.00000000000E+00 -0.43591077391E+03  0.43591077391E+03  0.00000000000E+00 0.  1.
         -6    2    1    2    0  503 -0.37702095318E+01  0.12400457083E+03 -0.10207936422E+03  0.23622206445E+03  0.17317424481E+03 0.  0.
        -24    2    3    3    0    0  0.31775974211E+02  0.25788168670E+02 -0.39075091700E+00  0.90370575230E+02  0.80572613217E+02 0.  0.
          6    2    1    2  501    0  0.37702095318E+01 -0.12400457083E+03 -0.22475477710E+03  0.30876534205E+03  0.17155167897E+03 0.  0.
         24    2    5    5    0    0 -0.56208594007E+01 -0.52740495698E+02 -0.21558261344E+03  0.23615006014E+03  0.80484990785E+02 0.  0.
          5    1    5    5  501    0  0.93910689324E+01 -0.71264075137E+02 -0.91721636581E+01  0.72615281910E+02  0.47000000000E+01 0. -1.
        -13    1    6    6    0    0  0.11814755466E+00 -0.77236425325E+01 -0.17529789665E+03  0.17546800615E+03  0.00000000000E+00 0.  1.
         14    1    6    6    0    0 -0.57390069553E+01 -0.45016853165E+02 -0.40284716785E+02  0.60682053988E+02  0.00000000000E+00 0. -1.
         -5    1    3    3    0  503 -0.35546183743E+02  0.98216402164E+02 -0.10168861330E+03  0.14585148922E+03  0.47000000000E+01 0.  1.
         11    1    4    4    0    0  0.74555415530E+00  0.37496038834E+02 -0.28333271212E+02  0.47003010933E+02  0.00000000000E+00 0. -1.
        -12    1    4    4    0    0  0.31030420055E+02 -0.11707870163E+02  0.27942520295E+02  0.43367564297E+02  0.00000000000E+00 0.  1.
</event>
<event>
12    1  0.8500177E-002  0.2743794E+03  0.7818608E-02  0.1098826E+00
         21   -1    0    0  501  502  0.00000000000E+00  0.00000000000E+00  0.14015021648E+03  0.14015021648E+03  0.00000000000E+00 0. -1.
         21   -1    0    0  502  503 -0.00000000000E+00 -0.00000000000E+00 -0.84789609956E+03  0.84789609956E+03  0.00000000000E+00 0. -1.
         -6    2    1    2    0  503 -0.21302081940E+03 -0.95865857130E+01 -0.54550945119E+02  0.27956365631E+03  0.17236664466E+03 0.  0.
        -24    2    3    3    0    0 -0.11065734025E+03 -0.24481197971E+02  0.33798595257E+02  0.14344656472E+03  0.81180021458E+02 0.  0.
          6    2    1    2  501    0  0.21302081940E+03  0.95865857130E+01 -0.65319493796E+03  0.70848265973E+03  0.17266812108E+03 0.  0.
         24    2    5    5    0    0  0.52702891773E+02 -0.31803925332E+02 -0.33192314417E+03  0.34702357794E+03  0.80394686033E+02 0.  0.
          5    1    5    5  501    0  0.16031792763E+03  0.41390511045E+02 -0.32127179379E+03  0.36145908179E+03  0.47000000000E+01 0. -1.
        -11    1    6    6    0    0  0.36342913697E+02 -0.22671175327E+02 -0.56191256283E+02  0.70655833795E+02  0.00000000000E+00 0.  1.
         12    1    6    6    0    0  0.16359978076E+02 -0.91327500047E+01 -0.27573188788E+03  0.27636774414E+03  0.00000000000E+00 0. -1.
         -5    1    3    3    0  503 -0.10236347915E+03  0.14894612258E+02 -0.88349540375E+02  0.13611709159E+03  0.47000000000E+01 0.  1.
         13    1    4    4    0    0 -0.46532727771E+02  0.27324365604E+02 -0.98729961455E+00  0.53971200376E+02  0.00000000000E+00 0. -1.
        -14    1    4    4    0    0 -0.64124612480E+02 -0.51805563575E+02  0.34785894871E+02  0.89475364347E+02  0.00000000000E+00 0.  1.
</event>
<event>
12    1  0.8500177E-002  0.2393850E+03  0.7818608E-02  0.1122825E+00
         21   -1    0    0  503  502  0.00000000000E+00  0.00000000000E+00  0.19254539923E+03  0.19254539923E+03  0.00000000000E+00 0. -1.
         21   -1    0    0  501  503 -0.00000000000E+00 -0.00000000000E+00 -0.33977173751E+03  0.33977173751E+03  0.00000000000E+00 0. -1.
          6    2    1    2  501    0 -0.53525890811E+02 -0.13291727839E+03 -0.18408016466E+03  0.29011193227E+03  0.17247435270E+03 0.  0.
         24    2    3    3    0    0 -0.98665222637E+01 -0.13415375937E+03 -0.76875265868E+02  0.17425577286E+03  0.79753924403E+02 0.  0.
         -6    2    1    2    0  502  0.53525890811E+02  0.13291727839E+03  0.36853826379E+02  0.24220520448E+03  0.19176322034E+03 0.  0.
        -24    2    5    5    0    0  0.81372159280E+02  0.15328031127E+03  0.61433941917E+02  0.19958666560E+03  0.77100102067E+02 0.  0.
          5    1    3    3  501    0 -0.43659368547E+02  0.12364809773E+01 -0.10720489879E+03  0.11585615941E+03  0.47000000000E+01 0. -1.
        -11    1    4    4    0    0  0.18533100682E+01 -0.65270441080E+02  0.63304003813E+01  0.65602890225E+02  0.00000000000E+00 0.  1.
         12    1    4    4    0    0 -0.11719832332E+02 -0.68883318290E+02 -0.83205666249E+02  0.10865288263E+03  0.00000000000E+00 0. -1.
         -5    1    5    5    0  502 -0.27846268469E+02 -0.20363032877E+02 -0.24580115538E+02  0.42618538871E+02  0.47000000000E+01 0.  1.
         11    1    6    6    0    0  0.45587958472E+02  0.14636432567E+03  0.52735314695E+02  0.16211659755E+03  0.00000000000E+00 0. -1.
        -12    1    6    6    0    0  0.35784200807E+02  0.69159856015E+01  0.86986272228E+01  0.37470068052E+02  0.00000000000E+00 0.  1.
</event>
<event>
12    1  0.8500177E-002  0.1811154E+03  0.7818608E-02  0.1167032E+00
         21   -1    0    0  501  502  0.00000000000E+00  0.00000000000E+00  0.44076858655E+03  0.44076858655E+03  0.00000000000E+00 0.  1.
         21   -1    0    0  502  503 -0.00000000000E+00 -0.00000000000E+00 -0.98733507352E+02  0.98733507352E+02  0.00000000000E+00 0.  1.
         -6    2    1    2    0  503 -0.49494200219E+02 -0.25544461710E+02  0.35297823714E+02  0.18328512500E+03  0.17101258816E+03 0.  0.
        -24    2    3    3    0    0  0.17812432703E+02  0.57056886427E+01  0.63054250504E+02  0.10391722242E+03  0.80455658386E+02 0.  0.
          6    2    1    2  501    0  0.49494200219E+02  0.25544461710E+02  0.30673725548E+03  0.35621696890E+03  0.17233859015E+03 0.  0.
         24    2    5    5    0    0  0.57931237129E+02 -0.32186316216E+01  0.31024056477E+03  0.32567417424E+03  0.80299887371E+02 0.  0.
          5    1    5    5  501    0 -0.84370369100E+01  0.28763093332E+02 -0.35033092895E+01  0.30542794663E+02  0.47000000000E+01 0. -1.
        -11    1    6    6    0    0  0.63525706505E+01  0.19239215912E+02  0.15227200875E+02  0.25345023757E+02  0.00000000000E+00 0.  1.
         12    1    6    6    0    0  0.51578666478E+02 -0.22457847533E+02  0.29501336390E+03  0.30032915048E+03  0.00000000000E+00 0. -1.
         -5    1    3    3    0  503 -0.67306632921E+02 -0.31250150353E+02 -0.27756426790E+02  0.79367902583E+02  0.47000000000E+01 0.  1.
         11    1    4    4    0    0  0.81763531839E+01  0.32027620862E+02  0.67855763494E+02  0.75478645250E+02  0.00000000000E+00 0. -1.
        -12    1    4    4    0    0  0.96360795188E+01 -0.26321932219E+02 -0.48015129895E+01  0.28438577166E+02  0.00000000000E+00 0.  1.
</event>
<event>
12    1  0.8500177E-002  0.1960929E+03  0.7818608E-02  0.1153636E+00
         21   -1    0    0  501  502  0.00000000000E+00  0.00000000000E+00  0.37247146731E+03  0.37247146731E+03  0.00000000000E+00 0.  1.
         21   -1    0    0  502  503 -0.00000000000E+00 -0.00000000000E+00 -0.12444183219E+03  0.12444183219E+03  0.00000000000E+00 0.  1.
         -6    2    1    2    0  503  0.50286264586E+02  0.80653830855E+02  0.17583667125E+02  0.19432815439E+03  0.16858379935E+03 0.  0.
        -24    2    3    3    0    0 -0.24675800500E+02  0.75686195111E+02  0.29797192716E+02  0.11807037568E+03  0.81947822781E+02 0.  0.
          6    2    1    2  501    0 -0.50286264586E+02 -0.80653830855E+02  0.23044596800E+03  0.30258514511E+03  0.17151873670E+03 0.  0.
         24    2    5    5    0    0 -0.86644259448E+02 -0.96878726475E+02  0.19805871124E+03  0.25104704825E+03  0.83094235637E+02 0.  0.
          5    1    5    5  501    0  0.36357994862E+02  0.16224895620E+02  0.32387256754E+02  0.51538096864E+02  0.47000000000E+01 0. -1.
        -13    1    6    6    0    0 -0.22373202206E+02 -0.66828481789E+02  0.14888790679E+03  0.16472466404E+03  0.00000000000E+00 0.  1.
         14    1    6    6    0    0 -0.64271057242E+02 -0.30050244687E+02  0.49170804455E+02  0.86322384209E+02  0.00000000000E+00 0. -1.
         -5    1    3    3    0  503  0.74962065087E+02  0.49676357446E+01 -0.12213525591E+02  0.76257778713E+02  0.47000000000E+01 0.  1.
         11    1    4    4    0    0 -0.26813590287E+02  0.93000515818E+02  0.25909779014E+02  0.10019671260E+03  0.00000000000E+00 0. -1.
        -12    1    4    4    0    0  0.21377897864E+01 -0.17314320707E+02  0.38874137018E+01  0.17873663083E+02  0.00000000000E+00 0.  1.
</event>
<event>
12    1  0.8500177E-002  0.1863811E+03  0.7818608E-02  0.1162127E+00
         21   -1    0    0  503  502  0.00000000000E+00  0.00000000000E+00  0.68090999713E+03  0.68090999713E+03  0.00000000000E+00 0.  1.
         21   -1    0    0  501  503 -0.00000000000E+00 -0.00000000000E+00 -0.12468613308E+03  0.12468613308E+03  0.00000000000E+00 0.  1.
          6    2    1    2  501    0 -0.24120121694E+02 -0.62349414294E+02 -0.31919437975E+02  0.18909456772E+03  0.17397895070E+03 0.  0.
         24    2    3    3    0    0 -0.54670486766E+01 -0.73471360722E+02 -0.80601718751E+02  0.13558111813E+03  0.80359648209E+02 0.  0.
         -6    2    1    2    0  502  0.24120121694E+02  0.62349414294E+02  0.58814330203E+03  0.61650156249E+03  0.17231483713E+03 0.  0.
        -24    2    5    5    0    0  0.47368876094E+02  0.11430716395E+02  0.16016354343E+03  0.18485126173E+03  0.78378291755E+02 0.  0.
          5    1    3    3  501    0 -0.18653073018E+02  0.11121946427E+02  0.48682280775E+02  0.53513449588E+02  0.47000000000E+01 0. -1.
        -11    1    4    4    0    0  0.18625971171E+02 -0.67200966188E+02 -0.24004383792E+02  0.73750302371E+02  0.00000000000E+00 0.  1.
         12    1    4    4    0    0 -0.24093019847E+02 -0.62703945340E+01 -0.56597334958E+02  0.61830815759E+02  0.00000000000E+00 0. -1.
         -5    1    5    5    0  502 -0.23248754400E+02  0.50918697900E+02  0.42797975860E+03  0.43165030076E+03  0.47000000000E+01 0.  1.
         13    1    6    6    0    0 -0.15811582184E+02 -0.21795089230E+01  0.81474065122E+02  0.83022766021E+02  0.00000000000E+00 0. -1.
        -14    1    6    6    0    0  0.63180458279E+02  0.13610225318E+02  0.78689478311E+02  0.10182849571E+03  0.00000000000E+00 0.  1.
</event>
<event>
12    1  0.8500177E-002  0.2086800E+03  0.7818608E-02  0.1142674E+00
         21   -1    0    0  501  502  0.00000000000E+00  0.00000000000E+00  0.77196348314E+03  0.77196348314E+03  0.00000000000E+00 0. -1.
         21   -1    0    0  502  503 -0.00000000000E+00 -0.00000000000E+00 -0.67404241574E+02  0.67404241574E+02  0.00000000000E+00 0. -1.
         -6    2    1    2    0  503  0.70892492460E+02 -0.93770157811E+02  0.52258537664E+03  0.56271022794E+03  0.17242023304E+03 0.  0.
        -24    2    3    3    0    0  0.32815268957E+01 -0.93545491480E+02  0.19673245785E+03  0.22988368479E+03  0.73357488816E+02 0.  0.
          6    2    1    2  501    0 -0.70892492460E+02  0.93770157811E+02  0.18197386492E+03  0.27665749677E+03  0.17206479891E+03 0.  0.
         24    2    5    5    0    0 -0.62095939581E+02  0.75902338797E+01  0.15710403222E+03  0.18640808010E+03  0.78439645736E+02 0.  0.
          5    1    5    5  501    0 -0.87965528783E+01  0.86179923932E+02  0.24869832697E+02  0.90249416673E+02  0.47000000000E+01 0. -1.
        -13    1    6    6    0    0 -0.71800116261E+01 -0.64067505332E+01 -0.75774899878E+01  0.12248157978E+02  0.00000000000E+00 0.  1.
         14    1    6    6    0    0 -0.54915927955E+02  0.13996984413E+02  0.16468152221E+03  0.17415992212E+03  0.00000000000E+00 0. -1.
         -5    1    3    3    0  503  0.67610965564E+02 -0.22466633173E+00  0.32585291879E+03  0.33282654314E+03  0.47000000000E+01 0.  1.
         11    1    4    4    0    0  0.82074446146E+01 -0.51995782576E+02  0.17498001163E+03  0.18272637473E+03  0.00000000000E+00 0. -1.
        -12    1    4    4    0    0 -0.49259177190E+01 -0.41549708904E+02  0.21752446224E+02  0.47157310060E+02  0.00000000000E+00 0.  1.
</event>
<event>
12    1  0.8500177E-002  0.1820371E+03  0.7818608E-02  0.1166140E+00
         21   -1    0    0  503  502  0.00000000000E+00  0.00000000000E+00  0.23959538126E+03  0.23959538126E+03  0.00000000000E+00 0.  1.
         21   -1    0    0  501  503 -0.00000000000E+00 -0.00000000000E+00 -0.17223565626E+03  0.17223565626E+03  0.00000000000E+00 0. -1.
          6    2    1    2  501    0  0.32831550536E+02 -0.50673628883E+02 -0.58868741452E+02  0.19131920293E+03  0.17173171319E+03 0.  0.
         24    2    3    3    0    0  0.23831698354E+01 -0.61933269154E+02 -0.98013399454E+02  0.14024790340E+03  0.78876096556E+02 0.  0.
         -6    2    1    2    0  502 -0.32831550536E+02  0.50673628883E+02  0.12622846645E+03  0.22051183458E+03  0.17042921132E+03 0.  0.
        -24    2    5    5    0    0 -0.85347312000E+02  0.35933410589E+02  0.66302656459E+02  0.13934304784E+03  0.80281187493E+02 0.  0.
          5    1    3    3  501    0  0.30448380701E+02  0.11259640272E+02  0.39144658001E+02  0.51071299537E+02  0.47000000000E+01 0. -1.
        -13    1    4    4    0    0 -0.37257237272E+02 -0.28245960221E+02 -0.34255062818E+02  0.57959859615E+02  0.00000000000E+00 0.  1.
         14    1    4    4    0    0  0.39640407107E+02 -0.33687308933E+02 -0.63758336636E+02  0.82288043781E+02  0.00000000000E+00 0. -1.
         -5    1    5    5    0  502  0.52515761465E+02  0.14740218294E+02  0.59925809992E+02  0.81168786739E+02  0.47000000000E+01 0.  1.
         13    1    6    6    0    0 -0.23714440282E+02 -0.24506017188E+02  0.75607684275E+01  0.34929711930E+02  0.00000000000E+00 0. -1.
        -14    1    6    6    0    0 -0.61632871719E+02  0.60439427777E+02  0.58741888031E+02  0.10441333591E+03  0.00000000000E+00 0.  1.
</event>
<event>
12    1  0.8500177E-002  0.2098667E+03  0.7818608E-02  0.1141810E+00
         21   -1    0    0  503  502  0.00000000000E+00  0.00000000000E+00  0.29168787119E+02  0.29168787119E+02  0.00000000000E+00 0. -1.
         21   -1    0    0  501  503 -0.00000000000E+00 -0.00000000000E+00 -0.18873114799E+04  0.18873114799E+04  0.00000000000E+00 0.  1.
          6    2    1    2  501    0 -0.82812385877E+02 -0.86988434852E+02 -0.13615968682E+04  0.13776756037E+04  0.17210217416E+03 0.  0.
         24    2    3    3    0    0 -0.44286875653E+02 -0.45626155725E+02 -0.12321206253E+04  0.12363205876E+04  0.79525384202E+02 0.  0.
         -6    2    1    2    0  502  0.82812385877E+02  0.86988434852E+02 -0.49654582455E+03  0.53880466334E+03  0.17125370158E+03 0.  0.
        -24    2    5    5    0    0 -0.15653169163E+02  0.29637269434E+02 -0.14187231785E+03  0.16624593231E+03  0.79915993367E+02 0.  0.
          5    1    3    3  501    0 -0.38525510224E+02 -0.41362279127E+02 -0.12947624297E+03  0.14135501606E+03  0.47000000000E+01 0. -1.
        -13    1    4    4    0    0  0.21071880548E+01 -0.36160410091E+02 -0.91180597423E+03  0.91252515042E+03  0.00000000000E+00 0.  1.
         14    1    4    4    0    0 -0.46394063708E+02 -0.94657456339E+01 -0.32031465102E+03  0.32379543719E+03  0.00000000000E+00 0. -1.
         -5    1    5    5    0  502  0.98465555040E+02  0.57351165418E+02 -0.35467350671E+03  0.37255873103E+03  0.47000000000E+01 0.  1.
         11    1    6    6    0    0  0.21625043242E+02 -0.11423848026E+02 -0.17512618192E+02  0.30080535149E+02  0.00000000000E+00 0. -1.
        -12    1    6    6    0    0 -0.37278212405E+02  0.41061117460E+02 -0.12435969965E+03  0.13616539716E+03  0.00000000000E+00 0.  1.
</event>
<event>
12    1  0.8500177E-002  0.2212247E+03  0.7818608E-02  0.1133108E+00
         21   -1    0    0  503  502  0.00000000000E+00  0.00000000000E+00  0.15859030113E+03  0.15859030113E+03  0.00000000000E+00 0. -1.
         21   -1    0    0  501  503 -0.00000000000E+00 -0.00000000000E+00 -0.33533963701E+03  0.33533963701E+03  0.00000000000E+00 0. -1.
          6    2    1    2  501    0  0.35212506165E+02 -0.13408479756E+03 -0.15956145988E+03  0.27276407655E+03  0.17239990849E+03 0.  0.
         24    2    3    3    0    0 -0.34482074169E+02 -0.42965852881E+02 -0.34646062907E+02  0.10309986993E+03  0.79963463852E+02 0.  0.
         -6    2    1    2    0  502 -0.35212506165E+02  0.13408479756E+03 -0.17187875998E+02  0.22116586160E+03  0.17146504521E+03 0.  0.
        -24    2    5    5    0    0 -0.38414160888E+02  0.11045152138E+03 -0.73683857373E+02  0.15966246131E+03  0.79922489838E+02 0.  0.
          5    1    3    3  501    0  0.69694580334E+02 -0.91118944676E+02 -0.12491539697E+03  0.16966420662E+03  0.47000000000E+01 0. -1.
        -11    1    4    4    0    0  0.67825021656E+01  0.19757955541E+01  0.19988925151E+02  0.21200547926E+02  0.00000000000E+00 0.  1.
         12    1    4    4    0    0 -0.41264576334E+02 -0.44941648435E+02 -0.54634988058E+02  0.81899322001E+02  0.00000000000E+00 0. -1.
         -5    1    5    5    0  502  0.32016547226E+01  0.23633276177E+02  0.56495981376E+02  0.61503400292E+02  0.47000000000E+01 0.  1.
         13    1    6    6    0    0  0.51298242991E+01  0.95449628439E+02 -0.49762657623E+02  0.10776487721E+03  0.00000000000E+00 0. -1.
        -14    1    6    6    0    0 -0.43543985187E+02  0.15001892942E+02 -0.23921199751E+02  0.51897584099E+02  0.00000000000E+00 0.  1.
</event>
<event>
12    1  0.8500177E-002  0.1997159E+03  0.7818608E-02  0.1150674E+00
         21   -1    0    0  501  502  0.00000000000E+00  0.00000000000E+00  0.45602815499E+03  0.45602815499E+03  0.00000000000E+00 0.  1.
         21   -1    0    0  502  503 -0.00000000000E+00 -0.00000000000E+00 -0.95096355063E+02  0.95096355063E+02  0.00000000000E+00 0. -1.
         -6    2    1    2    0  503 -0.64764277167E+02 -0.78234802385E+02  0.26683465533E+03  0.33329742966E+03  0.17196321534E+03 0.  0.
        -24    2    3    3    0    0 -0.58716413609E+01 -0.96255899364E+02  0.12138592308E+03  0.17527677847E+03  0.81778557177E+02 0.  0.
          6    2    1    2  501    0  0.64764277167E+02  0.78234802385E+02  0.94097144594E+02  0.21782708039E+03  0.16816440893E+03 0.  0.
         24    2    5    5    0    0  0.34372530374E+01 -0.97704357817E+01  0.68464071287E+02  0.10744107457E+03  0.82152171759E+02 0.  0.
          5    1    5    5  501    0  0.61327024130E+02  0.88005238167E+02  0.25633073307E+02  0.11038600582E+03  0.47000000000E+01 0. -1.
        -13    1    6    6    0    0 -0.47713170924E+01 -0.61861768983E+01  0.86738493360E+02  0.87089611790E+02  0.00000000000E+00 0.  1.
         14    1    6    6    0    0  0.82085701298E+01 -0.35842588834E+01 -0.18274422073E+02  0.20351462784E+02  0.00000000000E+00 0. -1.
         -5    1    3    3    0  503 -0.58892635807E+02  0.18021096979E+02  0.14544873226E+03  0.15802065119E+03  0.47000000000E+01 0.  1.
         11    1    4    4    0    0  0.21633665066E+02 -0.14930860502E+02 -0.38094270477E+00  0.26288613065E+02  0.00000000000E+00 0. -1.
        -12    1    4    4    0    0 -0.27505306427E+02 -0.81325038861E+02  0.12176686578E+03  0.14898816540E+03  0.00000000000E+00 0.  1.
</event>
<event>
12    1  0.8500177E-002  0.3356077E+03  0.7818608E-02  0.1069561E+00
         21   -1    0    0  501  502  0.00000000000E+00  0.00000000000E+00  0.25101460621E+04  0.25101460621E+04  0.00000000000E+00 0. -1.
         21   -1    0    0  502  503 -0.00000000000E+00 -0.00000000000E+00 -0.46274662907E+02  0.46274662907E+02  0.00000000000E+00 0. -1.
         -6    2    1    2    0  503  0.24857744206E+03 -0.14602722437E+03  0.15130573434E+04  0.15481152600E+04  0.15557518781E+03 0.  0.
        -24    2    3    3    0    0  0.22521300493E+03 -0.12918942017E+03  0.14765613465E+04  0.15013877911E+04  0.80753236313E+02 0.  0.
          6    2    1    2  501    0 -0.24857744206E+03  0.14602722437E+03  0.95081405577E+03  0.10083054649E+04  0.17180758709E+03 0.  0.
         24    2    5    5    0    0 -0.26683767901E+03  0.14455913601E+03  0.89132685792E+03  0.94588424861E+03  0.90187323891E+02 0.  0.
          5    1    5    5  501    0  0.18260236948E+02  0.14680883565E+01  0.59487197857E+02  0.62421216311E+02  0.47000000000E+01 0. -1.
        -13    1    6    6    0    0 -0.60335257779E+02  0.49988751699E+02  0.13393892526E+03  0.15517362639E+03  0.00000000000E+00 0.  1.
         14    1    6    6    0    0 -0.20650242123E+03  0.94570384310E+02  0.75738793265E+03  0.79071062222E+03  0.00000000000E+00 0. -1.
         -5    1    3    3    0  503  0.23364437130E+02 -0.16837804192E+02  0.36495996858E+02  0.46727469000E+02  0.47000000000E+01 0.  1.
         13    1    4    4    0    0  0.14421948865E+02 -0.12823618936E+02  0.36032784426E+02  0.40875412721E+02  0.00000000000E+00 0. -1.
        -14    1    4    4    0    0  0.21079105607E+03 -0.11636580124E+03  0.14405285621E+04  0.14605123783E+04  0.00000000000E+00 0.  1.
</event>
<event>
12    1  0.8500177E-002  0.1836912E+03  0.7818608E-02  0.1166580E+00
         21   -1    0    0  501  502  0.00000000000E+00  0.00000000000E+00  0.42861843256E+03  0.42861843256E+03  0.00000000000E+00 0. -1.
         21   -1    0    0  502  503 -0.00000000000E+00 -0.00000000000E+00 -0.85351069382E+02  0.85351069382E+02  0.00000000000E+00 0. -1.
         -6    2    1    2    0  503  0.10179164218E+01  0.38937469109E+02  0.84892667354E+02  0.20235910585E+03  0.17951401086E+03 0.  0.
        -24    2    3    3    0    0 -0.62524203784E+02  0.51121303500E+02  0.30038407409E+02  0.11740543203E+03  0.79743750984E+02 0.  0.
          6    2    1    2  501    0 -0.10179164218E+01 -0.38937469109E+02  0.25837469583E+03  0.31161039610E+03  0.16978337038E+03 0.  0.
         24    2    5    5    0    0 -0.63194775499E+02 -0.19163101475E+02  0.11747495759E+03  0.15626621805E+03  0.79107276101E+02 0.  0.
          5    1    5    5  501    0  0.62176859077E+02 -0.19774367634E+02  0.14089973823E+03  0.15534417805E+03  0.47000000000E+01 0. -1.
        -11    1    6    6    0    0  0.26809302566E+01 -0.24422296809E+02  0.39178155967E+01  0.24879414131E+02  0.00000000000E+00 0.  1.
         12    1    6    6    0    0 -0.65875705756E+02  0.52591953337E+01  0.11355714200E+03  0.13138680392E+03  0.00000000000E+00 0. -1.
         -5    1    3    3    0  503  0.63542120206E+02 -0.12183834390E+02  0.54854259945E+02  0.84953673816E+02  0.47000000000E+01 0.  1.
         11    1    4    4    0    0 -0.15308637146E+02  0.23045437207E+01 -0.25393748231E+02  0.29740674878E+02  0.00000000000E+00 0. -1.
        -12    1    4    4    0    0 -0.47215566638E+02  0.48816759779E+02  0.55432155639E+02  0.87664757155E+02  0.00000000000E+00 0.  1.
</event>
<event>
12    1  0.8500177E-002  0.2167669E+03  0.7818608E-02  0.1136490E+00
         21   -1    0    0  503  502  0.00000000000E+00  0.00000000000E+00  0.89500228666E+03  0.89500228666E+03  0.00000000000E+00 0. -1.
         21   -1    0    0  501  503 -0.00000000000E+00 -0.00000000000E+00 -0.52391148289E+02  0.52391148289E+02  0.00000000000E+00 0.  1.
          6    2    1    2  501    0 -0.12983277157E+03  0.61101504119E+01  0.40041353469E+03  0.45532284006E+03  0.17347624451E+03 0.  0.
         24    2    3    3    0    0 -0.26455639648E+02 -0.48652245311E+02  0.14066625158E+03  0.17040795370E+03  0.78644354579E+02 0.  0.
         -6    2    1    2    0  502  0.12983277157E+03 -0.61101504119E+01  0.44219760368E+03  0.49207059489E+03  0.17233939521E+03 0.  0.
        -24    2    5    5    0    0  0.39083079803E+02  0.58577480206E+02  0.26179828469E+03  0.27997156046E+03  0.69906541098E+02 0.  0.
          5    1    3    3  501    0 -0.10337713192E+03  0.54762395723E+02  0.25974728311E+03  0.28491488636E+03  0.47000000000E+01 0. -1.
        -11    1    4    4    0    0 -0.17301161840E+01  0.11632498175E+02 -0.34418554819E+01  0.12253762073E+02  0.00000000000E+00 0.  1.
         12    1    4    4    0    0 -0.24725523464E+02 -0.60284743486E+02  0.14410810706E+03  0.15815419162E+03  0.00000000000E+00 0. -1.
         -5    1    5    5    0  502  0.90749691764E+02 -0.64687630618E+02  0.18039931900E+03  0.21209903443E+03  0.47000000000E+01 0.  1.
         11    1    6    6    0    0  0.29946120100E+02  0.74057418867E+02  0.22954222884E+03  0.24304507034E+03  0.00000000000E+00 0. -1.
        -12    1    6    6    0    0  0.91369597034E+01 -0.15479938661E+02  0.32256055853E+02  0.36926490122E+02  0.00000000000E+00 0.  1.
</event>
<event>
12    1  0.8500177E-002  0.2141280E+03  0.7818608E-02  0.1139535E+00
         21   -1    0    0  503  502  0.00000000000E+00  0.00000000000E+00  0.75406339340E+02  0.75406339340E+02  0.00000000000E+00 0. -1.
         21   -1    0    0  501  503 -0.00000000000E+00 -0.00000000000E+00 -0.11717623585E+04  0.11717623585E+04  0.00000000000E+00 0.  1.
          6    2    1    2  501    0 -0.10320726024E+03 -0.80077154878E+02 -0.99122599448E+03  0.10140906063E+04  0.16966642699E+03 0.  0.
         24    2    3    3    0    0 -0.10259344944E+03 -0.95867663114E+00 -0.50702345502E+03  0.52344378879E+03  0.79964249184E+02 0.  0.
         -6    2    1    2    0  502  0.10320726024E+03  0.80077154878E+02 -0.10513002470E+03  0.23307809151E+03  0.16189189402E+03 0.  0.
        -24    2    5    5    0    0  0.10033883676E+03  0.50848466314E+02 -0.15714897744E+02  0.13884593662E+03  0.79861050674E+02 0.  0.
          5    1    3    3  501    0 -0.61381080009E+00 -0.79118478247E+02 -0.48420253945E+03  0.49064681756E+03  0.47000000000E+01 0. -1.
        -11    1    4    4    0    0 -0.96220472564E+01 -0.27947690233E+01 -0.24855205681E+03  0.24875393358E+03  0.00000000000E+00 0.  1.
         12    1    4    4    0    0 -0.92971402185E+02  0.18360923922E+01 -0.25847139821E+03  0.27468985521E+03  0.00000000000E+00 0. -1.
         -5    1    5    5    0  502  0.28684234817E+01  0.29228688564E+02 -0.89415126955E+02  0.94232154898E+02  0.47000000000E+01 0.  1.
         13    1    6    6    0    0 -0.11276292929E+02  0.26891175477E+01  0.91484603267E+01  0.14767547588E+02  0.00000000000E+00 0. -1.
        -14    1    6    6    0    0  0.11161512969E+03  0.48159348767E+02 -0.24863358071E+02  0.12407838903E+03  0.00000000000E+00 0.  1.
</event>
<event>
12    1  0.8500177E-002  0.2032277E+03  0.7818608E-02  0.1147691E+00
         21   -1    0    0  501  502  0.00000000000E+00  0.00000000000E+00  0.24334065266E+02  0.24334065266E+02  0.00000000000E+00 0.  1.
         21   -1    0    0  502  503 -0.00000000000E+00 -0.00000000000E+00 -0.24333587206E+04  0.24333587206E+04  0.00000000000E+00 0.  1.
         -6    2    1    2    0  503  0.27485339418E+02  0.10208230389E+03 -0.18857514125E+04  0.18963405182E+04  0.16991977714E+03 0.  0.
        -24    2    3    3    0    0 -0.25140271380E+02  0.94576591202E+02 -0.16429707511E+04  0.16477639099E+04  0.78716256845E+02 0.  0.
          6    2    1    2  501    0 -0.27485339418E+02 -0.10208230389E+03 -0.52327324285E+03  0.56135226766E+03  0.17356624405E+03 0.  0.
         24    2    5    5    0    0 -0.60193150135E+02 -0.89738591933E+02 -0.50349053774E+03  0.52090954856E+03  0.78535380460E+02 0.  0.
          5    1    5    5  501    0  0.32707810717E+02 -0.12343711954E+02 -0.19782705117E+02  0.40442719103E+02  0.47000000000E+01 0. -1.
        -11    1    6    6    0    0  0.15653037579E+02 -0.25306992599E+02 -0.68571515801E+02  0.74749677185E+02  0.00000000000E+00 0.  1.
         12    1    6    6    0    0 -0.75846187714E+02 -0.64431599334E+02 -0.43491902194E+03  0.44615987137E+03  0.00000000000E+00 0. -1.
         -5    1    3    3    0  503  0.52625610798E+02  0.75057126849E+01 -0.24278066138E+03  0.24857660826E+03  0.47000000000E+01 0.  1.
         13    1    4    4    0    0 -0.18605472989E+02  0.15945463767E+02 -0.10708159753E+03  0.10984939676E+03  0.00000000000E+00 0. -1.
        -14    1    4    4    0    0 -0.65347983913E+01  0.78631127436E+02 -0.15358891536E+04  0.15379145132E+04  0.00000000000E+00 0.  1.
</event>
<event>
12    1  0.8500177E-002  0.2047492E+03  0.7818608E-02  0.1146251E+00
         21   -1    0    0  501  502  0.00000000000E+00  0.00000000000E+00  0.17349671178E+03  0.17349671178E+03  0.00000000000E+00 0. -1.
         21   -1    0    0  502  503 -0.00000000000E+00 -0.00000000000E+00 -0.38350161931E+03  0.38350161931E+03  0.00000000000E+00 0. -1.
         -6    2    1    2    0  503 -0.23912547863E+02 -0.10999136727E+03 -0.27630317254E+03  0.34389777784E+03  0.17103311851E+03 0.  0.
        -24    2    3    3    0    0 -0.23883071705E+01 -0.10930773482E+03 -0.10354451451E+03  0.16973864309E+03  0.78331702213E+02 0.  0.
          6    2    1    2  501    0  0.23912547863E+02  0.10999136727E+03  0.66298265013E+02  0.21310055325E+03  0.16836411444E+03 0.  0.
         24    2    5    5    0    0  0.28548910252E+01  0.83391009272E+02 -0.22558171523E+02  0.11787156464E+03  0.80141274123E+02 0.  0.
          5    1    5    5  501    0  0.21057656838E+02  0.26600357999E+02  0.88856436536E+02  0.95228988606E+02  0.47000000000E+01 0. -1.
        -13    1    6    6    0    0  0.18729501171E+01 -0.12864779342E+02 -0.17066775210E+02  0.21454260782E+02  0.00000000000E+00 0.  1.
         14    1    6    6    0    0  0.98194090809E+00  0.96255788614E+02 -0.54913963127E+01  0.96417303858E+02  0.00000000000E+00 0. -1.
         -5    1    3    3    0  503 -0.21524240692E+02 -0.68363245228E+00 -0.17275865804E+03  0.17415913475E+03  0.47000000000E+01 0.  1.
         13    1    4    4    0    0  0.27703837693E+01 -0.94226864436E+02 -0.11602634807E+03  0.14949411512E+03  0.00000000000E+00 0. -1.
        -14    1    4    4    0    0 -0.51586909398E+01 -0.15080870383E+02  0.12481833566E+02  0.20244527974E+02  0.00000000000E+00 0.  1.
</event>
<event>
12    1  0.8500177E-002  0.1849496E+03  0.7818608E-02  0.1163930E+00
         21   -1    0    0  503  502  0.00000000000E+00  0.00000000000E+00  0.26756709147E+03  0.26756709147E+03  0.00000000000E+00 0. -1.
         21   -1    0    0  501  503 -0.00000000000E+00 -0.00000000000E+00 -0.29611406057E+03  0.29611406057E+03  0.00000000000E+00 0. -1.
          6    2    1    2  501    0 -0.58932442036E+02  0.18719051629E+02 -0.22819957051E+03  0.29152766221E+03  0.17055760973E+03 0.  0.
         24    2    3    3    0    0 -0.52388191038E+02  0.74615048570E+02 -0.14157113015E+03  0.18811699364E+03  0.83867099458E+02 0.  0.
         -6    2    1    2    0  502  0.58932442036E+02 -0.18719051629E+02  0.19965260141E+03  0.27215348982E+03  0.17430698539E+03 0.  0.
        -24    2    5    5    0    0  0.35829122766E+02  0.57790358764E+02  0.10099107024E+03  0.14509586127E+03  0.78931369465E+02 0.  0.
          5    1    3    3  501    0 -0.65442509976E+01 -0.55895996941E+02 -0.86628440362E+02  0.10341066857E+03  0.47000000000E+01 0. -1.
        -11    1    4    4    0    0  0.55405899392E+01  0.30991943046E+02 -0.28840167653E+01  0.31615126496E+02  0.00000000000E+00 0.  1.
         12    1    4    4    0    0 -0.57928780978E+02  0.43623105524E+02 -0.13868711338E+03  0.15650186715E+03  0.00000000000E+00 0. -1.
         -5    1    5    5    0  502  0.23103319270E+02 -0.76509410394E+02  0.98661531172E+02  0.12705762855E+03  0.47000000000E+01 0.  1.
         13    1    6    6    0    0  0.16871727869E+02  0.17717827543E+02  0.97618030001E+02  0.10063725153E+03  0.00000000000E+00 0. -1.
        -14    1    6    6    0    0  0.18957394897E+02  0.40072531221E+02  0.33730402395E+01  0.44458609742E+02  0.00000000000E+00 0.  1.
</event>
<event>
12    1  0.8500177E-002  0.1787539E+03  0.7818608E-02  0.1169863E+00
         21   -1    0    0  503  502  0.00000000000E+00  0.00000000000E+00  0.89414517716E+02  0.89414517716E+02  0.00000000000E+00 0. -1.
         21   -1    0    0  501  503 -0.00000000000E+00 -0.00000000000E+00 -0.39693819723E+03  0.39693819723E+03  0.00000000000E+00 0. -1.
          6    2    1    2  501    0  0.44576171939E+02 -0.57892682969E+01 -0.23823913450E+03  0.29784368059E+03  0.17300989026E+03 0.  0.
         24    2    3    3    0    0  0.50447909956E+02 -0.37071025205E+02 -0.62240847952E+02  0.11892886150E+03  0.79692524211E+02 0.  0.
         -6    2    1    2    0  502 -0.44576171939E+02  0.57892682969E+01 -0.69284545014E+02  0.18850903435E+03  0.16945429214E+03 0.  0.
        -24    2    5    5    0    0 -0.71631845556E+02 -0.41232724986E+02 -0.21302756447E+02  0.11593204516E+03  0.78454909050E+02 0.  0.
          5    1    3    3  501    0 -0.58717380171E+01  0.31281756908E+02 -0.17599828655E+03  0.17891481909E+03  0.47000000000E+01 0. -1.
        -13    1    4    4    0    0  0.17612857265E+02 -0.22452613836E+02  0.16079655583E+02  0.32754968062E+02  0.00000000000E+00 0.  1.
         14    1    4    4    0    0  0.32835052691E+02 -0.14618411369E+02 -0.78320503535E+02  0.86173893437E+02  0.00000000000E+00 0. -1.
         -5    1    5    5    0  502  0.27055673618E+02  0.47021993283E+02 -0.47981788567E+02  0.72576989199E+02  0.47000000000E+01 0.  1.
         11    1    6    6    0    0 -0.17987546086E+02 -0.45610916627E+01  0.28536157238E+02  0.34039207412E+02  0.00000000000E+00 0. -1.
        -12    1    6    6    0    0 -0.53644299470E+02 -0.36671633323E+02 -0.49838913685E+02  0.81892837743E+02  0.00000000000E+00 0.  1.
</event>
<event>
12    1  0.8500177E-002  0.2052305E+03  0.7818608E-02  0.1146147E+00
         21   -1    0    0  501  502  0.00000000000E+00  0.00000000000E+00  0.12685811844E+03  0.12685811844E+03  0.00000000000E+00 0.  1.
         21   -1    0    0  502  503 -0.00000000000E+00 -0.00000000000E+00 -0.37727584401E+03  0.37727584401E+03  0.00000000000E+00 0.  1.
         -6    2    1    2    0  503  0.51769339148E+01 -0.10941850027E+03 -0.21893969575E+03  0.30009020158E+03  0.17355209553E+03 0.  0.
        -24    2    3    3    0    0  0.17284876957E+02 -0.12037128934E+03 -0.23527890766E+03  0.27651848720E+03  0.79487704125E+02 0.  0.
          6    2    1    2  501    0 -0.51769339148E+01  0.10941850027E+03 -0.31478029826E+02  0.20404376087E+03  0.16924473741E+03 0.  0.
         24    2    5    5    0    0 -0.66157531619E+01 -0.82727120058E+01  0.63524524317E+01  0.80324210929E+02  0.79368880902E+02 0.  0.
          5    1    5    5  501    0  0.14388192471E+01  0.11769121228E+03 -0.37830482258E+02  0.12371954994E+03  0.47000000000E+01 0. -1.
        -13    1    6    6    0    0  0.18861333220E+02 -0.10372400640E+02 -0.29360003320E+02  0.36405307042E+02  0.00000000000E+00 0.  1.
         14    1    6    6    0    0 -0.25477086382E+02  0.20996886342E+01  0.35712455751E+02  0.43918903887E+02  0.00000000000E+00 0. -1.
         -5    1    3    3    0  503 -0.12107943043E+02  0.10952789069E+02  0.16339211906E+02  0.23571714381E+02  0.47000000000E+01 0.  1.
         11    1    4    4    0    0 -0.14653995261E+02 -0.88710647505E+02 -0.20026539222E+03  0.21952345178E+03  0.00000000000E+00 0. -1.
        -12    1    4    4    0    0  0.31938872218E+02 -0.31660641838E+02 -0.35013515435E+02  0.56995035427E+02  0.00000000000E+00 0.  1.
</event>
<event>
12    1  0.8500177E-002  0.2154965E+03  0.7818608E-02  0.1140785E+00
         21   -1    0    0  501  502  0.00000000000E+00  0.00000000000E+00  0.84875505155E+03  0.84875505155E+03  0.00000000000E+00 0. -1.
         21   -1    0    0  502  503 -0.00000000000E+00 -0.00000000000E+00 -0.74234925118E+02  0.74234925118E+02  0.00000000000E+00 0.  1.
         -6    2    1    2    0  503 -0.74149379603E+02  0.65739385606E+02  0.13684406019E+03  0.25527446690E+03  0.19136080928E+03 0.  0.
        -24    2    3    3    0    0 -0.83861557296E+02  0.22129246723E+02  0.16500353430E+03  0.20225355979E+03  0.78472108172E+02 0.  0.
          6    2    1    2  501    0  0.74149379603E+02 -0.65739385606E+02  0.63767606624E+03  0.66771550976E+03  0.17144514927E+03 0.  0.
         24    2    5    5    0    0  0.48796962809E+02  0.29751517330E+02  0.33491279338E+03  0.34920499663E+03  0.80692342525E+02 0.  0.
          5    1    5    5  501    0  0.25352416794E+02 -0.95490902936E+02  0.30276327286E+03  0.31851051313E+03  0.47000000000E+01 0. -1.
        -11    1    6    6    0    0  0.98818045567E+01  0.46735203198E+02  0.10433296127E+03  0.11474840341E+03  0.00000000000E+00 0.  1.
         12    1    6    6    0    0  0.38915158252E+02 -0.16983685868E+02  0.23057983211E+03  0.23445659322E+03  0.00000000000E+00 0. -1.
         -5    1    3    3    0  503  0.97121776928E+01  0.43610138882E+02 -0.28159474115E+02  0.53020907115E+02  0.47000000000E+01 0.  1.
         13    1    4    4    0    0 -0.96300587040E+02  0.28145818865E+02  0.12721140784E+03  0.16201460573E+03  0.00000000000E+00 0. -1.
        -14    1    4    4    0    0  0.12439029744E+02 -0.60165721411E+01  0.37792126460E+02  0.40238954058E+02  0.00000000000E+00 0.  1.
</event>
<event>
12    1  0.8500177E-002  0.1773631E+03  0.7818608E-02  0.1170407E+00
         21   -1    0    0  501  502  0.00000000000E+00  0.00000000000E+00  0.17955213197E+03  0.17955213197E+03  0.00000000000E+00 0.  1.
         21   -1    0    0  502  503 -0.00000000000E+00 -0.00000000000E+00 -0.17508985043E+03  0.17508985043E+03  0.00000000000E+00 0.  1.
         -6    2    1    2    0  503  0.40693180250E+02 -0.11742963313E+02  0.21876061092E+01  0.17737657947E+03  0.17223191695E+03 0.  0.
        -24    2    3    3    0    0 -0.40180418457E+02 -0.27331283556E+02 -0.39330004997E+01  0.94653629076E+02  0.81131842800E+02 0.  0.
          6    2    1    2  501    0 -0.40693180250E+02  0.11742963313E+02  0.22746754302E+01  0.17726540294E+03  0.17211628867E+03 0.  0.
         24    2    5    5    0    0  0.36720470534E+02  0.38151954589E+02  0.18409688128E+01  0.95335028538E+02  0.79255371459E+02 0.  0.
          5    1    5    5  501    0 -0.77413650784E+02 -0.26408991276E+02  0.43370661746E+00  0.81930374400E+02  0.47000000000E+01 0. -1.
        -13    1    6    6    0    0  0.39057348385E+02  0.22638584788E+02 -0.33799182754E+02  0.56394740348E+02  0.00000000000E+00 0.  1.
         14    1    6    6    0    0 -0.23368778508E+01  0.15513369801E+02  0.35640151567E+02  0.38940288190E+02  0.00000000000E+00 0. -1.
         -5    1    3    3    0  503  0.80873598707E+02  0.15588320243E+02  0.61206066090E+01  0.82722950389E+02  0.47000000000E+01 0.  1.
         13    1    4    4    0    0 -0.23713283045E+02 -0.34012209020E+02 -0.37992501692E+02  0.56236823701E+02  0.00000000000E+00 0. -1.
        -14    1    4    4    0    0 -0.16467135413E+02  0.66809254641E+01  0.34059501192E+02  0.38416805375E+02  0.00000000000E+00 0.  1.
</event>
<event>
12    1  0.8500177E-002  0.1812239E+03  0.7818608E-02  0.1170174E+00
         21   -1    0    0  503  502  0.00000000000E+00  0.00000000000E+00  0.99644543744E+03  0.99644543744E+03  0.00000000000E+00 0. -1.
         21   -1    0    0  501  503 -0.00000000000E+00 -0.00000000000E+00 -0.35609879953E+02  0.35609879953E+02  0.00000000000E+00 0. -1.
          6    2    1    2  501    0  0.50515227981E+02  0.27906525733E+02  0.30049167239E+03  0.35090933335E+03  0.17178926807E+03 0.  0.
         24    2    3    3    0    0  0.68904983967E+02  0.43305049329E+02  0.30599222027E+03  0.32585651552E+03  0.76993543423E+02 0.  0.
         -6    2    1    2    0  502 -0.50515227981E+02 -0.27906525733E+02  0.66034388510E+03  0.68114598404E+03  0.15676492769E+03 0.  0.
        -24    2    5    5    0    0 -0.69148150804E+02 -0.62952146627E+02  0.49134346590E+03  0.50748363047E+03  0.85888265749E+02 0.  0.
          5    1    3    3  501    0 -0.18389755986E+02 -0.15398523596E+02 -0.55005478837E+01  0.25052817829E+02  0.47000000000E+01 0. -1.
        -13    1    4    4    0    0  0.62021395043E+02  0.52889719322E+02  0.16169914070E+03  0.18108171624E+03  0.00000000000E+00 0.  1.
         14    1    4    4    0    0  0.68835889243E+01 -0.95846699922E+01  0.14429307957E+03  0.14477479928E+03  0.00000000000E+00 0. -1.
         -5    1    5    5    0  502  0.18632922824E+02  0.35045620894E+02  0.16900041920E+03  0.17366235357E+03  0.47000000000E+01 0.  1.
         11    1    6    6    0    0  0.11036427137E+02  0.11905576796E+02  0.88242229751E+02  0.89723110703E+02  0.00000000000E+00 0. -1.
        -12    1    6    6    0    0 -0.80184577941E+02 -0.74857723424E+02  0.40310123614E+03  0.41776051977E+03  0.00000000000E+00 0.  1.
</event>
<event>
12    1  0.8500177E-002  0.2045598E+03  0.7818608E-02  0.1147101E+00
         21   -1    0    0  501  502  0.00000000000E+00  0.00000000000E+00  0.91697810693E+02  0.91697810693E+02  0.00000000000E+00 0.  1.
         21   -1    0    0  502  503 -0.00000000000E+00 -0.00000000000E+00 -0.56594762913E+03  0.56594762913E+03  0.00000000000E+00 0.  1.
         -6    2    1    2    0  503  0.10470688991E+02 -0.10983378514E+03 -0.39227898376E+03  0.44241100214E+03  0.17225445720E+03 0.  0.
        -24    2    3    3    0    0 -0.60010139411E+02 -0.84432058018E+02 -0.24952238181E+03  0.28112141068E+03  0.77703534432E+02 0.  0.
          6    2    1    2  501    0 -0.10470688991E+02  0.10983378514E+03 -0.81970834676E+02  0.21523443769E+03  0.16563076328E+03 0.  0.
         24    2    5    5    0    0 -0.49642227474E+01  0.23850134465E+01 -0.72095388091E+00  0.80330053631E+02  0.80137793489E+02 0.  0.
          5    1    5    5  501    0 -0.55064662437E+01  0.10744877169E+03 -0.81249880795E+02  0.13490438406E+03  0.47000000000E+01 0. -1.
        -11    1    6    6    0    0 -0.24867537709E+02  0.22193393439E+02 -0.26213613961E+02  0.42403946761E+02  0.00000000000E+00 0.  1.
         12    1    6    6    0    0  0.19903314961E+02 -0.19808379993E+02  0.25492660080E+02  0.37926106870E+02  0.00000000000E+00 0. -1.
         -5    1    3    3    0  503  0.70480828403E+02 -0.25401727118E+02 -0.14275660195E+03  0.16128959146E+03  0.47000000000E+01 0.  1.
         13    1    4    4    0    0 -0.52908597162E+01 -0.20480753227E+01 -0.10975506325E+03  0.10990160017E+03  0.00000000000E+00 0. -1.
        -14    1    4    4    0    0 -0.54719279695E+02 -0.82383982695E+02 -0.13976731856E+03  0.17121981051E+03  0.00000000000E+00 0.  1.
</event>
<event>
12    1  0.8500177E-002  0.2189281E+03  0.7818608E-02  0.1134900E+00
         21   -1    0    0  503  502  0.00000000000E+00  0.00000000000E+00  0.28463634404E+03  0.28463634404E+03  0.00000000000E+00 0.  1.
         21   -1    0    0  501  503 -0.00000000000E+00 -0.00000000000E+00 -0.44013111643E+03  0.44013111643E+03  0.00000000000E+00 0. -1.
          6    2    1    2  501    0  0.53741225349E+02 -0.12453887637E+03 -0.36287500848E+03  0.42321140301E+03  0.17038652774E+03 0.  0.
         24    2    3    3    0    0  0.39453019189E+02 -0.15384135394E+03 -0.25605104238E+03  0.31142483066E+03  0.78737449425E+02 0.  0.
         -6    2    1    2    0  502 -0.53741225349E+02  0.12453887637E+03  0.20738023609E+03  0.30155605746E+03  0.17184714849E+03 0.  0.
        -24    2    5    5    0    0 -0.60429395652E+02  0.14594455367E+03  0.21407762307E+03  0.27768390559E+03  0.79546201164E+02 0.  0.
          5    1    3    3  501    0  0.14288206159E+02  0.29302477569E+02 -0.10682396609E+03  0.11178657236E+03  0.47000000000E+01 0. -1.
        -13    1    4    4    0    0  0.23352804752E+02 -0.42543199150E+02 -0.25301236976E+02  0.54730520519E+02  0.00000000000E+00 0.  1.
         14    1    4    4    0    0  0.16100214437E+02 -0.11129815479E+03 -0.23074980540E+03  0.25669431014E+03  0.00000000000E+00 0. -1.
         -5    1    5    5    0  502  0.66881703033E+01 -0.21405677299E+02 -0.66973869859E+01  0.23872151874E+02  0.47000000000E+01 0.  1.
         11    1    6    6    0    0  0.90295212837E+01  0.80372690744E+02  0.88226971772E+02  0.11968834622E+03  0.00000000000E+00 0. -1.
        -12    1    6    6    0    0 -0.69458916936E+02  0.65571862922E+02  0.12585065130E+03  0.15799555937E+03  0.00000000000E+00 0.  1.
</event>
<event>
12    1  0.8500177E-002  0.1803611E+03  0.7818608E-02  0.1167667E+00
         21   -1    0    0  501  502  0.00000000000E+00  0.00000000000E+00  0.38634601913E+03  0.38634601913E+03  0.00000000000E+00 0.  1.
         21   -1    0    0  502  503 -0.00000000000E+00 -0.00000000000E+00 -0.12365808622E+03  0.12365808622E+03  0.00000000000E+00 0. -1.
         -6    2    1    2    0  503 -0.35694921413E+02  0.38349246309E+02 -0.13231919715E+02  0.18084583468E+03  0.17258429858E+03 0.  0.
        -24    2    3    3    0    0 -0.88385021542E+02  0.71648439184E+01 -0.11532833735E+02  0.11941546355E+03  0.79144170093E+02 0.  0.
          6    2    1    2  501    0  0.35694921413E+02 -0.38349246309E+02  0.27591985262E+03  0.32915827067E+03  0.17166423615E+03 0.  0.
         24    2    5    5    0    0  0.42083065706E+02 -0.80236709398E+02  0.25328016851E+03  0.28088805989E+03  0.80860030156E+02 0.  0.
          5    1    5    5  501    0 -0.63881442931E+01  0.41887463089E+02  0.22639684111E+02  0.48270210774E+02  0.47000000000E+01 0. -1.
        -11    1    6    6    0    0  0.34917522026E+02 -0.51596527799E+01  0.14295759430E+03  0.14725056581E+03  0.00000000000E+00 0.  1.
         12    1    6    6    0    0  0.71655436804E+01 -0.75077056618E+02  0.11032257420E+03  0.13363749409E+03  0.00000000000E+00 0. -1.
         -5    1    3    3    0  503  0.52690100129E+02  0.31184402391E+02 -0.16990859799E+01  0.61430371130E+02  0.47000000000E+01 0.  1.
         13    1    4    4    0    0 -0.51538235580E+01  0.15785526164E+02 -0.29480791684E+02  0.33835806653E+02  0.00000000000E+00 0. -1.
        -14    1    4    4    0    0 -0.83231197984E+02 -0.86206822459E+01  0.17947957949E+02  0.85579656897E+02  0.00000000000E+00 0.  1.
</event>
<event>
12    1  0.8500177E-002  0.2531158E+03  0.7818608E-02  0.1111447E+00
         21   -1    0    0  503  502  0.00000000000E+00  0.00000000000E+00  0.18522911078E+04  0.18522911078E+04  0.00000000000E+00 0.  1.
         21   -1    0    0  501  503 -0.00000000000E+00 -0.00000000000E+00 -0.56099415222E+02  0.56099415222E+02  0.00000000000E+00 0. -1.
          6    2    1    2  501    0  0.15361114312E+03 -0.10178100640E+03  0.30675164584E+03  0.39769859864E+03  0.17352765365E+03 0.  0.
         24    2    3    3    0    0  0.13729915671E+03 -0.24864110004E+02  0.13966772718E+03  0.21297876828E+03  0.79897430027E+02 0.  0.
         -6    2    1    2    0  502 -0.15361114312E+03  0.10178100640E+03  0.14894400467E+04  0.15106919244E+04  0.17263453020E+03 0.  0.
        -24    2    5    5    0    0 -0.10064841840E+03  0.10878641559E+03  0.72145842173E+03  0.74083999556E+03  0.79856473672E+02 0.  0.
          5    1    3    3  501    0  0.16311986410E+02 -0.76916896394E+02  0.16708391866E+03  0.18471983035E+03  0.47000000000E+01 0. -1.
        -13    1    4    4    0    0  0.40886163122E+02  0.26291324410E+02  0.63116017846E+02  0.79665198065E+02  0.00000000000E+00 0.  1.
         14    1    4    4    0    0  0.96412993586E+02 -0.51155434414E+02  0.76551709333E+02  0.13331357022E+03  0.00000000000E+00 0. -1.
         -5    1    5    5    0  502 -0.52962724715E+02 -0.70054091970E+01  0.76798162500E+03  0.76985192882E+03  0.47000000000E+01 0.  1.
         11    1    6    6    0    0 -0.20775738712E+02  0.18188527739E+02  0.39053921678E+02  0.47829516606E+02  0.00000000000E+00 0. -1.
        -12    1    6    6    0    0 -0.79872679690E+02  0.90597887856E+02  0.68240450005E+03  0.69301047895E+03  0.00000000000E+00 0.  1.
</event>
<event>
12    1  0.8500177E-002  0.1930915E+03  0.7818608E-02  0.1155804E+00
         21   -1    0    0  503  502  0.00000000000E+00  0.00000000000E+00  0.15563965744E+04  0.15563965744E+04  0.00000000000E+00 0.  1.
         21   -1    0    0  501  503 -0.00000000000E+00 -0.00000000000E+00 -0.32724408626E+02  0.32724408626E+02  0.00000000000E+00 0.  1.
          6    2    1    2  501    0  0.31468131581E+02  0.78475882820E+02  0.34852600246E+03  0.39821678030E+03  0.17308241456E+03 0.  0.
         24    2    3    3    0    0 -0.29309805073E+01  0.82827465901E+02  0.34450000113E+03  0.36299556688E+03  0.78845107917E+02 0.  0.
         -6    2    1    2    0  502 -0.31468131581E+02 -0.78475882820E+02  0.11751461634E+04  0.11909042028E+04  0.17359610433E+03 0.  0.
        -24    2    5    5    0    0  0.11657993629E+02 -0.43660103191E+02  0.10463331018E+04  0.10505942030E+04  0.83024732452E+02 0.  0.
          5    1    3    3  501    0  0.34399112088E+02 -0.43515830808E+01  0.40260013300E+01  0.35221213416E+02  0.47000000000E+01 0. -1.
        -11    1    4    4    0    0 -0.82707888200E+01  0.24772453042E+02  0.18952125204E+02  0.32268613654E+02  0.00000000000E+00 0.  1.
         12    1    4    4    0    0  0.53398083127E+01  0.58055012859E+02  0.32554787593E+03  0.33072695323E+03  0.00000000000E+00 0. -1.
         -5    1    5    5    0  502 -0.43126125210E+02 -0.34815779629E+02  0.12881306161E+03  0.14030999974E+03  0.47000000000E+01 0.  1.
         13    1    6    6    0    0 -0.24138959541E+02 -0.32013046103E+02  0.23556801619E+03  0.23895567526E+03  0.00000000000E+00 0. -1.
        -14    1    6    6    0    0  0.35796953170E+02 -0.11647057088E+02  0.81076508556E+03  0.81163852777E+03  0.00000000000E+00 0.  1.
</event>
<event>
12    1  0.8500177E-002  0.2065945E+03  0.7818608E-02  0.1145724E+00
         21   -1    0    0  503  502  0.00000000000E+00  0.00000000000E+00  0.14127539212E+03  0.14127539212E+03  0.00000000000E+00 0.  1.
         21   -1    0    0  501  503 -0.00000000000E+00 -0.00000000000E+00 -0.47427665709E+03  0.47427665709E+03  0.00000000000E+00 0.  1.
          6    2    1    2  501    0 -0.82757212686E+02  0.57609671121E+02 -0.35902777065E+03  0.41422484036E+03  0.18031541203E+03 0.  0.
         24    2    3    3    0    0 -0.38965291814E+02 -0.15772159861E+02 -0.29174961124E+03  0.30536223803E+03  0.79757167479E+02 0.  0.
         -6    2    1    2    0  502  0.82757212686E+02 -0.57609671121E+02  0.26026505685E+02  0.20132720885E+03  0.17230100281E+03 0.  0.
        -24    2    5    5    0    0  0.34224822094E+02 -0.95848549906E+02  0.43504537484E+02  0.13694416464E+03  0.80639794642E+02 0.  0.
          5    1    3    3  501    0 -0.43791920871E+02  0.73381830982E+02 -0.67278159411E+02  0.10886260233E+03  0.47000000000E+01 0. -1.
        -13    1    4    4    0    0  0.13585583654E+02  0.20112027810E+02 -0.53263913414E+02  0.58532949849E+02  0.00000000000E+00 0.  1.
         14    1    4    4    0    0 -0.52550875468E+02 -0.35884187671E+02 -0.23848569783E+03  0.24682928819E+03  0.00000000000E+00 0. -1.
         -5    1    5    5    0  502  0.48532390592E+02  0.38238878785E+02 -0.17478031798E+02  0.64383044218E+02  0.47000000000E+01 0.  1.
         13    1    6    6    0    0 -0.17441678917E+02 -0.69103488709E+02  0.29289038395E+02  0.77054215234E+02  0.00000000000E+00 0. -1.
        -14    1    6    6    0    0  0.51666501010E+02 -0.26745061197E+02  0.14215499089E+02  0.59889949402E+02  0.00000000000E+00 0.  1.
</event>
<event>
12    1  0.8500177E-002  0.2096515E+03  0.7818608E-02  0.1142039E+00
         21   -1    0    0  503  502  0.00000000000E+00  0.00000000000E+00  0.71131569798E+02  0.71131569798E+02  0.00000000000E+00 0. -1.
         21   -1    0    0  501  503 -0.00000000000E+00 -0.00000000000E+00 -0.65377421504E+03  0.65377421504E+03  0.00000000000E+00 0. -1.
          6    2    1    2  501    0 -0.73397267972E+02  0.88679095230E+02 -0.20241303793E+03  0.29070732457E+03  0.17403611624E+03 0.  0.
         24    2    3    3    0    0 -0.45217512012E+02 -0.22821958718E+02 -0.91718629677E+02  0.13101410087E+03  0.78656992083E+02 0.  0.
         -6    2    1    2    0  502  0.73397267972E+02 -0.88679095230E+02 -0.38022960731E+03  0.43419846027E+03  0.17522159612E+03 0.  0.
        -24    2    5    5    0    0  0.34421802502E+02  0.17503817241E+02 -0.21959572352E+03  0.23768069407E+03  0.82332171359E+02 0.  0.
          5    1    3    3  501    0 -0.28179755960E+02  0.11150105395E+03 -0.11069440825E+03  0.15969322370E+03  0.47000000000E+01 0. -1.
        -13    1    4    4    0    0  0.12691358094E+02  0.13724635635E+02 -0.43257844042E+02  0.47124062481E+02  0.00000000000E+00 0.  1.
         14    1    4    4    0    0 -0.57908870106E+02 -0.36546594354E+02 -0.48460785636E+02  0.83890038385E+02  0.00000000000E+00 0. -1.
         -5    1    5    5    0  502  0.38975465470E+02 -0.10618291247E+03 -0.16063388379E+03  0.19651776620E+03  0.47000000000E+01 0.  1.
         11    1    6    6    0    0 -0.49526983324E+01 -0.29290125687E+02 -0.67271227442E+02  0.73538144694E+02  0.00000000000E+00 0. -1.
        -12    1    6    6    0    0  0.39374500834E+02  0.46793942928E+02 -0.15232449608E+03  0.16414254938E+03  0.00000000000E+00 0.  1.
</event>
<event>
12    1  0.8500177E-002  0.1811908E+03  0.7818608E-02  0.1166658E+00
         21   -1    0    0  501  502  0.00000000000E+00  0.00000000000E+00  0.15345918593E+04  0.15345918593E+04  0.00000000000E+00 0.  1.
         21   -1    0    0  502  503 -0.00000000000E+00 -0.00000000000E+00 -0.35080758779E+02  0.35080758779E+02  0.00000000000E+00 0.  1.
         -6    2    1    2    0  503 -0.42584145360E+02  0.37638631208E+02  0.25951160918E+03  0.31650652033E+03  0.17204658125E+03 0.  0.
        -24    2    3    3    0    0 -0.73892589771E+02 -0.12606814907E+02  0.10018205748E+03  0.14646881984E+03  0.76142129850E+02 0.  0.
          6    2    1    2  501    0  0.42584145360E+02 -0.37638631208E+02  0.12399994913E+04  0.12531660977E+04  0.17203619972E+03 0.  0.
         24    2    5    5    0    0  0.27795446352E+02  0.32259733376E+02  0.95698386180E+03  0.96123387349E+03  0.79618908401E+02 0.  0.
          5    1    5    5  501    0  0.14788699008E+02 -0.69898364583E+02  0.28301562955E+03  0.29193222425E+03  0.47000000000E+01 0. -1.
        -11    1    6    6    0    0  0.29024469527E+02 -0.20559455619E+02  0.48490349792E+03  0.48620624568E+03  0.00000000000E+00 0.  1.
         12    1    6    6    0    0 -0.12290231745E+01  0.52819188994E+02  0.47208036388E+03  0.47502762781E+03  0.00000000000E+00 0. -1.
         -5    1    3    3    0  503  0.31308444411E+02  0.50245446114E+02  0.15932955169E+03  0.17003770050E+03  0.47000000000E+01 0.  1.
         11    1    4    4    0    0 -0.31214625831E+02 -0.34344668084E+02  0.83901859697E+02  0.95882381866E+02  0.00000000000E+00 0. -1.
        -12    1    4    4    0    0 -0.42677963940E+02  0.21737853177E+02  0.16280197786E+02  0.50586437973E+02  0.00000000000E+00 0.  1.
</event>
<event>
12    1  0.8500177E-002  0.2101168E+03  0.7818608E-02  0.1141756E+00
         21   -1    0    0  501  502  0.00000000000E+00  0.00000000000E+00  0.37704844308E+03  0.37704844308E+03  0.00000000000E+00 0.  1.
         21   -1    0    0  502  503 -0.00000000000E+00 -0.00000000000E+00 -0.24511987584E+03  0.24511987584E+03  0.00000000000E+00 0.  1.
         -6    2    1    2    0  503 -0.61123114415E+02  0.10199879618E+03 -0.15965985332E+03  0.26276201832E+03  0.17150166171E+03 0.  0.
        -24    2    3    3    0    0 -0.79607186416E+02  0.11049972865E+02 -0.69297476534E+02  0.13314412403E+03  0.80410269752E+02 0.  0.
          6    2    1    2  501    0  0.61123114415E+02 -0.10199879618E+03  0.29158842057E+03  0.35940630060E+03  0.17323190343E+03 0.  0.
         24    2    5    5    0    0  0.81488553036E+02 -0.71505558616E+02  0.10932544108E+03  0.17343191441E+03  0.79831996594E+02 0.  0.
          5    1    5    5  501    0 -0.20365438620E+02 -0.30493237560E+02  0.18226297949E+03  0.18597438619E+03  0.47000000000E+01 0. -1.
        -11    1    6    6    0    0  0.79600760127E+01 -0.43917064072E+02  0.75964354001E+02  0.88105927188E+02  0.00000000000E+00 0.  1.
         12    1    6    6    0    0  0.73528477023E+02 -0.27588494543E+02  0.33361087077E+02  0.85325987222E+02  0.00000000000E+00 0. -1.
         -5    1    3    3    0  503  0.18484072001E+02  0.90948823310E+02 -0.90362376789E+02  0.12961789428E+03  0.47000000000E+01 0.  1.
         13    1    4    4    0    0 -0.80916419648E+02  0.31193644516E+02 -0.35351233840E+02  0.93649453607E+02  0.00000000000E+00 0. -1.
        -14    1    4    4    0    0  0.13092332318E+01 -0.20143671650E+02 -0.33946242693E+02  0.39494670428E+02  0.00000000000E+00 0.  1.
</event>
<event>
12    1  0.8500177E-002  0.2148553E+03  0.7818608E-02  0.1137842E+00
         21   -1    0    0  501  502  0.00000000000E+00  0.00000000000E+00  0.21261670716E+03  0.21261670716E+03  0.00000000000E+00 0.  1.
         21   -1    0    0  502  503 -0.00000000000E+00 -0.00000000000E+00 -0.32070948469E+03  0.32070948469E+03  0.00000000000E+00 0.  1.
         -6    2    1    2    0  503 -0.11327981268E+02  0.12898536312E+03  0.97726494830E+02  0.23603656243E+03  0.17145624501E+03 0.  0.
        -24    2    3    3    0    0 -0.60614325792E+02  0.32786941423E+02  0.59324139654E+02  0.12123189799E+03  0.80179420832E+02 0.  0.
          6    2    1    2  501    0  0.11327981268E+02 -0.12898536312E+03 -0.20581927236E+03  0.29728962943E+03  0.17103801867E+03 0.  0.
         24    2    5    5    0    0 -0.17456134455E+01 -0.47772107156E+02 -0.19236331091E+03  0.21380511157E+03  0.80148368430E+02 0.  0.
          5    1    5    5  501    0  0.13073594713E+02 -0.81213255967E+02 -0.13455961452E+02  0.83484517858E+02  0.47000000000E+01 0. -1.
        -13    1    6    6    0    0  0.17722057458E+01 -0.44861571451E+02 -0.36463523895E+02  0.57838480971E+02  0.00000000000E+00 0.  1.
         14    1    6    6    0    0 -0.35178191914E+01 -0.29105357049E+01 -0.15589978701E+03  0.15596663060E+03  0.00000000000E+00 0. -1.
         -5    1    3    3    0  503  0.49286344525E+02  0.96198421699E+02  0.38402355177E+02  0.11480466444E+03  0.47000000000E+01 0.  1.
         13    1    4    4    0    0  0.72528132996E+01 -0.18374065313E+02  0.18011833444E+02  0.26732671413E+02  0.00000000000E+00 0. -1.
        -14    1    4    4    0    0 -0.67867139092E+02  0.51161006736E+02  0.41312306210E+02  0.94499226574E+02  0.00000000000E+00 0.  1.
</event>
<event>
12    1  0.8500177E-002  0.2330348E+03  0.7818608E-02  0.1124691E+00
         21   -1    0    0  503  502  0.00000000000E+00  0.00000000000E+00  0.12950371331E+03  0.12950371331E+03  0.00000000000E+00 0. -1.
         21   -1    0    0  501  503 -0.00000000000E+00 -0.00000000000E+00 -0.52237020584E+03  0.52237020584E+03  0.00000000000E+00 0.  1.
          6    2    1    2  501    0  0.14682129813E+03 -0.55707518654E+02 -0.34274739915E+03  0.41446469215E+03  0.17217833836E+03 0.  0.
         24    2    3    3    0    0  0.22497828790E+02 -0.38347607288E+02 -0.22395842882E+03  0.24157570748E+03  0.78897105899E+02 0.  0.
         -6    2    1    2    0  502 -0.14682129813E+03  0.55707518654E+02 -0.50119093381E+02  0.23740922700E+03  0.17085489845E+03 0.  0.
        -24    2    5    5    0    0 -0.15994609297E+03  0.84285421146E+02 -0.30369618745E+02  0.19997811028E+03  0.79888334413E+02 0.  0.
          5    1    3    3  501    0  0.12432346934E+03 -0.17359911366E+02 -0.11878897033E+03  0.17288898468E+03  0.47000000000E+01 0. -1.
        -11    1    4    4    0    0  0.34101040960E+02 -0.38116248339E+01 -0.34546133452E+02  0.48691321762E+02  0.00000000000E+00 0.  1.
         12    1    4    4    0    0 -0.11603212170E+02 -0.34535982454E+02 -0.18941229537E+03  0.19288438571E+03  0.00000000000E+00 0. -1.
         -5    1    5    5    0  502  0.13124794840E+02 -0.28577902491E+02 -0.19749474636E+02  0.37431116719E+02  0.47000000000E+01 0.  1.
         11    1    6    6    0    0 -0.10700369657E+03  0.41391106972E+02  0.18384685981E+02  0.11619385308E+03  0.00000000000E+00 0. -1.
        -12    1    6    6    0    0 -0.52942396401E+02  0.42894314174E+02 -0.48754304725E+02  0.83784257199E+02  0.00000000000E+00 0.  1.
</event>
<event>
12    1  0.8500177E-002  0.3349255E+03  0.7818608E-02  0.1069122E+00
         21   -1    0    0  501  502  0.00000000000E+00  0.00000000000E+00  0.17228050456E+04  0.17228050456E+04  0.00000000000E+00 0.  1.
         21   -1    0    0  502  503 -0.00000000000E+00 -0.00000000000E+00 -0.17167149669E+03  0.17167149669E+03  0.00000000000E+00 0. -1.
         -6    2    1    2    0  503 -0.18249445815E+03  0.22202458932E+03  0.28959135243E+02  0.33617514848E+03  0.17197660720E+03 0.  0.
        -24    2    3    3    0    0 -0.13238603210E+02  0.74304714663E+02 -0.15018987168E+00  0.10959591597E+03  0.79465659270E+02 0.  0.
          6    2    1    2  501    0  0.18249445815E+03 -0.22202458932E+03  0.15221744136E+04  0.15583013938E+04  0.16937869652E+03 0.  0.
         24    2    5    5    0    0  0.82746592432E+02 -0.19499514371E+03  0.92624920491E+03  0.95346325673E+03  0.79274760840E+02 0.  0.
          5    1    5    5  501    0  0.99747865714E+02 -0.27029445608E+02  0.59592520873E+03  0.60483813706E+03  0.47000000000E+01 0. -1.
        -11    1    6    6    0    0  0.10350911464E+02  0.59488859941E+01  0.35073207864E+02  0.37049433498E+02  0.00000000000E+00 0.  1.
         12    1    6    6    0    0  0.72395680968E+02 -0.20094402970E+03  0.89117599705E+03  0.91641382323E+03  0.00000000000E+00 0. -1.
         -5    1    3    3    0  503 -0.16925585494E+03  0.14771987465E+03  0.29109325115E+02  0.22657923251E+03  0.47000000000E+01 0.  1.
         11    1    4    4    0    0  0.22285258231E+02  0.67977519619E+02  0.97019620935E+01  0.72192132372E+02  0.00000000000E+00 0. -1.
        -12    1    4    4    0    0 -0.35523861441E+02  0.63271950448E+01 -0.98521519652E+01  0.37403783594E+02  0.00000000000E+00 0.  1.
</event>
<event>
12    1  0.8500177E-002  0.2350813E+03  0.7818608E-02  0.1123332E+00
         21   -1    0    0  503  502  0.00000000000E+00  0.00000000000E+00  0.87484151370E+03  0.87484151370E+03  0.00000000000E+00 0. -1.
         21   -1    0    0  501  503 -0.00000000000E+00 -0.00000000000E+00 -0.64318347668E+02  0.64318347668E+02  0.00000000000E+00 0. -1.
          6    2    1    2  501    0  0.15307597703E+03 -0.45291411802E+02  0.47566439861E+03  0.53002222950E+03  0.17083142841E+03 0.  0.
         24    2    3    3    0    0  0.16291332207E+03  0.48508995905E+01  0.33933679482E+03  0.38435709879E+03  0.77566986129E+02 0.  0.
         -6    2    1    2    0  502 -0.15307597703E+03  0.45291411802E+02  0.33485876742E+03  0.40913763187E+03  0.17256778657E+03 0.  0.
        -24    2    5    5    0    0 -0.98616983865E+02  0.85657098214E+02  0.29440125654E+03  0.33005494878E+03  0.72122960189E+02 0.  0.
          5    1    3    3  501    0 -0.98373450394E+01 -0.50142311392E+02  0.13632760378E+03  0.14566513070E+03  0.47000000000E+01 0. -1.
        -13    1    4    4    0    0  0.30537025493E+02 -0.10734489083E+02  0.14587697925E+03  0.14942500546E+03  0.00000000000E+00 0.  1.
         14    1    4    4    0    0  0.13237629658E+03  0.15585388673E+02  0.19345981557E+03  0.23493209333E+03  0.00000000000E+00 0. -1.
         -5    1    5    5    0  502 -0.54458993169E+02 -0.40365686412E+02  0.40457510885E+02  0.79082683082E+02  0.47000000000E+01 0.  1.
         11    1    6    6    0    0 -0.10242662182E+03  0.54397963312E+02  0.20882512206E+03  0.23886875659E+03  0.00000000000E+00 0. -1.
        -12    1    6    6    0    0  0.38096379509E+01  0.31259134902E+02  0.85576134471E+02  0.91186192196E+02  0.00000000000E+00 0.  1.
</event>
<event>
12    1  0.8500177E-002  0.1795586E+03  0.7818608E-02  0.1168396E+00
         21   -1    0    0  501  502  0.00000000000E+00  0.00000000000E+00  0.14213699138E+03  0.14213699138E+03  0.00000000000E+00 0.  1.
         21   -1    0    0  502  503 -0.00000000000E+00 -0.00000000000E+00 -0.22654976937E+03  0.22654976937E+03  0.00000000000E+00 0.  1.
         -6    2    1    2    0  503 -0.42642248647E+02  0.15839634256E+02 -0.33001226558E+02  0.18256607866E+03  0.17370099810E+03 0.  0.
        -24    2    3    3    0    0 -0.76179665387E+02  0.21856720494E+02 -0.70059277031E+02  0.13200569147E+03  0.78969251186E+02 0.  0.
          6    2    1    2  501    0  0.42642248647E+02 -0.15839634256E+02 -0.51411551435E+02  0.18612068209E+03  0.17299857022E+03 0.  0.
         24    2    5    5    0    0  0.19798144828E+02  0.57567136286E+02 -0.15161196818E+02  0.10099380472E+03  0.79145088191E+02 0.  0.
          5    1    5    5  501    0  0.22844103819E+02 -0.73406770542E+02 -0.36250354617E+02  0.85126877369E+02  0.47000000000E+01 0. -1.
        -13    1    6    6    0    0 -0.16076370073E+02 -0.84614244313E+01 -0.18296096810E+02  0.25783571060E+02  0.00000000000E+00 0.  1.
         14    1    6    6    0    0  0.35874514900E+02  0.66028560717E+02  0.31348999922E+01  0.75210233664E+02  0.00000000000E+00 0. -1.
         -5    1    3    3    0  503  0.33537416740E+02 -0.60170862377E+01  0.37058050474E+02  0.50560387195E+02  0.47000000000E+01 0.  1.
         11    1    4    4    0    0 -0.61612730195E+02  0.48004397250E+02 -0.34116425989E+02  0.85231925941E+02  0.00000000000E+00 0. -1.
        -12    1    4    4    0    0 -0.14566935192E+02 -0.26147676756E+02 -0.35942851042E+02  0.46773765528E+02  0.00000000000E+00 0.  1.
</event>
<event>
12    1  0.8500177E-002  0.2076810E+03  0.7818608E-02  0.1144204E+00
         21   -1    0    0  503  502  0.00000000000E+00  0.00000000000E+00  0.18934666349E+03  0.18934666349E+03  0.00000000000E+00 0. -1.
         21   -1    0    0  501  503 -0.00000000000E+00 -0.00000000000E+00 -0.28726122217E+03  0.28726122217E+03  0.00000000000E+00 0.  1.
          6    2    1    2  501    0  0.97131932668E+02 -0.50600912307E+02 -0.16082361874E+03  0.25960802200E+03  0.17186338782E+03 0.  0.
         24    2    3    3    0    0  0.90693826595E+02  0.27343066948E+02 -0.95199471129E+02  0.15740561566E+03  0.82101005145E+02 0.  0.
         -6    2    1    2    0  502 -0.97131932668E+02  0.50600912307E+02  0.62909060057E+02  0.21699986366E+03  0.17645488467E+03 0.  0.
        -24    2    5    5    0    0 -0.45969649032E+02  0.87049009437E+02 -0.71747494605E+00  0.12746512735E+03  0.80969779812E+02 0.  0.
          5    1    3    3  501    0  0.64381060729E+01 -0.77943979255E+02 -0.65624147608E+02  0.10220240634E+03  0.47000000000E+01 0. -1.
        -13    1    4    4    0    0  0.64839662309E+02 -0.20597977868E+02 -0.69230598559E+02  0.97063557927E+02  0.00000000000E+00 0.  1.
         14    1    4    4    0    0  0.25854164286E+02  0.47941044816E+02 -0.25968872570E+02  0.60342057734E+02  0.00000000000E+00 0. -1.
         -5    1    5    5    0  502 -0.51162283635E+02 -0.36448097130E+02  0.63626535003E+02  0.89534736319E+02  0.47000000000E+01 0.  1.
         13    1    6    6    0    0 -0.57631075343E+02  0.22497363106E+02 -0.38097957486E+00  0.61867740684E+02  0.00000000000E+00 0. -1.
        -14    1    6    6    0    0  0.11661426311E+02  0.64551646331E+02 -0.33649537119E+00  0.65597386661E+02  0.00000000000E+00 0.  1.
</event>
<event>
12    1  0.8500177E-002  0.1873824E+03  0.7818608E-02  0.1161884E+00
         21   -1    0    0  501  502  0.00000000000E+00  0.00000000000E+00  0.64053213032E+02  0.64053213032E+02  0.00000000000E+00 0.  1.
         21   -1    0    0  502  503 -0.00000000000E+00 -0.00000000000E+00 -0.70618580091E+03  0.70618580091E+03  0.00000000000E+00 0.  1.
         -6    2    1    2    0  503 -0.59719397391E+02 -0.12175810565E+02 -0.12861782633E+03  0.22360424413E+03  0.17245769324E+03 0.  0.
        -24    2    3    3    0    0 -0.19512725649E+02  0.37742617314E+00  0.58092902072E+01  0.82654253477E+02  0.80106734126E+02 0.  0.
          6    2    1    2  501    0  0.59719397391E+02  0.12175810565E+02 -0.51351476155E+03  0.54663476981E+03  0.17719340972E+03 0.  0.
         24    2    5    5    0    0  0.38554826645E+02  0.61298765389E+02 -0.18422938697E+03  0.21300031167E+03  0.78642561336E+02 0.  0.
          5    1    5    5  501    0  0.21164570745E+02 -0.49122954824E+02 -0.32928537458E+03  0.33363445814E+03  0.47000000000E+01 0. -1.
        -11    1    6    6    0    0  0.53704320020E+02  0.18574405221E+02 -0.70373228719E+02  0.90451942149E+02  0.00000000000E+00 0.  1.
         12    1    6    6    0    0 -0.15149493375E+02  0.42724360168E+02 -0.11385615825E+03  0.12254836953E+03  0.00000000000E+00 0. -1.
         -5    1    3    3    0  503 -0.40206671742E+02 -0.12553236738E+02 -0.13442711654E+03  0.14094999065E+03  0.47000000000E+01 0.  1.
         11    1    4    4    0    0  0.20721977146E+02 -0.26599151095E+02  0.57970352523E+01  0.34212874675E+02  0.00000000000E+00 0. -1.
        -12    1    4    4    0    0 -0.40234702795E+02  0.26976577268E+02  0.12254954908E-01  0.48441378802E+02  0.00000000000E+00 0.  1.
</event>
<event>
12    1  0.8500177E-002  0.2581105E+03  0.7818608E-02  0.1108385E+00
         21   -1    0    0  501  502  0.00000000000E+00  0.00000000000E+00  0.18377417444E+04  0.18377417444E+04  0.00000000000E+00 0. -1.
         21   -1    0    0  502  503 -0.00000000000E+00 -0.00000000000E+00 -0.14755047131E+03  0.14755047131E+03  0.00000000000E+00 0.  1.
         -6    2    1    2    0  503 -0.11504701782E+03  0.15434005365E+03 -0.17122230011E+02  0.25867782377E+03  0.17194294776E+03 0.  0.
        -24    2    3    3    0    0 -0.10790423855E+03  0.18267121952E+03 -0.22986833678E+02  0.22850900159E+03  0.81705998248E+02 0.  0.
          6    2    1    2  501    0  0.11504701782E+03 -0.15434005365E+03  0.17073135031E+04  0.17266143919E+04  0.17094207233E+03 0.  0.
         24    2    5    5    0    0  0.32903565685E+02 -0.21393891542E+02  0.38615738802E+03  0.39623933235E+03  0.79672686342E+02 0.  0.
          5    1    5    5  501    0  0.82143452136E+02 -0.13294616210E+03  0.13211561151E+04  0.13303750596E+04  0.47000000000E+01 0. -1.
        -11    1    6    6    0    0  0.56680167719E+02 -0.51132009459E+01  0.30115930429E+03  0.30648933553E+03  0.00000000000E+00 0.  1.
         12    1    6    6    0    0 -0.23776602034E+02 -0.16280690596E+02  0.84998083738E+02  0.89749996823E+02  0.00000000000E+00 0. -1.
         -5    1    3    3    0  503 -0.71427792697E+01 -0.28331165873E+02  0.58646036670E+01  0.30168822178E+02  0.47000000000E+01 0.  1.
         11    1    4    4    0    0  0.10088934890E+02  0.37248700591E+01  0.58324467744E+01  0.12234324646E+02  0.00000000000E+00 0. -1.
        -12    1    4    4    0    0 -0.11799317344E+03  0.17894634946E+03 -0.28819280452E+02  0.21627467695E+03  0.00000000000E+00 0.  1.
</event>
<event>
12    1  0.8500177E-002  0.1881678E+03  0.7818608E-02  0.1161241E+00
         21   -1    0    0  501  502  0.00000000000E+00  0.00000000000E+00  0.19301160266E+03  0.19301160266E+03  0.00000000000E+00 0.  1.
         21   -1    0    0  502  503 -0.00000000000E+00 -0.00000000000E+00 -0.25196555450E+03  0.25196555450E+03  0.00000000000E+00 0.  1.
         -6    2    1    2    0  503 -0.25498998495E+02 -0.70922566034E+02 -0.14911028523E+03  0.23632602756E+03  0.16714037467E+03 0.  0.
        -24    2    3    3    0    0 -0.31052668507E+02  0.22592662892E+02 -0.10330307835E+03  0.13194053291E+03  0.72540206711E+02 0.  0.
          6    2    1    2  501    0  0.25498998495E+02  0.70922566034E+02  0.90156333398E+02  0.20865112960E+03  0.17241496494E+03 0.  0.
         24    2    5    5    0    0 -0.20073654713E+02  0.36387099497E+02  0.11485228809E+03  0.14618877816E+03  0.80331426966E+02 0.  0.
          5    1    5    5  501    0  0.45572653208E+02  0.34535466537E+02 -0.24695954688E+02  0.62462351439E+02  0.47000000000E+01 0. -1.
        -13    1    6    6    0    0  0.22207614366E+02  0.40941286865E+02  0.47429073577E+02  0.66474687862E+02  0.00000000000E+00 0.  1.
         14    1    6    6    0    0 -0.42281269079E+02 -0.45541873684E+01  0.67423214509E+02  0.79714090299E+02  0.00000000000E+00 0. -1.
         -5    1    3    3    0  503  0.55536700124E+01 -0.93515228926E+02 -0.45807206879E+02  0.10438549465E+03  0.47000000000E+01 0.  1.
         13    1    4    4    0    0 -0.45155121870E+00 -0.24550755479E+02 -0.21187755281E+02  0.32432460082E+02  0.00000000000E+00 0. -1.
        -14    1    4    4    0    0 -0.30601117289E+02  0.47143418371E+02 -0.82115323073E+02  0.99508072830E+02  0.00000000000E+00 0.  1.
</event>
<event>
12    1  0.8500177E-002  0.1824210E+03  0.7818608E-02  0.1165731E+00
         21   -1    0    0  503  502  0.00000000000E+00  0.00000000000E+00  0.17875692597E+04  0.17875692597E+04  0.00000000000E+00 0.  1.
         21   -1    0    0  501  503 -0.00000000000E+00 -0.00000000000E+00 -0.21138434663E+02  0.21138434663E+02  0.00000000000E+00 0. -1.
          6    2    1    2  501    0 -0.39713776207E+02 -0.43721933216E+02  0.56648832578E+03  0.59513563914E+03  0.17259378397E+03 0.  0.
         24    2    3    3    0    0 -0.17212455371E+00 -0.85152889843E+02  0.45956974857E+03  0.47375302698E+03  0.77372685720E+02 0.  0.
         -6    2    1    2    0  502  0.39713776207E+02  0.43721933216E+02  0.11999424993E+04  0.12135720553E+04  0.17148276949E+03 0.  0.
        -24    2    5    5    0    0  0.29949176344E+01  0.73838127633E+02  0.49780493605E+03  0.50981463437E+03  0.81487228676E+02 0.  0.
          5    1    3    3  501    0 -0.39541651653E+02  0.41430956627E+02  0.10691857721E+03  0.12138261216E+03  0.47000000000E+01 0. -1.
        -11    1    4    4    0    0 -0.19829851260E+02 -0.13714284257E+02  0.25574186430E+03  0.25687585669E+03  0.00000000000E+00 0.  1.
         12    1    4    4    0    0  0.19657726706E+02 -0.71438605586E+02  0.20382788427E+03  0.21687717029E+03  0.00000000000E+00 0. -1.
         -5    1    5    5    0  502  0.36718858572E+02 -0.30116194418E+02  0.70213756325E+03  0.70375742089E+03  0.47000000000E+01 0.  1.
         11    1    6    6    0    0  0.14827455760E+02  0.30946094229E+01  0.13695437422E+02  0.20420456850E+02  0.00000000000E+00 0. -1.
        -12    1    6    6    0    0 -0.11832538126E+02  0.70743518210E+02  0.48410949863E+03  0.48939417752E+03  0.00000000000E+00 0.  1.
</event>
<event>
12    1  0.8500177E-002  0.3440678E+03  0.7818608E-02  0.1065239E+00
         21   -1    0    0  501  502  0.00000000000E+00  0.00000000000E+00  0.91306665474E+02  0.91306665474E+02  0.00000000000E+00 0.  1.
         21   -1    0    0  502  503 -0.00000000000E+00 -0.00000000000E+00 -0.16285522697E+04  0.16285522697E+04  0.00000000000E+00 0. -1.
         -6    2    1    2    0  503 -0.28895278886E+03  0.74178890900E+02 -0.37833120849E+03  0.51138747059E+03  0.17142467650E+03 0.  0.
        -24    2    3    3    0    0 -0.54816001953E+02  0.32106486724E+02 -0.78260173639E+02  0.12843207092E+03  0.79589707272E+02 0.  0.
          6    2    1    2  501    0  0.28895278886E+03 -0.74178890900E+02 -0.11589143957E+04  0.12084714646E+04  0.16829878798E+03 0.  0.
         24    2    5    5    0    0  0.62202517424E+02 -0.22272063989E+02 -0.24594683902E+03  0.26632399529E+03  0.77932181023E+02 0.  0.
          5    1    5    5  501    0  0.22675027143E+03 -0.51906826911E+02 -0.91296755672E+03  0.94214746929E+03  0.47000000000E+01 0. -1.
        -13    1    6    6    0    0  0.66959551859E+02  0.50082009537E+01 -0.12136479336E+03  0.13870139411E+03  0.00000000000E+00 0.  1.
         14    1    6    6    0    0 -0.47570344342E+01 -0.27280264943E+02 -0.12458204566E+03  0.12762260118E+03  0.00000000000E+00 0. -1.
         -5    1    3    3    0  503 -0.23413678691E+03  0.42072404176E+02 -0.30007103486E+03  0.38295539967E+03  0.47000000000E+01 0.  1.
         13    1    4    4    0    0 -0.98218495314E+01  0.31801332313E+02 -0.76472187999E+02  0.83401372905E+02  0.00000000000E+00 0. -1.
        -14    1    4    4    0    0 -0.44994152421E+02  0.30515441119E+00 -0.17879856396E+01  0.45030698018E+02  0.00000000000E+00 0.  1.
</event>
<event>
12    1  0.8500177E-002  0.2095164E+03  0.7818608E-02  0.1142060E+00
         21   -1    0    0  503  502  0.00000000000E+00  0.00000000000E+00  0.89593535007E+02  0.89593535007E+02  0.00000000000E+00 0.  1.
         21   -1    0    0  501  503 -0.00000000000E+00 -0.00000000000E+00 -0.69215731461E+03  0.69215731461E+03  0.00000000000E+00 0.  1.
          6    2    1    2  501    0 -0.98569411637E+02  0.66515116637E+02 -0.51294151100E+03  0.55387092675E+03  0.17182496948E+03 0.  0.
         24    2    3    3    0    0 -0.66060895740E+02  0.68873106914E+02 -0.17685840797E+03  0.21617830636E+03  0.79665656769E+02 0.  0.
         -6    2    1    2    0  502  0.98569411637E+02 -0.66515116637E+02 -0.89622268598E+02  0.22787992286E+03  0.17250193786E+03 0.  0.
        -24    2    5    5    0    0  0.13276955288E+03 -0.65630801441E+02 -0.51843356379E+02  0.17669625474E+03  0.81232238473E+02 0.  0.
          5    1    3    3  501    0 -0.32508515898E+02 -0.23579902769E+01 -0.33608310303E+03  0.33769262039E+03  0.47000000000E+01 0. -1.
        -13    1    4    4    0    0  0.16578231943E+02  0.74874791319E+01 -0.47455811835E+02  0.50822772406E+02  0.00000000000E+00 0.  1.
         14    1    4    4    0    0 -0.82639127683E+02  0.61385627782E+02 -0.12940259614E+03  0.16535553396E+03  0.00000000000E+00 0. -1.
         -5    1    5    5    0  502 -0.34200141244E+02 -0.88431519612E+00 -0.37778912219E+02  0.51183668127E+02  0.47000000000E+01 0.  1.
         11    1    6    6    0    0 -0.60669914872E+01 -0.71030880700E+01 -0.20886233636E+02  0.22880056848E+02  0.00000000000E+00 0. -1.
        -12    1    6    6    0    0  0.13883654437E+03 -0.58527713371E+02 -0.30957122743E+02  0.15381619789E+03  0.00000000000E+00 0.  1.
</event>
<event>
12    1  0.8500177E-002  0.2117182E+03  0.7818608E-02  0.1140840E+00
         21   -1    0    0  503  502  0.00000000000E+00  0.00000000000E+00  0.86108485693E+02  0.86108485693E+02  0.00000000000E+00 0. -1.
         21   -1    0    0  501  503 -0.00000000000E+00 -0.00000000000E+00 -0.52244639619E+03  0.52244639619E+03  0.00000000000E+00 0.  1.
          6    2    1    2  501    0  0.31652935965E+02 -0.11970933032E+03 -0.25794765978E+03  0.33170174792E+03  0.16779994716E+03 0.  0.
         24    2    3    3    0    0  0.58338505847E+02 -0.23722361123E+02 -0.17351741788E+03  0.20102591372E+03  0.79605225952E+02 0.  0.
         -6    2    1    2    0  502 -0.31652935965E+02  0.11970933032E+03 -0.17839025071E+03  0.27685313396E+03  0.17173335178E+03 0.  0.
        -24    2    5    5    0    0 -0.45614459952E+02  0.51536427724E+02 -0.24319303124E+02  0.10773064672E+03  0.79232451676E+02 0.  0.
          5    1    3    3  501    0 -0.26685569882E+02 -0.95986969197E+02 -0.84430241905E+02  0.13067583420E+03  0.47000000000E+01 0. -1.
        -13    1    4    4    0    0  0.52472018116E+01  0.63247104112E+01 -0.11878122076E+03  0.11906516490E+03  0.00000000000E+00 0.  1.
         14    1    4    4    0    0  0.53091304035E+02 -0.30047071534E+02 -0.54736197124E+02  0.81960748823E+02  0.00000000000E+00 0. -1.
         -5    1    5    5    0  502  0.13961523987E+02  0.68172902595E+02 -0.15407094758E+03  0.16912248724E+03  0.47000000000E+01 0.  1.
         13    1    6    6    0    0 -0.61947498900E+02  0.30247831389E+02 -0.36791698400E+02  0.78141237479E+02  0.00000000000E+00 0. -1.
        -14    1    6    6    0    0  0.16333038948E+02  0.21288596335E+02  0.12472395276E+02  0.29589409239E+02  0.00000000000E+00 0.  1.
</event>
<event>
12    1  0.8500177E-002  0.2453715E+03  0.7818608E-02  0.1116281E+00
         21   -1    0    0  503  502  0.00000000000E+00  0.00000000000E+00  0.20515476295E+03  0.20515476295E+03  0.00000000000E+00 0. -1.
         21   -1    0    0  501  503 -0.00000000000E+00 -0.00000000000E+00 -0.35018598079E+03  0.35018598079E+03  0.00000000000E+00 0.  1.
          6    2    1    2  501    0  0.11608092138E+03 -0.13116949056E+03 -0.18436326832E+03  0.30683689564E+03  0.17169406005E+03 0.  0.
         24    2    3    3    0    0  0.63568461088E+02 -0.71495035613E+02 -0.19062494526E+03  0.22696263409E+03  0.77599472657E+02 0.  0.
         -6    2    1    2    0  502 -0.11608092138E+03  0.13116949056E+03  0.39332050476E+02  0.24850384810E+03  0.17183403843E+03 0.  0.
        -24    2    5    5    0    0 -0.57643223414E+02  0.22998311967E+02  0.68742093891E+02  0.12200084783E+03  0.79417050062E+02 0.  0.
          5    1    3    3  501    0  0.52512460293E+02 -0.59674454952E+02  0.62616769364E+01  0.79874261548E+02  0.47000000000E+01 0. -1.
        -13    1    4    4    0    0  0.81826064344E+02 -0.61024922631E+02 -0.16065842946E+03  0.19034357605E+03  0.00000000000E+00 0.  1.
         14    1    4    4    0    0 -0.18257603256E+02 -0.10470112982E+02 -0.29966515800E+02  0.36619058039E+02  0.00000000000E+00 0. -1.
         -5    1    5    5    0  502 -0.58437697967E+02  0.10817117860E+03 -0.29410043415E+02  0.12650300027E+03  0.47000000000E+01 0.  1.
         11    1    6    6    0    0 -0.44899401706E+01 -0.13432673703E+02  0.54093649101E+02  0.55917073945E+02  0.00000000000E+00 0. -1.
        -12    1    6    6    0    0 -0.53153283244E+02  0.36430985670E+02  0.14648444790E+02  0.66083773887E+02  0.00000000000E+00 0.  1.
</event>
<event>
12    1  0.8500177E-002  0.1834886E+03  0.7818608E-02  0.1164501E+00
         21   -1    0    0  501  502  0.00000000000E+00  0.00000000000E+00  0.14558022279E+03  0.14558022279E+03  0.00000000000E+00 0.  1.
         21   -1    0    0  502  503 -0.00000000000E+00 -0.00000000000E+00 -0.52922934118E+03  0.52922934118E+03  0.00000000000E+00 0.  1.
         -6    2    1    2    0  503  0.46436664221E+02 -0.44485469152E+02 -0.44503472616E+03  0.48132505437E+03  0.17170492051E+03 0.  0.
        -24    2    3    3    0    0  0.19315561068E+02 -0.85062539860E+02 -0.21165549779E+03  0.24285072213E+03  0.81053666834E+02 0.  0.
          6    2    1    2  501    0 -0.46436664221E+02  0.44485469152E+02  0.61385607762E+02  0.19348450960E+03  0.17185092919E+03 0.  0.
         24    2    5    5    0    0 -0.78817743102E+02  0.12835891725E+01  0.78954745594E+02  0.13651345285E+03  0.78665028615E+02 0.  0.
          5    1    5    5  501    0  0.32381078881E+02  0.43201879980E+02 -0.17569137832E+02  0.56971056752E+02  0.47000000000E+01 0. -1.
        -13    1    6    6    0    0 -0.57618334567E+02 -0.19521402092E+02  0.86609289256E+02  0.10584009922E+03  0.00000000000E+00 0.  1.
         14    1    6    6    0    0 -0.21199408536E+02  0.20804991265E+02 -0.76545436623E+01  0.30673353623E+02  0.00000000000E+00 0. -1.
         -5    1    3    3    0  503  0.27121103153E+02  0.40577070708E+02 -0.23337922837E+03  0.23847433224E+03  0.47000000000E+01 0.  1.
         13    1    4    4    0    0  0.48943402942E+02 -0.69228844441E+02 -0.13920989456E+03  0.16299535066E+03  0.00000000000E+00 0. -1.
        -14    1    4    4    0    0 -0.29627841874E+02 -0.15833695419E+02 -0.72445603233E+02  0.79855371469E+02  0.00000000000E+00 0.  1.
</event>
<event>
12    1  0.8500177E-002  0.1965222E+03  0.7818608E-02  0.1153177E+00
         21   -1    0    0  501  502  0.00000000000E+00  0.00000000000E+00  0.22081196198E+03  0.22081196198E+03  0.00000000000E+00 0.  1.
         21   -1    0    0  502  503 -0.00000000000E+00 -0.00000000000E+00 -0.26042177390E+03  0.26042177390E+03  0.00000000000E+00 0.  1.
         -6    2    1    2    0  503  0.89510782645E+02  0.35034420092E+02 -0.15930201915E+03  0.25297850642E+03  0.17141003648E+03 0.  0.
        -24    2    3    3    0    0  0.15483521029E+01  0.65356538519E+02 -0.84703282191E+02  0.13363077243E+03  0.80054124228E+02 0.  0.
          6    2    1    2  501    0 -0.89510782645E+02 -0.35034420092E+02  0.11969220723E+03  0.22825522946E+03  0.16892197756E+03 0.  0.
         24    2    5    5    0    0 -0.11991676965E+03 -0.37347373460E+02  0.12795228892E+03  0.19631477316E+03  0.79955262307E+02 0.  0.
          5    1    5    5  501    0  0.30405987009E+02  0.23129533683E+01 -0.82600816944E+01  0.31940456303E+02  0.47000000000E+01 0. -1.
        -13    1    6    6    0    0  0.40304892190E+01 -0.20570226660E+02  0.64329506401E+01  0.21926283819E+02  0.00000000000E+00 0.  1.
         14    1    6    6    0    0 -0.12394725887E+03 -0.16777146800E+02  0.12151933828E+03  0.17438848934E+03  0.00000000000E+00 0. -1.
         -5    1    3    3    0  503  0.87962430542E+02 -0.30322118427E+02 -0.74598736956E+02  0.11934773399E+03  0.47000000000E+01 0.  1.
         13    1    4    4    0    0  0.20266757889E+02  0.77737531548E+02 -0.60096801017E+02  0.10032691951E+03  0.00000000000E+00 0. -1.
        -14    1    4    4    0    0 -0.18718405786E+02 -0.12380993030E+02 -0.24606481174E+02  0.33303852920E+02  0.00000000000E+00 0.  1.
</event>
<event>
12    1  0.8500177E-002  0.1875096E+03  0.7818608E-02  0.1161862E+00
         21   -1    0    0  503  502  0.00000000000E+00  0.00000000000E+00  0.57898054001E+02  0.57898054001E+02  0.00000000000E+00 0. -1.
         21   -1    0    0  501  503 -0.00000000000E+00 -0.00000000000E+00 -0.63498689705E+03  0.63498689705E+03  0.00000000000E+00 0. -1.
          6    2    1    2  501    0 -0.39260919778E+02 -0.46411506401E+02 -0.38266868444E+03  0.42613983133E+03  0.17738203416E+03 0.  0.
         24    2    3    3    0    0 -0.26769624607E+02  0.28165790391E+02 -0.10408204166E+03  0.13743511508E+03  0.80903738535E+02 0.  0.
         -6    2    1    2    0  502  0.39260919778E+02  0.46411506401E+02 -0.19442015860E+03  0.26674511972E+03  0.17221589089E+03 0.  0.
        -24    2    5    5    0    0  0.55628359104E+02  0.86437158293E+02 -0.17652976027E+03  0.21971212883E+03  0.80899731912E+02 0.  0.
          5    1    3    3  501    0 -0.12491295171E+02 -0.74577296793E+02 -0.27858664278E+03  0.28870471625E+03  0.47000000000E+01 0. -1.
        -13    1    4    4    0    0  0.20370796763E+02  0.23776558757E+02 -0.11326457136E+02  0.33295386142E+02  0.00000000000E+00 0.  1.
         14    1    4    4    0    0 -0.47140421370E+02  0.43892316346E+01 -0.92755584528E+02  0.10413972893E+03  0.00000000000E+00 0. -1.
         -5    1    5    5    0  502 -0.16367439326E+02 -0.40025651892E+02 -0.17890398334E+02  0.47032990890E+02  0.47000000000E+01 0.  1.
         13    1    6    6    0    0  0.15108802093E+02  0.31312201199E+02 -0.13560564005E+03  0.13999149780E+03  0.00000000000E+00 0. -1.
        -14    1    6    6    0    0  0.40519557011E+02  0.55124957095E+02 -0.40924120220E+02  0.79720631024E+02  0.00000000000E+00 0.  1.
</event>
<event>
12    1  0.8500177E-002  0.2305681E+03  0.7818608E-02  0.1126436E+00
         21   -1    0    0  501  502  0.00000000000E+00  0.00000000000E+00  0.23144988312E+03  0.23144988312E+03  0.00000000000E+00 0. -1.
         21   -1    0    0  502  503 -0.00000000000E+00 -0.00000000000E+00 -0.23357763825E+03  0.23357763825E+03  0.00000000000E+00 0.  1.
         -6    2    1    2    0  503  0.12338214210E+03 -0.89316362741E+02 -0.35062527179E+02  0.23321884987E+03  0.17309270776E+03 0.  0.
        -24    2    3    3    0    0  0.10163184074E+03 -0.11146702623E+03  0.18180971832E+02  0.17140713828E+03  0.79346898668E+02 0.  0.
          6    2    1    2  501    0 -0.12338214210E+03  0.89316362741E+02  0.32934772051E+02  0.23180867150E+03  0.17161000942E+03 0.  0.
         24    2    5    5    0    0 -0.14546514657E+03  0.10920621933E+03  0.32005651161E+02  0.20170520414E+03  0.81083416715E+02 0.  0.
          5    1    5    5  501    0  0.22083004471E+02 -0.19889856585E+02  0.92912089022E+00  0.30103467360E+02  0.47000000000E+01 0. -1.
        -13    1    6    6    0    0 -0.14381911960E+02 -0.31634849254E+01 -0.16745605534E+02  0.22299379659E+02  0.00000000000E+00 0.  1.
         14    1    6    6    0    0 -0.13108323461E+03  0.11236970425E+03  0.48751256695E+02  0.17940582448E+03  0.00000000000E+00 0. -1.
         -5    1    3    3    0  503  0.21750301358E+02  0.22150663491E+02 -0.53243499010E+02  0.61811711586E+02  0.47000000000E+01 0.  1.
         11    1    4    4    0    0  0.40322394086E+02  0.21710592949E+01  0.12047465791E+02  0.42139653478E+02  0.00000000000E+00 0. -1.
        -12    1    4    4    0    0  0.61309446654E+02 -0.11363808553E+03  0.61335060404E+01  0.12926748480E+03  0.00000000000E+00 0.  1.
</event>
<event>
12    1  0.8500177E-002  0.1950386E+03  0.7818608E-02  0.1157865E+00
         21   -1    0    0  503  502  0.00000000000E+00  0.00000000000E+00  0.19425369822E+04  0.19425369822E+04  0.00000000000E+00 0. -1.
         21   -1    0    0  501  503 -0.00000000000E+00 -0.00000000000E+00 -0.37013046590E+02  0.37013046590E+02  0.00000000000E+00 0. -1.
          6    2    1    2  501    0 -0.61867025402E+02  0.60101138129E+02  0.22132391271E+03  0.28409441019E+03  0.15583864709E+03 0.  0.
         24    2    3    3    0    0 -0.22078316605E+02  0.59149262382E+02  0.61535813938E+02  0.11935712259E+03  0.80457311741E+02 0.  0.
         -6    2    1    2    0  502  0.61867025402E+02 -0.60101138129E+02  0.16842000229E+04  0.16954556186E+04  0.17492959117E+03 0.  0.
        -24    2    5    5    0    0  0.14716681104E+02 -0.79263658159E+02  0.14994610116E+04  0.15037763307E+04  0.80377976050E+02 0.  0.
          5    1    3    3  501    0 -0.39788708797E+02  0.95187574715E+00  0.15978809877E+03  0.16473728759E+03  0.47000000000E+01 0. -1.
        -13    1    4    4    0    0  0.20910236504E+02  0.25302028012E+02 -0.50118799406E+01  0.33204661611E+02  0.00000000000E+00 0.  1.
         14    1    4    4    0    0 -0.42988553109E+02  0.33847234370E+02  0.66547693879E+02  0.86152460983E+02  0.00000000000E+00 0. -1.
         -5    1    5    5    0  502  0.47150344299E+02  0.19162520030E+02  0.18473901125E+03  0.19167928793E+03  0.47000000000E+01 0.  1.
         11    1    6    6    0    0  0.11301876107E+02  0.15320871475E+02  0.28200641362E+03  0.28264833067E+03  0.00000000000E+00 0. -1.
        -12    1    6    6    0    0  0.34148049968E+01 -0.94584529634E+02  0.12174545980E+04  0.12211280000E+04  0.00000000000E+00 0.  1.
</event>
<event>
12    1  0.8500177E-002  0.2064488E+03  0.7818608E-02  0.1144817E+00
         21   -1    0    0  503  502  0.00000000000E+00  0.00000000000E+00  0.25396361915E+03  0.25396361915E+03  0.00000000000E+00 0. -1.
         21   -1    0    0  501  503 -0.00000000000E+00 -0.00000000000E+00 -0.20555134357E+03  0.20555134357E+03  0.00000000000E+00 0. -1.
          6    2    1    2  501    0 -0.31331314263E+02  0.10598492130E+03 -0.76227727212E+02  0.22007223929E+03  0.17437508226E+03 0.  0.
         24    2    3    3    0    0  0.13941492572E+02  0.98983766700E+02  0.32738004441E+01  0.12819609383E+03  0.80195819209E+02 0.  0.
         -6    2    1    2    0  502  0.31331314263E+02 -0.10598492130E+03  0.12464000279E+03  0.23944272342E+03  0.17199776948E+03 0.  0.
        -24    2    5    5    0    0  0.78754010917E+02 -0.32086096711E+02  0.70755508410E+02  0.13631378874E+03  0.79645434225E+02 0.  0.
          5    1    3    3  501    0 -0.45272806835E+02  0.70011546039E+01 -0.79501527657E+02  0.91876145458E+02  0.47000000000E+01 0. -1.
        -13    1    4    4    0    0  0.41220182292E+02  0.89356927377E+02 -0.35668064169E+01  0.98470736802E+02  0.00000000000E+00 0.  1.
         14    1    4    4    0    0 -0.27278689720E+02  0.96268393231E+01  0.68406068610E+01  0.29725357028E+02  0.00000000000E+00 0. -1.
         -5    1    5    5    0  502 -0.47422696653E+02 -0.73898824593E+02  0.53884494385E+02  0.10312893468E+03  0.47000000000E+01 0.  1.
         11    1    6    6    0    0  0.26332292513E+02 -0.52261171077E+02  0.48084062376E+02  0.75740984189E+02  0.00000000000E+00 0. -1.
        -12    1    6    6    0    0  0.52421718403E+02  0.20175074365E+02  0.22671446034E+02  0.60572804552E+02  0.00000000000E+00 0.  1.
</event>
<event>
12    1  0.8500177E-002  0.2020680E+03  0.7818608E-02  0.1148189E+00
         21   -1    0    0  503  502  0.00000000000E+00  0.00000000000E+00  0.30929347574E+03  0.30929347574E+03  0.00000000000E+00 0.  1.
         21   -1    0    0  501  503 -0.00000000000E+00 -0.00000000000E+00 -0.13198041077E+03  0.13198041077E+03  0.00000000000E+00 0.  1.
          6    2    1    2  501    0  0.24229346600E+02  0.10266853304E+03  0.74744569879E+02  0.21544890853E+03  0.17234730212E+03 0.  0.
         24    2    3    3    0    0  0.28951500356E+02 -0.84561060881E+01  0.66806043576E+01  0.84966045441E+02  0.79151142128E+02 0.  0.
         -6    2    1    2    0  502 -0.24229346600E+02 -0.10266853304E+03  0.10256849509E+03  0.22582497798E+03  0.17131472669E+03 0.  0.
        -24    2    5    5    0    0 -0.27583090625E+01 -0.19506307548E+02 -0.13161331091E+02  0.81629125509E+02  0.78115230219E+02 0.  0.
          5    1    3    3  501    0 -0.47221537560E+01  0.11112463913E+03  0.68063965521E+02  0.13048286309E+03  0.47000000000E+01 0. -1.
        -13    1    4    4    0    0  0.47645662326E+02  0.14194480200E+02 -0.10680787692E+02  0.50849499824E+02  0.00000000000E+00 0.  1.
         14    1    4    4    0    0 -0.18694161970E+02 -0.22650586288E+02  0.17361392049E+02  0.34116545617E+02  0.00000000000E+00 0. -1.
         -5    1    5    5    0  502 -0.21471037537E+02 -0.83162225492E+02  0.11572982618E+03  0.14419585247E+03  0.47000000000E+01 0.  1.
         11    1    6    6    0    0  0.28595755273E+02 -0.29857296913E+01  0.18431268523E+02  0.34151770976E+02  0.00000000000E+00 0. -1.
        -12    1    6    6    0    0 -0.31354064335E+02 -0.16520577856E+02 -0.31592599615E+02  0.47477354533E+02  0.00000000000E+00 0.  1.
</event>
<event>
12    1  0.8500177E-002  0.2631164E+03  0.7818608E-02  0.1105298E+00
         21   -1    0    0  501  502  0.00000000000E+00  0.00000000000E+00  0.21312006758E+03  0.21312006758E+03  0.00000000000E+00 0.  1.
         21   -1    0    0  502  503 -0.00000000000E+00 -0.00000000000E+00 -0.57815925583E+03  0.57815925583E+03  0.00000000000E+00 0. -1.
         -6    2    1    2    0  503  0.95808866969E+02  0.17547539976E+03 -0.44447611962E+03  0.51651647851E+03  0.17105349092E+03 0.  0.
        -24    2    3    3    0    0  0.73615704368E+02  0.11467669229E+03 -0.41584339253E+03  0.44558734235E+03  0.83978192812E+02 0.  0.
          6    2    1    2  501    0 -0.95808866969E+02 -0.17547539976E+03  0.79436931368E+02  0.27476284489E+03  0.17091939608E+03 0.  0.
         24    2    5    5    0    0 -0.23645329597E+01 -0.20372617718E+02  0.30793736971E+02  0.87207607917E+02  0.78970108732E+02 0.  0.
          5    1    5    5  501    0 -0.93444334009E+02 -0.15510278204E+03  0.48643194398E+02  0.18755523697E+03  0.47000000000E+01 0. -1.
        -11    1    6    6    0    0 -0.32677668486E+02 -0.33998356145E+02  0.25323603937E+02  0.53525724232E+02  0.00000000000E+00 0.  1.
         12    1    6    6    0    0  0.30313135527E+02  0.13625738426E+02  0.54701330338E+01  0.33681883684E+02  0.00000000000E+00 0. -1.
         -5    1    3    3    0  503  0.22193162601E+02  0.60798707471E+02 -0.28632727087E+02  0.70929136163E+02  0.47000000000E+01 0.  1.
         13    1    4    4    0    0  0.77567857828E+02  0.62923947432E+02 -0.33451348807E+03  0.34910667342E+03  0.00000000000E+00 0. -1.
        -14    1    4    4    0    0 -0.39521534603E+01  0.51752744853E+02 -0.81329904461E+02  0.96480668926E+02  0.00000000000E+00 0.  1.
</event>
<event>
12    1  0.8500177E-002  0.1815558E+03  0.7818608E-02  0.1167984E+00
         21   -1    0    0  503  502  0.00000000000E+00  0.00000000000E+00  0.86197221704E+02  0.86197221704E+02  0.00000000000E+00 0. -1.
         21   -1    0    0  501  503 -0.00000000000E+00 -0.00000000000E+00 -0.39991192713E+03  0.39991192713E+03  0.00000000000E+00 0. -1.
          6    2    1    2  501    0 -0.16210614692E+02 -0.58061894769E+02 -0.85501838237E+02  0.19448675197E+03  0.16395293439E+03 0.  0.
         24    2    3    3    0    0 -0.15676283278E+02  0.31375176022E+02 -0.50621152069E+02  0.98372094348E+02  0.76709975765E+02 0.  0.
         -6    2    1    2    0  502  0.16210614692E+02  0.58061894769E+02 -0.22821286718E+03  0.29162239686E+03  0.17125577932E+03 0.  0.
        -24    2    5    5    0    0  0.27967031619E+02  0.10222025962E+03 -0.15148715555E+03  0.20219589435E+03  0.81876034723E+02 0.  0.
          5    1    3    3  501    0 -0.53433141393E+00 -0.89437070791E+02 -0.34880686167E+02  0.96114657619E+02  0.47000000000E+01 0. -1.
        -11    1    4    4    0    0  0.23210590162E+02  0.44401833151E+01 -0.44879237044E+02  0.50720731868E+02  0.00000000000E+00 0.  1.
         12    1    4    4    0    0 -0.38886873440E+02  0.26934992707E+02 -0.57419150251E+01  0.47651362480E+02  0.00000000000E+00 0. -1.
         -5    1    5    5    0  502 -0.11756416928E+02 -0.44158364851E+02 -0.76725711634E+02  0.89426502509E+02  0.47000000000E+01 0.  1.
         11    1    6    6    0    0 -0.17966286163E+02  0.62703910914E+02 -0.11281563900E+03  0.13031475851E+03  0.00000000000E+00 0. -1.
        -12    1    6    6    0    0  0.45933317782E+02  0.39516348706E+02 -0.38671516545E+02  0.71881135839E+02  0.00000000000E+00 0.  1.
</event>
<event>
12    1  0.8500177E-002  0.1891970E+03  0.7818608E-02  0.1162066E+00
         21   -1    0    0  503  502  0.00000000000E+00  0.00000000000E+00  0.94423698186E+02  0.94423698186E+02  0.00000000000E+00 0.  1.
         21   -1    0    0  501  503 -0.00000000000E+00 -0.00000000000E+00 -0.40973761314E+03  0.40973761314E+03  0.00000000000E+00 0.  1.
          6    2    1    2  501    0  0.34049908540E+02  0.40775161893E+02 -0.25435763216E+03  0.31700679820E+03  0.18158605389E+03 0.  0.
         24    2    3    3    0    0 -0.23436181262E+02  0.61184192782E+02 -0.94372564848E+02  0.14572197451E+03  0.89643476174E+02 0.  0.
         -6    2    1    2    0  502 -0.34049908540E+02 -0.40775161893E+02 -0.60956282791E+02  0.18715451313E+03  0.16878724263E+03 0.  0.
        -24    2    5    5    0    0  0.19483984066E+02 -0.74802461525E+02 -0.56303429997E+02  0.12337776331E+03  0.77954873904E+02 0.  0.
          5    1    3    3  501    0  0.57486089802E+02 -0.20409030889E+02 -0.15998506731E+03  0.17128482369E+03  0.47000000000E+01 0. -1.
        -13    1    4    4    0    0  0.16631389484E+02 -0.15925745055E+02 -0.28718078991E+02  0.36809788544E+02  0.00000000000E+00 0.  1.
         14    1    4    4    0    0 -0.40067570746E+02  0.77109937837E+02 -0.65654485857E+02  0.10891218597E+03  0.00000000000E+00 0. -1.
         -5    1    5    5    0  502 -0.53533892605E+02  0.34027299632E+02 -0.46528527935E+01  0.63776749814E+02  0.47000000000E+01 0.  1.
         11    1    6    6    0    0  0.35631318910E+02 -0.35615375587E+01 -0.26199138540E+02  0.44369700217E+02  0.00000000000E+00 0. -1.
        -12    1    6    6    0    0 -0.16147334844E+02 -0.71240923966E+02 -0.30104291457E+02  0.79008063096E+02  0.00000000000E+00 0.  1.
</event>
<event>
12    1  0.8500177E-002  0.2606183E+03  0.7818608E-02  0.1106935E+00
         21   -1    0    0  503  502  0.00000000000E+00  0.00000000000E+00  0.44427764727E+03  0.44427764727E+03  0.00000000000E+00 0. -1.
         21   -1    0    0  501  503 -0.00000000000E+00 -0.00000000000E+00 -0.23998003394E+03  0.23998003394E+03  0.00000000000E+00 0. -1.
          6    2    1    2  501    0  0.80171549608E+02  0.17855160157E+03 -0.10484951864E+03  0.27991395467E+03  0.17044133497E+03 0.  0.
         24    2    3    3    0    0  0.31334310277E+02  0.14864359922E+03 -0.12628580380E+02  0.17125689782E+03  0.78055655887E+02 0.  0.
         -6    2    1    2    0  502 -0.80171549608E+02 -0.17855160157E+03  0.30914713197E+03  0.40434372654E+03  0.17208645558E+03 0.  0.
        -24    2    5    5    0    0 -0.56814084387E+02 -0.19898133053E+03  0.29156653121E+03  0.36836995095E+03  0.88679019833E+02 0.  0.
          5    1    3    3  501    0  0.48837239331E+02  0.29908002350E+02 -0.92220938264E+02  0.10865705685E+03  0.47000000000E+01 0. -1.
        -11    1    4    4    0    0  0.38237407762E+02  0.76458103459E+02  0.25659752797E+02  0.89254489246E+02  0.00000000000E+00 0.  1.
         12    1    4    4    0    0 -0.69030974846E+01  0.72185495765E+02 -0.38288333177E+02  0.82002408570E+02  0.00000000000E+00 0. -1.
         -5    1    5    5    0  502 -0.23357465222E+02  0.20429728954E+02  0.17580600758E+02  0.35973775584E+02  0.47000000000E+01 0.  1.
         11    1    6    6    0    0 -0.69908300501E+02 -0.88109750255E+02  0.16381162823E+03  0.19870769515E+03  0.00000000000E+00 0. -1.
        -12    1    6    6    0    0  0.13094216114E+02 -0.11087158027E+03  0.12775490299E+03  0.16966225581E+03  0.00000000000E+00 0.  1.
</event>
<event>
12    1  0.8500177E-002  0.3368275E+03  0.7818608E-02  0.1068373E+00
         21   -1    0    0  503  502  0.00000000000E+00  0.00000000000E+00  0.41810712956E+03  0.41810712956E+03  0.00000000000E+00 0. -1.
         21   -1    0    0  501  503 -0.00000000000E+00 -0.00000000000E+00 -0.29360803750E+03  0.29360803750E+03  0.00000000000E+00 0.  1.
          6    2    1    2  501    0 -0.27975121260E+02  0.28777778600E+03 -0.39065748806E+02  0.33908537721E+03  0.17278338689E+03 0.  0.
         24    2    3    3    0    0 -0.13245057972E+02  0.14027621790E+03 -0.84954150214E+02  0.18383872591E+03  0.82015977933E+02 0.  0.
         -6    2    1    2    0  502  0.27975121260E+02 -0.28777778600E+03  0.16356484086E+03  0.37262978985E+03  0.16882192273E+03 0.  0.
        -24    2    5    5    0    0 -0.16301506122E+02 -0.24225070474E+03  0.17220918700E+03  0.30836510607E+03  0.80510195047E+02 0.  0.
          5    1    3    3  501    0 -0.14730063289E+02  0.14750156810E+03  0.45888401408E+02  0.15524665130E+03  0.47000000000E+01 0. -1.
        -13    1    4    4    0    0 -0.16080024684E+02  0.55898294706E+02  0.74889351741E+01  0.58645295591E+02  0.00000000000E+00 0.  1.
         14    1    4    4    0    0  0.28349667122E+01  0.84377923191E+02 -0.92443085388E+02  0.12519343032E+03  0.00000000000E+00 0. -1.
         -5    1    5    5    0  502  0.44276627382E+02 -0.45527081262E+02 -0.86443461460E+01  0.64264683776E+02  0.47000000000E+01 0.  1.
         11    1    6    6    0    0 -0.49051372040E+01 -0.80431553084E+02  0.10600594699E+03  0.13315613354E+03  0.00000000000E+00 0. -1.
        -12    1    6    6    0    0 -0.11396368918E+02 -0.16181915165E+03  0.66203240012E+02  0.17520897253E+03  0.00000000000E+00 0.  1.
</event>
<event>
12    1  0.8500177E-002  0.2315067E+03  0.7818608E-02  0.1125639E+00
         21   -1    0    0  503  502  0.00000000000E+00  0.00000000000E+00  0.13364264324E+03  0.13364264324E+03  0.00000000000E+00 0.  1.
         21   -1    0    0  501  503 -0.00000000000E+00 -0.00000000000E+00 -0.40246159362E+03  0.40246159362E+03  0.00000000000E+00 0.  1.
          6    2    1    2  501    0 -0.10405488308E+03  0.11500009742E+03 -0.11574683095E+03  0.25882943821E+03  0.17188050531E+03 0.  0.
         24    2    3    3    0    0 -0.18013007101E+02  0.11478031261E+03 -0.97339031017E+02  0.17071479796E+03  0.78547225890E+02 0.  0.
         -6    2    1    2    0  502  0.10405488308E+03 -0.11500009742E+03 -0.15307211942E+03  0.27727479865E+03  0.17145786398E+03 0.  0.
        -24    2    5    5    0    0 -0.14266633446E+02 -0.47149629133E+02 -0.53868544629E+02  0.10855281854E+03  0.80344694630E+02 0.  0.
          5    1    3    3  501    0 -0.86041875980E+02  0.21978481103E+00 -0.18407799936E+02  0.88114640248E+02  0.47000000000E+01 0. -1.
        -13    1    4    4    0    0 -0.30859709860E+02  0.53812377907E+02 -0.91026968371E+01  0.62697310934E+02  0.00000000000E+00 0.  1.
         14    1    4    4    0    0  0.12846702759E+02  0.60967934707E+02 -0.88236334180E+02  0.10801748703E+03  0.00000000000E+00 0. -1.
         -5    1    5    5    0  502  0.11832151653E+03 -0.67850468292E+02 -0.99203574796E+02  0.16872198011E+03  0.47000000000E+01 0.  1.
         11    1    6    6    0    0 -0.16943911018E+02  0.18159640606E+01  0.15878294986E+02  0.23291932031E+02  0.00000000000E+00 0. -1.
        -12    1    6    6    0    0  0.26772775722E+01 -0.48965593194E+02 -0.69746839615E+02  0.85260886509E+02  0.00000000000E+00 0.  1.
</event>
<event>
12    1  0.8500177E-002  0.3709983E+03  0.7818608E-02  0.1054358E+00
         21   -1    0    0  501  502  0.00000000000E+00  0.00000000000E+00  0.26926735137E+04  0.26926735137E+04  0.00000000000E+00 0.  1.
         21   -1    0    0  502  503 -0.00000000000E+00 -0.00000000000E+00 -0.76513134878E+02  0.76513134878E+02  0.00000000000E+00 0.  1.
         -6    2    1    2    0  503  0.80078399898E+01  0.32830975351E+03  0.50990022779E+03  0.63058543533E+03  0.17259295813E+03 0.  0.
        -24    2    3    3    0    0  0.56516493806E+02  0.23086601698E+03  0.27670075120E+03  0.37318990862E+03  0.78830008989E+02 0.  0.
          6    2    1    2  501    0 -0.80078399898E+01 -0.32830975351E+03  0.21062601510E+04  0.21386012132E+04  0.17155729576E+03 0.  0.
         24    2    5    5    0    0  0.50558369241E+02 -0.20615624133E+03  0.10504823687E+04  0.10741575572E+04  0.72420342684E+02 0.  0.
          5    1    5    5  501    0 -0.58566209231E+02 -0.12215351218E+03  0.10557777823E+04  0.10644436561E+04  0.47000000000E+01 0. -1.
        -11    1    6    6    0    0 -0.15644771390E+02 -0.80766071420E+02  0.36314494114E+03  0.37234683487E+03  0.00000000000E+00 0.  1.
         12    1    6    6    0    0  0.66203140631E+02 -0.12539016991E+03  0.68733742760E+03  0.70181072229E+03  0.00000000000E+00 0. -1.
         -5    1    3    3    0  503 -0.48508653816E+02  0.97443736537E+02  0.23319947660E+03  0.25739552671E+03  0.47000000000E+01 0.  1.
         11    1    4    4    0    0  0.10982987499E+02 -0.13061714770E+01  0.27122045169E+02  0.29290569002E+02  0.00000000000E+00 0. -1.
        -12    1    4    4    0    0  0.45533506307E+02  0.23217218845E+03  0.24957870603E+03  0.34389933962E+03  0.00000000000E+00 0.  1.
</event>
<event>
12    1  0.8500177E-002  0.1918721E+03  0.7818608E-02  0.1157630E+00
         21   -1    0    0  501  502  0.00000000000E+00  0.00000000000E+00  0.40836534730E+03  0.40836534730E+03  0.00000000000E+00 0. -1.
         21   -1    0    0  502  503 -0.00000000000E+00 -0.00000000000E+00 -0.15344313677E+03  0.15344313677E+03  0.00000000000E+00 0. -1.
         -6    2    1    2    0  503 -0.69075772426E+02 -0.48167071916E+02 -0.56159068916E+02  0.19631363621E+03  0.16820723405E+03 0.  0.
        -24    2    3    3    0    0 -0.96260464066E+02 -0.15481123419E+02 -0.50872921005E+00  0.12612511152E+03  0.80009642079E+02 0.  0.
          6    2    1    2  501    0  0.69075772426E+02  0.48167071916E+02  0.31108127944E+03  0.36549484786E+03  0.17240473382E+03 0.  0.
         24    2    5    5    0    0  0.11047114956E+03  0.18012368839E+02  0.19687336417E+03  0.24024141966E+03  0.80177913946E+02 0.  0.
          5    1    5    5  501    0 -0.41395377137E+02  0.30154703077E+02  0.11420791527E+03  0.12525342820E+03  0.47000000000E+01 0. -1.
        -13    1    6    6    0    0  0.47981959175E+02 -0.31953991240E+02  0.80155134310E+02  0.98732828982E+02  0.00000000000E+00 0.  1.
         14    1    6    6    0    0  0.62489190388E+02  0.49966360079E+02  0.11671822986E+03  0.14150859068E+03  0.00000000000E+00 0. -1.
         -5    1    3    3    0  503  0.27184691640E+02 -0.32685948497E+02 -0.55650339706E+02  0.70188524690E+02  0.47000000000E+01 0.  1.
         13    1    4    4    0    0  0.14246421007E+02  0.53775601596E+00  0.22284747568E+01  0.14429684431E+02  0.00000000000E+00 0. -1.
        -14    1    4    4    0    0 -0.11050688507E+03 -0.16018879435E+02 -0.27372039668E+01  0.11169542709E+03  0.00000000000E+00 0.  1.
</event>
<event>
12    1  0.8500177E-002  0.2136816E+03  0.7818608E-02  0.1139076E+00
         21   -1    0    0  503  502  0.00000000000E+00  0.00000000000E+00  0.57691837364E+02  0.57691837364E+02  0.00000000000E+00 0. -1.
         21   -1    0    0  501  503 -0.00000000000E+00 -0.00000000000E+00 -0.85206264998E+03  0.85206264998E+03  0.00000000000E+00 0. -1.
          6    2    1    2  501    0  0.33598856438E+02 -0.11809982052E+03 -0.52750525664E+03  0.56914111538E+03  0.17488099574E+03 0.  0.
         24    2    3    3    0    0 -0.31559868069E+02 -0.87581495303E+02 -0.20655083960E+03  0.24018693107E+03  0.79749413335E+02 0.  0.
         -6    2    1    2    0  502 -0.33598856438E+02  0.11809982052E+03 -0.26686555597E+03  0.34061337196E+03  0.17240589733E+03 0.  0.
        -24    2    5    5    0    0  0.12082178560E+02  0.13654279626E+03 -0.22823245806E+03  0.27783195300E+03  0.79439442005E+02 0.  0.
          5    1    3    3  501    0  0.65158724508E+02 -0.30518325219E+02 -0.32095441704E+03  0.32895418430E+03  0.47000000000E+01 0. -1.
        -11    1    4    4    0    0 -0.46947474695E+01  0.15155212213E+02 -0.19991323610E+02  0.25522032261E+02  0.00000000000E+00 0.  1.
         12    1    4    4    0    0 -0.26865120600E+02 -0.10273670752E+03 -0.18655951599E+03  0.21466489881E+03  0.00000000000E+00 0. -1.
         -5    1    5    5    0  502 -0.45681034999E+02 -0.18442975740E+02 -0.38633097914E+02  0.62781418964E+02  0.47000000000E+01 0.  1.
         11    1    6    6    0    0 -0.25328996189E+02  0.10841782731E+03 -0.15283692650E+03  0.18909021505E+03  0.00000000000E+00 0. -1.
        -12    1    6    6    0    0  0.37411174749E+02  0.28124968950E+02 -0.75395531563E+02  0.88741737949E+02  0.00000000000E+00 0.  1.
</event>
<event>
12    1  0.8500177E-002  0.3217083E+03  0.7818608E-02  0.1074895E+00
         21   -1    0    0  503  502  0.00000000000E+00  0.00000000000E+00  0.49827148818E+03  0.49827148818E+03  0.00000000000E+00 0.  1.
         21   -1    0    0  501  503 -0.00000000000E+00 -0.00000000000E+00 -0.24587593588E+03  0.24587593588E+03  0.00000000000E+00 0. -1.
          6    2    1    2  501    0  0.13876439297E+03  0.23349557313E+03 -0.20664811062E+02  0.32237131243E+03  0.17239631444E+03 0.  0.
         24    2    3    3    0    0  0.63427182500E+02  0.69435403658E+02 -0.60505332552E+02  0.13743675200E+03  0.79897952234E+02 0.  0.
         -6    2    1    2    0  502 -0.13876439297E+03 -0.23349557313E+03  0.27306036337E+03  0.42177611164E+03  0.17192261886E+03 0.  0.
        -24    2    5    5    0    0 -0.43976052682E+02 -0.11528596894E+03  0.21343349198E+03  0.25887800309E+03  0.78988715271E+02 0.  0.
          5    1    3    3  501    0  0.75337210469E+02  0.16406016947E+03  0.39840521490E+02  0.18493456043E+03  0.47000000000E+01 0. -1.
        -13    1    4    4    0    0  0.59029113765E+02  0.47132583454E+02 -0.29952371480E+01  0.75596879172E+02  0.00000000000E+00 0.  1.
         14    1    4    4    0    0  0.43980687351E+01  0.22302820204E+02 -0.57510095404E+02  0.61839872825E+02  0.00000000000E+00 0. -1.
         -5    1    5    5    0  502 -0.94788340287E+02 -0.11820960419E+03  0.59626871389E+02  0.16289810855E+03  0.47000000000E+01 0.  1.
         11    1    6    6    0    0 -0.19693917259E+02 -0.99040103793E+02  0.20491700080E+03  0.22844642644E+03  0.00000000000E+00 0. -1.
        -12    1    6    6    0    0 -0.24282135423E+02 -0.16245865144E+02  0.85164911743E+01  0.30431576642E+02  0.00000000000E+00 0.  1.
</event>
<event>
12    1  0.8500177E-002  0.2120790E+03  0.7818608E-02  0.1139981E+00
         21   -1    0    0  501  502  0.00000000000E+00  0.00000000000E+00  0.86357884231E+03  0.86357884231E+03  0.00000000000E+00 0.  1.
         21   -1    0    0  502  503 -0.00000000000E+00 -0.00000000000E+00 -0.57475749631E+02  0.57475749631E+02  0.00000000000E+00 0.  1.
         -6    2    1    2    0  503  0.10759626227E+03 -0.62695039914E+02  0.26137888637E+03  0.33659534694E+03  0.17166794011E+03 0.  0.
        -24    2    3    3    0    0  0.10861138557E+03 -0.92597911253E+02  0.15413516453E+03  0.22515694215E+03  0.81038221902E+02 0.  0.
          6    2    1    2  501    0 -0.10759626227E+03  0.62695039914E+02  0.54472420632E+03  0.58445924500E+03  0.17134913024E+03 0.  0.
         24    2    5    5    0    0 -0.10719298748E+03  0.85854776379E+02  0.30912147803E+03  0.34767395915E+03  0.80372349058E+02 0.  0.
          5    1    5    5  501    0 -0.40327479102E+00 -0.23159736465E+02  0.23560272828E+03  0.23678528585E+03  0.47000000000E+01 0. -1.
        -11    1    6    6    0    0 -0.85124994771E+02  0.65407719334E+02  0.14278785092E+03  0.17864155411E+03  0.00000000000E+00 0.  1.
         12    1    6    6    0    0 -0.22067992711E+02  0.20447057046E+02  0.16633362712E+03  0.16903240504E+03  0.00000000000E+00 0. -1.
         -5    1    3    3    0  503 -0.10151233009E+01  0.29902871339E+02  0.10724372184E+03  0.11143840479E+03  0.47000000000E+01 0.  1.
         11    1    4    4    0    0  0.14353972535E+02 -0.34337434952E+02  0.89367937023E+02  0.96807665680E+02  0.00000000000E+00 0. -1.
        -12    1    4    4    0    0  0.94257413039E+02 -0.58260476301E+02  0.64767227507E+02  0.12834927647E+03  0.00000000000E+00 0.  1.
</event>
<event>
12    1  0.8500177E-002  0.1815533E+03  0.7818608E-02  0.1167865E+00
         21   -1    0    0  503  502  0.00000000000E+00  0.00000000000E+00  0.12808643043E+03  0.12808643043E+03  0.00000000000E+00 0.  1.
         21   -1    0    0  501  503 -0.00000000000E+00 -0.00000000000E+00 -0.34908256751E+03  0.34908256751E+03  0.00000000000E+00 0.  1.
          6    2    1    2  501    0  0.54156927876E+02 -0.31567064165E+02 -0.23722798488E+03  0.29489153006E+03  0.16356786150E+03 0.  0.
         24    2    3    3    0    0 -0.15417113465E+02 -0.54722601288E+02 -0.16579835377E+03  0.19241710238E+03  0.79391414505E+02 0.  0.
         -6    2    1    2    0  502 -0.54156927876E+02  0.31567064165E+02  0.16231847791E+02  0.18227746788E+03  0.17038823327E+03 0.  0.
        -24    2    5    5    0    0  0.75890607751E+00  0.68300159360E+02  0.33751020625E+02  0.11376410774E+03  0.84484632384E+02 0.  0.
          5    1    3    3  501    0  0.69574041341E+02  0.23155537123E+02 -0.71429631109E+02  0.10247442768E+03  0.47000000000E+01 0. -1.
        -13    1    4    4    0    0  0.25784869402E+02 -0.49513554998E+02 -0.87626005172E+02  0.10389787486E+03  0.00000000000E+00 0.  1.
         14    1    4    4    0    0 -0.41201982867E+02 -0.52090462900E+01 -0.78172348596E+02  0.88519227518E+02  0.00000000000E+00 0. -1.
         -5    1    5    5    0  502 -0.54915833953E+02 -0.36733095195E+02 -0.17519172834E+02  0.68513360144E+02  0.47000000000E+01 0.  1.
         11    1    6    6    0    0  0.34084095390E+02  0.66657198800E+02  0.27863821438E+02  0.79883041101E+02  0.00000000000E+00 0. -1.
        -12    1    6    6    0    0 -0.33325189313E+02  0.16429605598E+01  0.58871991869E+01  0.33881066636E+02  0.00000000000E+00 0.  1.
</event>
<event>
12    1  0.8500177E-002  0.2475978E+03  0.7818608E-02  0.1115038E+00
         21   -1    0    0  503  502  0.00000000000E+00  0.00000000000E+00  0.72253260916E+02  0.72253260916E+02  0.00000000000E+00 0.  1.
         21   -1    0    0  501  503 -0.00000000000E+00 -0.00000000000E+00 -0.10726088483E+04  0.10726088483E+04  0.00000000000E+00 0. -1.
          6    2    1    2  501    0 -0.14436810909E+03  0.10293577774E+03 -0.76337703599E+03  0.80213263347E+03  0.17098051743E+03 0.  0.
         24    2    3    3    0    0 -0.97084723082E+02  0.78440675571E+02 -0.28582223668E+03  0.32159501271E+03  0.78425876974E+02 0.  0.
         -6    2    1    2    0  502  0.14436810909E+03 -0.10293577774E+03 -0.23697855139E+03  0.34272947574E+03  0.17281994810E+03 0.  0.
        -24    2    5    5    0    0  0.12321401107E+03 -0.14121887672E+03 -0.20247293899E+03  0.28682045305E+03  0.78397816309E+02 0.  0.
          5    1    3    3  501    0 -0.47283386010E+02  0.24495102170E+02 -0.47755479931E+03  0.48053762076E+03  0.47000000000E+01 0. -1.
        -11    1    4    4    0    0 -0.91494260834E+01 -0.14087097263E+02 -0.58742901955E+02  0.61097355402E+02  0.00000000000E+00 0.  1.
         12    1    4    4    0    0 -0.87935296998E+02  0.92527772834E+02 -0.22707933472E+03  0.26049765731E+03  0.00000000000E+00 0. -1.
         -5    1    5    5    0  502  0.21154098025E+02  0.38283098980E+02 -0.34505612407E+02  0.55909022692E+02  0.47000000000E+01 0.  1.
         11    1    6    6    0    0  0.60952228610E+01 -0.52778493988E+02 -0.78044272140E+02  0.94412020332E+02  0.00000000000E+00 0. -1.
        -12    1    6    6    0    0  0.11711878820E+03 -0.88440382733E+02 -0.12442866685E+03  0.19240843272E+03  0.00000000000E+00 0.  1.
</event>
<event>
12    1  0.8500177E-002  0.1738578E+03  0.7818608E-02  0.1174934E+00
         21   -1    0    0  501  502  0.00000000000E+00  0.00000000000E+00  0.68433019438E+03  0.68433019438E+03  0.00000000000E+00 0.  1.
         21   -1    0    0  502  503 -0.00000000000E+00 -0.00000000000E+00 -0.43774226474E+02  0.43774226474E+02  0.00000000000E+00 0.  1.
         -6    2    1    2    0  503 -0.11488242363E+02  0.17323143352E+02  0.27251761620E+03  0.32106785669E+03  0.16848337145E+03 0.  0.
        -24    2    3    3    0    0 -0.50388192653E+02  0.24489722123E+02  0.26297440473E+03  0.28010776796E+03  0.78524567372E+02 0.  0.
          6    2    1    2  501    0  0.11488242363E+02 -0.17323143352E+02  0.36803835171E+03  0.40703656416E+03  0.17261073324E+03 0.  0.
         24    2    5    5    0    0  0.70862998155E+02  0.70900239387E+01  0.26525067292E+03  0.28575688214E+03  0.78912883958E+02 0.  0.
          5    1    5    5  501    0 -0.59374755792E+02 -0.24413167291E+02  0.10278767878E+03  0.12127968203E+03  0.47000000000E+01 0. -1.
        -11    1    6    6    0    0  0.35865321554E+02 -0.26318770286E+02  0.19784019820E+03  0.20278003596E+03  0.00000000000E+00 0.  1.
         12    1    6    6    0    0  0.34997676601E+02  0.33408794225E+02  0.67410474723E+02  0.82976846177E+02  0.00000000000E+00 0. -1.
         -5    1    3    3    0  503  0.38899950290E+02 -0.71665787706E+01  0.95432114705E+01  0.40960088733E+02  0.47000000000E+01 0.  1.
         13    1    4    4    0    0 -0.34764652159E+02  0.50831868753E+02  0.21077088292E+03  0.21958329857E+03  0.00000000000E+00 0. -1.
        -14    1    4    4    0    0 -0.15623540494E+02 -0.26342146630E+02  0.52203521802E+02  0.60524469392E+02  0.00000000000E+00 0.  1.
</event>
<event>
12    1  0.8500177E-002  0.1724882E+03  0.7818608E-02  0.1176009E+00
         21   -1    0    0  501  502  0.00000000000E+00  0.00000000000E+00  0.22089730665E+03  0.22089730665E+03  0.00000000000E+00 0. -1.
         21   -1    0    0  502  503 -0.00000000000E+00 -0.00000000000E+00 -0.22467727753E+03  0.22467727753E+03  0.00000000000E+00 0. -1.
         -6    2    1    2    0  503  0.65840314601E+01  0.17744550752E+02 -0.14460858450E+03  0.22508624665E+03  0.17144665983E+03 0.  0.
        -24    2    3    3    0    0  0.27811595862E+02  0.75087944612E+02 -0.78163564138E+02  0.13466553530E+03  0.74923823638E+02 0.  0.
          6    2    1    2  501    0 -0.65840314601E+01 -0.17744550752E+02  0.14082861361E+03  0.22048833754E+03  0.16859475089E+03 0.  0.
         24    2    5    5    0    0  0.11181850598E+02 -0.51578171871E+02  0.26997791407E+02  0.10032225844E+03  0.80934128774E+02 0.  0.
          5    1    5    5  501    0 -0.17765882058E+02  0.33833621118E+02  0.11383082221E+03  0.12016607911E+03  0.47000000000E+01 0. -1.
        -13    1    6    6    0    0  0.37552515768E+02 -0.60772765540E+01  0.28780693774E+02  0.47701709246E+02  0.00000000000E+00 0.  1.
         14    1    6    6    0    0 -0.26370665170E+02 -0.45500895317E+02 -0.17829023676E+01  0.52620549190E+02  0.00000000000E+00 0. -1.
         -5    1    3    3    0  503 -0.21227564401E+02 -0.57343393859E+02 -0.66445020359E+02  0.90420711345E+02  0.47000000000E+01 0.  1.
         13    1    4    4    0    0  0.35387154588E+01  0.56013717043E+02 -0.63321582098E+01  0.56481459185E+02  0.00000000000E+00 0. -1.
        -14    1    4    4    0    0  0.24272880403E+02  0.19074227569E+02 -0.71831405928E+02  0.78184076115E+02  0.00000000000E+00 0.  1.
</event>
<event>
12    1  0.8500177E-002  0.2159005E+03  0.7818608E-02  0.1137241E+00
         21   -1    0    0  501  502  0.00000000000E+00  0.00000000000E+00  0.18513855348E+03  0.18513855348E+03  0.00000000000E+00 0.  1.
         21   -1    0    0  502  503 -0.00000000000E+00 -0.00000000000E+00 -0.26937257640E+03  0.26937257640E+03  0.00000000000E+00 0.  1.
         -6    2    1    2    0  503  0.12431402558E+03 -0.40213626917E+02  0.18432695311E+02  0.21668589965E+03  0.17187757884E+03 0.  0.
        -24    2    3    3    0    0  0.98831513965E+02 -0.74031515499E+01  0.76183681895E+02  0.14538967154E+03  0.74241015603E+02 0.  0.
          6    2    1    2  501    0 -0.12431402558E+03  0.40213626917E+02 -0.10266671823E+03  0.23782523023E+03  0.17014485697E+03 0.  0.
         24    2    5    5    0    0 -0.16165724857E+02  0.47725071236E+02 -0.86773574241E+02  0.12815682652E+03  0.79721426939E+02 0.  0.
          5    1    5    5  501    0 -0.10814830072E+03 -0.75114443194E+01 -0.15893143985E+02  0.10966840370E+03  0.47000000000E+01 0. -1.
        -11    1    6    6    0    0  0.19587260663E+02  0.46494934989E+02 -0.23919854860E+02  0.55835465579E+02  0.00000000000E+00 0.  1.
         12    1    6    6    0    0 -0.35752985520E+02  0.12301362476E+01 -0.62853719381E+02  0.72321360944E+02  0.00000000000E+00 0. -1.
         -5    1    3    3    0  503  0.25482511616E+02 -0.32810475367E+02 -0.57750986584E+02  0.71296228115E+02  0.47000000000E+01 0.  1.
         11    1    4    4    0    0  0.29384093950E+02  0.32426780011E+02  0.27934704537E+02  0.51915977856E+02  0.00000000000E+00 0. -1.
        -12    1    4    4    0    0  0.69447420014E+02 -0.39829931560E+02  0.48248977358E+02  0.93473693683E+02  0.00000000000E+00 0.  1.
</event>
<event>
12    1  0.8500177E-002  0.3409201E+03  0.7818608E-02  0.1066484E+00
         21   -1    0    0  501  502  0.00000000000E+00  0.00000000000E+00  0.52256446484E+03  0.52256446484E+03  0.00000000000E+00 0. -1.
         21   -1    0    0  502  503 -0.00000000000E+00 -0.00000000000E+00 -0.22235014950E+03  0.22235014950E+03  0.00000000000E+00 0.  1.
         -6    2    1    2    0  503 -0.50632821343E+00 -0.29423490905E+03  0.13371187567E+03  0.36550775432E+03  0.17071208129E+03 0.  0.
        -24    2    3    3    0    0 -0.17718629994E+01 -0.24832463274E+03  0.43085943557E+02  0.26379981648E+03  0.77882487857E+02 0.  0.
          6    2    1    2  501    0  0.50632821343E+00  0.29423490905E+03  0.16650243968E+03  0.37940686002E+03  0.17219774952E+03 0.  0.
         24    2    5    5    0    0 -0.33247920516E+02  0.94225806968E+02  0.18020030682E+02  0.12798668182E+03  0.77922668725E+02 0.  0.
          5    1    5    5  501    0  0.33754248729E+02  0.20000910209E+03  0.14848240899E+03  0.25142017820E+03  0.47000000000E+01 0. -1.
        -13    1    6    6    0    0  0.22670801349E+02  0.25956403604E+02  0.19752326609E+02  0.39722217062E+02  0.00000000000E+00 0.  1.
         14    1    6    6    0    0 -0.55918721865E+02  0.68269403363E+02 -0.17322959267E+01  0.88264464762E+02  0.00000000000E+00 0. -1.
         -5    1    3    3    0  503  0.12655347860E+01 -0.45910276310E+02  0.90625932108E+02  0.10170793784E+03  0.47000000000E+01 0.  1.
         13    1    4    4    0    0  0.26217025745E+02 -0.88969130632E+02  0.42449160374E+02  0.10200377376E+03  0.00000000000E+00 0. -1.
        -14    1    4    4    0    0 -0.27988888745E+02 -0.15935550211E+03  0.63678318301E+00  0.16179604272E+03  0.00000000000E+00 0.  1.
</event>
<event>
12    1  0.8500177E-002  0.2786809E+03  0.7818608E-02  0.1096423E+00
         21   -1    0    0  503  502  0.00000000000E+00  0.00000000000E+00  0.16130174590E+03  0.16130174590E+03  0.00000000000E+00 0. -1.
         21   -1    0    0  501  503 -0.00000000000E+00 -0.00000000000E+00 -0.48134433597E+03  0.48134433597E+03  0.00000000000E+00 0.  1.
          6    2    1    2  501    0 -0.21346810738E+03 -0.48051459855E+02 -0.15877661099E+03  0.32066815900E+03  0.17245428478E+03 0.  0.
         24    2    3    3    0    0 -0.16434824461E+03  0.30560135052E+02 -0.94794522884E+02  0.20793687953E+03  0.79419625663E+02 0.  0.
         -6    2    1    2    0  502  0.21346810738E+03  0.48051459855E+02 -0.16126597908E+03  0.32197792287E+03  0.17258473613E+03 0.  0.
        -24    2    5    5    0    0  0.19081620545E+02  0.14676922279E+02 -0.61419695362E+02  0.10086406895E+03  0.76299810861E+02 0.  0.
          5    1    3    3  501    0 -0.49119862768E+02 -0.78611594907E+02 -0.63982088110E+02  0.11273127947E+03  0.47000000000E+01 0. -1.
        -11    1    4    4    0    0 -0.13228343381E+03 -0.20139308465E+01 -0.93873500463E+02  0.16221959458E+03  0.00000000000E+00 0.  1.
         12    1    4    4    0    0 -0.32064810805E+02  0.32574065899E+02 -0.92102242044E+00  0.45717284953E+02  0.00000000000E+00 0. -1.
         -5    1    5    5    0  502  0.19438648683E+03  0.33374537576E+02 -0.99846283717E+02  0.22111385392E+03  0.47000000000E+01 0.  1.
         11    1    6    6    0    0 -0.63857263368E+01  0.28590574535E+02 -0.65314711017E+02  0.71583587004E+02  0.00000000000E+00 0. -1.
        -12    1    6    6    0    0  0.25467346882E+02 -0.13913652256E+02  0.38950156548E+01  0.29280481950E+02  0.00000000000E+00 0.  1.
</event>
<event>
12    1  0.8500177E-002  0.2664215E+03  0.7818608E-02  0.1103539E+00
         21   -1    0    0  501  502  0.00000000000E+00  0.00000000000E+00  0.32904952292E+03  0.32904952292E+03  0.00000000000E+00 0. -1.
         21   -1    0    0  502  503 -0.00000000000E+00 -0.00000000000E+00 -0.22509290020E+03  0.22509290020E+03  0.00000000000E+00 0. -1.
         -6    2    1    2    0  503  0.52478293681E+02 -0.19601978263E+03 -0.76098609875E+01  0.26653012340E+03  0.17263449888E+03 0.  0.
        -24    2    3    3    0    0  0.36492247933E+02 -0.57091683116E+02  0.49685368843E+02  0.11533024293E+03  0.79001801348E+02 0.  0.
          6    2    1    2  501    0 -0.52478293681E+02  0.19601978263E+03  0.11156648371E+03  0.28761229972E+03  0.17057557907E+03 0.  0.
         24    2    5    5    0    0 -0.14281808097E+02  0.15604425028E+03  0.14019312322E+03  0.22517361630E+03  0.80593222988E+02 0.  0.
          5    1    5    5  501    0 -0.38196485584E+02  0.39975532349E+02 -0.28626639513E+02  0.62438683422E+02  0.47000000000E+01 0. -1.
        -11    1    6    6    0    0  0.26111821284E+02  0.94834579812E+02  0.54753333754E+02  0.11257598454E+03  0.00000000000E+00 0.  1.
         12    1    6    6    0    0 -0.40393629380E+02  0.61209670471E+02  0.85439789464E+02  0.11259763176E+03  0.00000000000E+00 0. -1.
         -5    1    3    3    0  503  0.15986045748E+02 -0.13892809952E+03 -0.57295229830E+02  0.15119988047E+03  0.47000000000E+01 0.  1.
         11    1    4    4    0    0  0.38144671088E+02  0.51778134622E+01  0.53327613448E+01  0.38862115591E+02  0.00000000000E+00 0. -1.
        -12    1    4    4    0    0 -0.16524231542E+01 -0.62269496578E+02  0.44352607498E+02  0.76468127336E+02  0.00000000000E+00 0.  1.
</event>
<event>
12    1  0.8500177E-002  0.2523076E+03  0.7818608E-02  0.1111874E+00
         21   -1    0    0  501  502  0.00000000000E+00  0.00000000000E+00  0.17035670396E+03  0.17035670396E+03  0.00000000000E+00 0.  1.
         21   -1    0    0  502  503 -0.00000000000E+00 -0.00000000000E+00 -0.71115959076E+03  0.71115959076E+03  0.00000000000E+00 0.  1.
         -6    2    1    2    0  503  0.15128735716E+03  0.10391019758E+03 -0.57414367219E+03  0.62713639561E+03  0.17312974553E+03 0.  0.
        -24    2    3    3    0    0  0.83390150228E+02  0.77795240974E+02 -0.51485180300E+03  0.53317024522E+03  0.78689990839E+02 0.  0.
          6    2    1    2  501    0 -0.15128735716E+03 -0.10391019758E+03  0.33340785387E+02  0.25437989911E+03  0.17295181844E+03 0.  0.
         24    2    5    5    0    0 -0.11656659820E+03 -0.39940231447E+02  0.80223688467E+02  0.16767474199E+03  0.80597673704E+02 0.  0.
          5    1    5    5  501    0 -0.34720758959E+02 -0.63969966130E+02 -0.46882903080E+02  0.86705157117E+02  0.47000000000E+01 0. -1.
        -11    1    6    6    0    0 -0.19081573054E+02 -0.38102196319E+02  0.49784340054E+02  0.65531399414E+02  0.00000000000E+00 0.  1.
         12    1    6    6    0    0 -0.97485025148E+02 -0.18380351278E+01  0.30439348413E+02  0.10214334258E+03  0.00000000000E+00 0. -1.
         -5    1    3    3    0  503  0.67897206933E+02  0.26114956603E+02 -0.59291869186E+02  0.93966150391E+02  0.47000000000E+01 0.  1.
         11    1    4    4    0    0  0.11552023199E+02  0.21283337716E+02 -0.28175359200E+03  0.28279235547E+03  0.00000000000E+00 0. -1.
        -12    1    4    4    0    0  0.71838127030E+02  0.56511903258E+02 -0.23309821100E+03  0.25037788975E+03  0.00000000000E+00 0.  1.
</event>
<event>
12    1  0.8500177E-002  0.1736477E+03  0.7818608E-02  0.1174435E+00
         21   -1    0    0  503  502  0.00000000000E+00  0.00000000000E+00  0.89038930693E+03  0.89038930693E+03  0.00000000000E+00 0.  1.
         21   -1    0    0  501  503 -0.00000000000E+00 -0.00000000000E+00 -0.38831217875E+02  0.38831217875E+02  0.00000000000E+00 0.  1.
          6    2    1    2  501    0  0.88721847052E+01 -0.62898903103E+01  0.59761036151E+03  0.62232761423E+03  0.17330677098E+03 0.  0.
         24    2    3    3    0    0 -0.28554695462E+02 -0.54665303759E+00  0.56709836743E+03  0.57347244136E+03  0.80339362676E+02 0.  0.
         -6    2    1    2    0  502 -0.88721847052E+01  0.62898903103E+01  0.25394772754E+03  0.30689291057E+03  0.17197538154E+03 0.  0.
        -24    2    5    5    0    0  0.28761438486E+02 -0.46219541334E+02  0.95117056325E+02  0.13536214912E+03  0.79449296189E+02 0.  0.
          5    1    3    3  501    0  0.37426880167E+02 -0.57432372727E+01  0.30511994080E+02  0.48855172870E+02  0.47000000000E+01 0. -1.
        -11    1    4    4    0    0 -0.75911515368E+01 -0.39923794331E+02  0.27588746603E+03  0.27886453494E+03  0.00000000000E+00 0.  1.
         12    1    4    4    0    0 -0.20963543925E+02  0.39377141294E+02  0.29121090140E+03  0.29460790642E+03  0.00000000000E+00 0. -1.
         -5    1    5    5    0  502 -0.37633623191E+02  0.52509431644E+02  0.15883067122E+03  0.17153076146E+03  0.47000000000E+01 0.  1.
         13    1    6    6    0    0 -0.95551282675E+01 -0.54213178874E+02  0.69168972284E+02  0.88400882159E+02  0.00000000000E+00 0. -1.
        -14    1    6    6    0    0  0.38316566753E+02  0.79936375397E+01  0.25948084041E+02  0.46961266958E+02  0.00000000000E+00 0.  1.
</event>
<event>
12    1  0.8500177E-002  0.2208430E+03  0.7818608E-02  0.1134159E+00
         21   -1    0    0  501  502  0.00000000000E+00  0.00000000000E+00  0.21948754036E+03  0.21948754036E+03  0.00000000000E+00 0.  1.
         21   -1    0    0  502  503 -0.00000000000E+00 -0.00000000000E+00 -0.33675568412E+03  0.33675568412E+03  0.00000000000E+00 0.  1.
         -6    2    1    2    0  503  0.13601910515E+03  0.24039490112E+02 -0.22379331958E+03  0.31105093991E+03  0.16610280937E+03 0.  0.
        -24    2    3    3    0    0  0.18429815290E+02  0.42204270859E+02 -0.56571239761E+02  0.10576451969E+03  0.76583091391E+02 0.  0.
          6    2    1    2  501    0 -0.13601910515E+03 -0.24039490112E+02  0.10652517582E+03  0.24519228458E+03  0.17231526132E+03 0.  0.
         24    2    5    5    0    0 -0.16594871034E+03 -0.44175622639E+01  0.95349993444E+02  0.20740636100E+03  0.79795288167E+02 0.  0.
          5    1    5    5  501    0  0.29929605193E+02 -0.19621927848E+02  0.11175182374E+02  0.37785923577E+02  0.47000000000E+01 0. -1.
        -11    1    6    6    0    0 -0.53836285197E+02  0.80079173662E+01 -0.72703485408E+01  0.54912023385E+02  0.00000000000E+00 0.  1.
         12    1    6    6    0    0 -0.11211242514E+03 -0.12425479630E+02  0.10262034199E+03  0.15249433761E+03  0.00000000000E+00 0. -1.
         -5    1    3    3    0  503  0.11758928986E+03 -0.18164780747E+02 -0.16722207982E+03  0.20528642022E+03  0.47000000000E+01 0.  1.
         13    1    4    4    0    0  0.45439925440E+02  0.35966390305E+02 -0.23304547513E+02  0.62461748217E+02  0.00000000000E+00 0. -1.
        -14    1    4    4    0    0 -0.27010110150E+02  0.62378805543E+01 -0.33266692248E+02  0.43302771473E+02  0.00000000000E+00 0.  1.
</event>
<event>
12    1  0.8500177E-002  0.1784996E+03  0.7818608E-02  0.1170160E+00
         21   -1    0    0  501  502  0.00000000000E+00  0.00000000000E+00  0.86853932441E+02  0.86853932441E+02  0.00000000000E+00 0.  1.
         21   -1    0    0  502  503 -0.00000000000E+00 -0.00000000000E+00 -0.38446180920E+03  0.38446180920E+03  0.00000000000E+00 0. -1.
         -6    2    1    2    0  503 -0.45972904324E+02  0.12976601159E+02 -0.87251032732E+02  0.19543148795E+03  0.16822254207E+03 0.  0.
        -24    2    3    3    0    0  0.13682544806E+02 -0.18371530075E+02 -0.97021597992E+02  0.12717438658E+03  0.78964605836E+02 0.  0.
          6    2    1    2  501    0  0.45972904324E+02 -0.12976601159E+02 -0.21035684403E+03  0.27588425369E+03  0.17198900981E+03 0.  0.
         24    2    5    5    0    0 -0.35758119661E+02  0.20479304015E+02 -0.99070861831E+02  0.13373673276E+03  0.79827520382E+02 0.  0.
          5    1    5    5  501    0  0.81731023985E+02 -0.33455905174E+02 -0.11128598220E+03  0.14214752093E+03  0.47000000000E+01 0. -1.
        -13    1    6    6    0    0  0.89132643213E+01  0.18697555608E+02  0.42619460456E+01  0.21147317812E+02  0.00000000000E+00 0.  1.
         14    1    6    6    0    0 -0.44671383983E+02  0.17817484076E+01 -0.10333280788E+03  0.11258941495E+03  0.00000000000E+00 0. -1.
         -5    1    3    3    0  503 -0.59655449130E+02  0.31348131234E+02  0.97705652603E+01  0.68257101376E+02  0.47000000000E+01 0.  1.
         13    1    4    4    0    0  0.36603675713E+02  0.13793479855E+02 -0.29668486357E+02  0.49094890212E+02  0.00000000000E+00 0. -1.
        -14    1    4    4    0    0 -0.22921130906E+02 -0.32165009930E+02 -0.67353111635E+02  0.78079496366E+02  0.00000000000E+00 0.  1.
</event>
<event>
12    1  0.8500177E-002  0.2646902E+03  0.7818608E-02  0.1104484E+00
         21   -1    0    0  501  502  0.00000000000E+00  0.00000000000E+00  0.14923559517E+03  0.14923559517E+03  0.00000000000E+00 0.  1.
         21   -1    0    0  502  503 -0.00000000000E+00 -0.00000000000E+00 -0.47973940083E+03  0.47973940083E+03  0.00000000000E+00 0. -1.
         -6    2    1    2    0  503 -0.19699701733E+03 -0.38326224086E+02 -0.11618725265E+03  0.28906815503E+03  0.17258098471E+03 0.  0.
        -24    2    3    3    0    0 -0.22208932396E+03 -0.34887997654E+02 -0.11589696645E+03  0.26330734139E+03  0.73197055949E+02 0.  0.
          6    2    1    2  501    0  0.19699701733E+03  0.38326224086E+02 -0.21431655301E+03  0.33990684098E+03  0.17125522287E+03 0.  0.
         24    2    5    5    0    0  0.22140095697E+02  0.46458411197E+01 -0.51011975115E+02  0.98246363446E+02  0.80860117784E+02 0.  0.
          5    1    5    5  501    0  0.17485692163E+03  0.33680382966E+02 -0.16330457789E+03  0.24166047753E+03  0.47000000000E+01 0. -1.
        -11    1    6    6    0    0  0.26679243293E+02 -0.29332469698E+02 -0.37030438150E+01  0.39823213517E+02  0.00000000000E+00 0.  1.
         12    1    6    6    0    0 -0.45391475967E+01  0.33978310818E+02 -0.47308931300E+02  0.58423149930E+02  0.00000000000E+00 0. -1.
         -5    1    3    3    0  503  0.25092306632E+02 -0.34382264314E+01 -0.29028619985E+00  0.25760813636E+02  0.47000000000E+01 0.  1.
         13    1    4    4    0    0 -0.46903261473E+02 -0.30139321772E+02 -0.53530592890E+02  0.77290484723E+02  0.00000000000E+00 0. -1.
        -14    1    4    4    0    0 -0.17518606249E+03 -0.47486758823E+01 -0.62366373559E+02  0.18601685667E+03  0.00000000000E+00 0.  1.
</event>
<event>
12    1  0.8500177E-002  0.2685732E+03  0.7818608E-02  0.1102339E+00
         21   -1    0    0  501  502  0.00000000000E+00  0.00000000000E+00  0.37251104379E+03  0.37251104379E+03  0.00000000000E+00 0. -1.
         21   -1    0    0  502  503 -0.00000000000E+00 -0.00000000000E+00 -0.19923905742E+03  0.19923905742E+03  0.00000000000E+00 0.  1.
         -6    2    1    2    0  503  0.20270210228E+03 -0.38808415399E+02  0.13969979010E+03  0.30273356792E+03  0.17186432561E+03 0.  0.
        -24    2    3    3    0    0  0.62665306193E+02  0.15993514525E+02  0.91772894351E+01  0.10355583583E+03  0.80354560449E+02 0.  0.
          6    2    1    2  501    0 -0.20270210228E+03  0.38808415399E+02  0.33572196274E+02  0.26901653329E+03  0.16925887700E+03 0.  0.
         24    2    5    5    0    0 -0.26580299286E+02  0.94348612294E+01 -0.93297674037E+01  0.85320143388E+02  0.79980956429E+02 0.  0.
          5    1    5    5  501    0 -0.17612180300E+03  0.29373554170E+02  0.42901963678E+02  0.18369638990E+03  0.47000000000E+01 0. -1.
        -13    1    6    6    0    0 -0.36724865618E+02 -0.27356422840E+02  0.92080474827E+00  0.45803247774E+02  0.00000000000E+00 0.  1.
         14    1    6    6    0    0  0.10144566332E+02  0.36791284069E+02 -0.10250572152E+02  0.39516895614E+02  0.00000000000E+00 0. -1.
         -5    1    3    3    0  503  0.14003679609E+03 -0.54801929924E+02  0.13052250067E+03  0.19917773210E+03  0.47000000000E+01 0.  1.
         13    1    4    4    0    0  0.22879320548E+02 -0.32661617585E+02  0.81187843940E+01  0.40695936308E+02  0.00000000000E+00 0. -1.
        -14    1    4    4    0    0  0.39785985646E+02  0.48655132109E+02  0.10585050411E+01  0.62859899517E+02  0.00000000000E+00 0.  1.
</event>
<event>
12    1  0.8500177E-002  0.1881663E+03  0.7818608E-02  0.1160761E+00
         21   -1    0    0  501  502  0.00000000000E+00  0.00000000000E+00  0.13839295349E+04  0.13839295349E+04  0.00000000000E+00 0.  1.
         21   -1    0    0  502  503 -0.00000000000E+00 -0.00000000000E+00 -0.58566508466E+02  0.58566508466E+02  0.00000000000E+00 0.  1.
         -6    2    1    2    0  503 -0.64774432682E+02  0.19804953275E+02  0.12048243145E+03  0.22343360979E+03  0.17555226684E+03 0.  0.
        -24    2    3    3    0    0  0.16747712370E+02 -0.43447132051E+02  0.68926706389E+02  0.10799198291E+03  0.68871172236E+02 0.  0.
          6    2    1    2  501    0  0.64774432682E+02 -0.19804953275E+02  0.12048805950E+04  0.12190624336E+04  0.17259202033E+03 0.  0.
         24    2    5    5    0    0 -0.26215629343E+02  0.52992497836E+01  0.41378753646E+03  0.42234433435E+03  0.80245063104E+02 0.  0.
          5    1    5    5  501    0  0.90990062025E+02 -0.25104203058E+02  0.79109305856E+03  0.79671809927E+03  0.47000000000E+01 0. -1.
        -13    1    6    6    0    0 -0.88342036594E+01  0.17399150165E+02  0.39002902724E+03  0.39051685709E+03  0.00000000000E+00 0.  1.
         14    1    6    6    0    0 -0.17381425683E+02 -0.12099900382E+02  0.23758509219E+02  0.31827477254E+02  0.00000000000E+00 0. -1.
         -5    1    3    3    0  503 -0.81522145052E+02  0.63252085326E+02  0.51555725063E+02  0.11544162689E+03  0.47000000000E+01 0.  1.
         13    1    4    4    0    0  0.14281331383E+02 -0.93112539593E+01  0.71658139482E+02  0.73658297770E+02  0.00000000000E+00 0. -1.
        -14    1    4    4    0    0  0.24663809872E+01 -0.34135878092E+02 -0.27314330925E+01  0.34333685136E+02  0.00000000000E+00 0.  1.
</event>
<event>
12    1  0.8500177E-002  0.2131262E+03  0.7818608E-02  0.1143073E+00
         21   -1    0    0  503  502  0.00000000000E+00  0.00000000000E+00  0.14007733505E+03  0.14007733505E+03  0.00000000000E+00 0. -1.
         21   -1    0    0  501  503 -0.00000000000E+00 -0.00000000000E+00 -0.30973796068E+03  0.30973796068E+03  0.00000000000E+00 0. -1.
          6    2    1    2  501    0  0.42718758566E+02  0.78487497139E+02 -0.12920693473E+03  0.23288374297E+03  0.17191633494E+03 0.  0.
         24    2    3    3    0    0  0.10591317004E+02  0.10594416815E+03 -0.13470154484E+03  0.19000808525E+03  0.81377045401E+02 0.  0.
         -6    2    1    2    0  502 -0.42718758566E+02 -0.78487497139E+02 -0.40453690907E+02  0.21693155275E+03  0.19348803046E+03 0.  0.
        -24    2    5    5    0    0 -0.10018154094E+03 -0.51501091468E+02  0.53336717324E+01  0.13851720441E+03  0.80435466657E+02 0.  0.
          5    1    3    3  501    0  0.32127441562E+02 -0.27456671015E+02  0.54946101124E+01  0.42875657719E+02  0.47000000000E+01 0. -1.
        -11    1    4    4    0    0 -0.35255330629E+02  0.37839001954E+02 -0.47140755463E+02  0.69978419761E+02  0.00000000000E+00 0.  1.
         12    1    4    4    0    0  0.45846647633E+02  0.68105166199E+02 -0.87560789376E+02  0.12002966549E+03  0.00000000000E+00 0. -1.
         -5    1    5    5    0  502  0.57462782371E+02 -0.26986405671E+02 -0.45787362640E+02  0.78414348345E+02  0.47000000000E+01 0.  1.
         13    1    6    6    0    0 -0.40369309237E+02  0.18226217282E+02  0.13457915120E+02  0.46292457313E+02  0.00000000000E+00 0. -1.
        -14    1    6    6    0    0 -0.59812231700E+02 -0.69727308750E+02 -0.81242433873E+01  0.92224747097E+02  0.00000000000E+00 0.  1.
</event>
<event>
12    1  0.8500177E-002  0.3285949E+03  0.7818608E-02  0.1071788E+00
         21   -1    0    0  501  502  0.00000000000E+00  0.00000000000E+00  0.54147877436E+02  0.54147877436E+02  0.00000000000E+00 0.  1.
         21   -1    0    0  502  503 -0.00000000000E+00 -0.00000000000E+00 -0.20314860655E+04  0.20314860655E+04  0.00000000000E+00 0. -1.
         -6    2    1    2    0  503  0.18990605830E+03 -0.20536025956E+03 -0.84471336600E+03  0.90637478636E+03  0.17244545652E+03 0.  0.
        -24    2    3    3    0    0  0.57002526900E+02 -0.74191029397E+02 -0.50244736041E+03  0.51645578942E+03  0.74294249588E+02 0.  0.
          6    2    1    2  501    0 -0.18990605830E+03  0.20536025956E+03 -0.11326248221E+04  0.11792591566E+04  0.17197681127E+03 0.  0.
         24    2    5    5    0    0 -0.14213660338E+03  0.16687913242E+03 -0.10540973904E+04  0.10795026255E+04  0.78442023885E+02 0.  0.
          5    1    5    5  501    0 -0.47769454922E+02  0.38481127143E+02 -0.78527431614E+02  0.99756531043E+02  0.47000000000E+01 0. -1.
        -11    1    6    6    0    0 -0.38720295502E+02  0.42058388640E+02 -0.14133948196E+03  0.15246317096E+03  0.00000000000E+00 0.  1.
         12    1    6    6    0    0 -0.10341630787E+03  0.12482074378E+03 -0.91275790848E+03  0.92703945456E+03  0.00000000000E+00 0. -1.
         -5    1    3    3    0  503  0.13290353140E+03 -0.13116923016E+03 -0.34226600559E+03  0.38991899695E+03  0.47000000000E+01 0.  1.
         13    1    4    4    0    0 -0.36661786804E+01  0.51949997944E+01 -0.28541722163E+01  0.69695902333E+01  0.00000000000E+00 0. -1.
        -14    1    4    4    0    0  0.60668705581E+02 -0.79386029192E+02 -0.49959318819E+03  0.50948619918E+03  0.00000000000E+00 0.  1.
</event>
<event>
12    1  0.8500177E-002  0.1783663E+03  0.7818608E-02  0.1169439E+00
         21   -1    0    0  503  502  0.00000000000E+00  0.00000000000E+00  0.88283540564E+03  0.88283540564E+03  0.00000000000E+00 0.  1.
         21   -1    0    0  501  503 -0.00000000000E+00 -0.00000000000E+00 -0.39066888384E+02  0.39066888384E+02  0.00000000000E+00 0.  1.
          6    2    1    2  501    0  0.27365004747E+02  0.37028215351E+02  0.29291674950E+03  0.34295005772E+03  0.17232117610E+03 0.  0.
         24    2    3    3    0    0  0.70220699765E+02  0.10880425044E+02  0.26542174596E+03  0.28551850930E+03  0.77606607975E+02 0.  0.
         -6    2    1    2    0  502 -0.27365004747E+02 -0.37028215351E+02  0.55085176776E+03  0.57895223631E+03  0.17212811994E+03 0.  0.
        -24    2    5    5    0    0  0.42416954083E+02 -0.15136673706E+02  0.17773902221E+03  0.19871024459E+03  0.76591673222E+02 0.  0.
          5    1    3    3  501    0 -0.42855695017E+02  0.26147790307E+02  0.27495003544E+02  0.57431548414E+02  0.47000000000E+01 0. -1.
        -13    1    4    4    0    0  0.78247009942E+02  0.11688418393E+02  0.14799134931E+03  0.16781136183E+03  0.00000000000E+00 0.  1.
         14    1    4    4    0    0 -0.80263101767E+01 -0.80799334854E+00  0.11743039665E+03  0.11770714747E+03  0.00000000000E+00 0. -1.
         -5    1    5    5    0  502 -0.69781958831E+02 -0.21891541645E+02  0.37311274555E+03  0.38024199172E+03  0.47000000000E+01 0.  1.
         11    1    6    6    0    0  0.36700987514E+02 -0.33786537202E+02  0.54285587516E+02  0.73725284622E+02  0.00000000000E+00 0. -1.
        -12    1    6    6    0    0  0.57159665696E+01  0.18649863496E+02  0.12345343469E+03  0.12498495997E+03  0.00000000000E+00 0.  1.
</event>
<event>
12    1  0.8500177E-002  0.2176844E+03  0.7818608E-02  0.1135786E+00
         21   -1    0    0  503  502  0.00000000000E+00  0.00000000000E+00  0.48212998454E+03  0.48212998454E+03  0.00000000000E+00 0. -1.
         21   -1    0    0  501  503 -0.00000000000E+00 -0.00000000000E+00 -0.23620248192E+03  0.23620248192E+03  0.00000000000E+00 0.  1.
          6    2    1    2  501    0 -0.91272666513E+02  0.94797114297E+02 -0.15177238938E+03  0.26537024166E+03  0.17340505889E+03 0.  0.
         24    2    3    3    0    0 -0.91269071102E+01  0.24410736486E+02 -0.13027131718E+03  0.15497751511E+03  0.79801188098E+02 0.  0.
         -6    2    1    2    0  502  0.91272666513E+02 -0.94797114297E+02  0.39769989200E+03  0.45296222480E+03  0.17231477148E+03 0.  0.
        -24    2    5    5    0    0  0.45644009377E+02  0.14516737965E+02  0.13080959500E+03  0.16092795749E+03  0.80576337012E+02 0.  0.
          5    1    3    3  501    0 -0.82145759403E+02  0.70386377811E+02 -0.21501072209E+02  0.11039272655E+03  0.47000000000E+01 0. -1.
        -13    1    4    4    0    0 -0.38723575561E+02  0.33392927460E+02 -0.96312431369E+02  0.10904442831E+03  0.00000000000E+00 0.  1.
         14    1    4    4    0    0  0.29596668451E+02 -0.89821909738E+01 -0.33958885806E+02  0.45933086803E+02  0.00000000000E+00 0. -1.
         -5    1    5    5    0  502  0.45628657136E+02 -0.10931385226E+03  0.26689029700E+03  0.29203426731E+03  0.47000000000E+01 0.  1.
         11    1    6    6    0    0 -0.24767362935E+01  0.22789224639E+02  0.18073310047E+01  0.22994552131E+02  0.00000000000E+00 0. -1.
        -12    1    6    6    0    0  0.48120745671E+02 -0.82724866740E+01  0.12900226399E+03  0.13793340536E+03  0.00000000000E+00 0.  1.
</event>
<event>
12    1  0.8500177E-002  0.1915237E+03  0.7818608E-02  0.1157589E+00
         21   -1    0    0  503  502  0.00000000000E+00  0.00000000000E+00  0.55309925695E+03  0.55309925695E+03  0.00000000000E+00 0. -1.
         21   -1    0    0  501  503 -0.00000000000E+00 -0.00000000000E+00 -0.71498348637E+02  0.71498348637E+02  0.00000000000E+00 0. -1.
          6    2    1    2  501    0  0.21360625408E+02  0.80249863281E+02  0.15206910473E+03  0.24455331420E+03  0.17258329583E+03 0.  0.
         24    2    3    3    0    0  0.27721736447E+02  0.11955183966E+03  0.14302675384E+03  0.20345631685E+03  0.76659529841E+02 0.  0.
         -6    2    1    2    0  502 -0.21360625408E+02 -0.80249863281E+02  0.32953180358E+03  0.38004429139E+03  0.17013564285E+03 0.  0.
        -24    2    5    5    0    0 -0.55376439262E+02 -0.81154549897E+02  0.14124290562E+03  0.18864760086E+03  0.77367615485E+02 0.  0.
          5    1    3    3  501    0 -0.63611110394E+01 -0.39301976382E+02  0.90423508887E+01  0.41096997345E+02  0.47000000000E+01 0. -1.
        -13    1    4    4    0    0 -0.79423429587E+01 -0.66406458165E+01  0.14086264716E+01  0.10448120265E+02  0.00000000000E+00 0.  1.
         14    1    4    4    0    0  0.35664079406E+02  0.12619248548E+03  0.14161812737E+03  0.19300819659E+03  0.00000000000E+00 0. -1.
         -5    1    5    5    0  502  0.34015813855E+02  0.90468661652E+00  0.18828889796E+03  0.19139669053E+03  0.47000000000E+01 0.  1.
         11    1    6    6    0    0  0.20399500373E+01 -0.46750507223E+02  0.98986743624E+02  0.10949039563E+03  0.00000000000E+00 0. -1.
        -12    1    6    6    0    0 -0.57416389300E+02 -0.34404042674E+02  0.42256161997E+02  0.79157205226E+02  0.00000000000E+00 0.  1.
</event>
<event>
12    1  0.8500177E-002  0.1786545E+03  0.7818608E-02  0.1170190E+00
         21   -1    0    0  501  502  0.00000000000E+00  0.00000000000E+00  0.95270289173E+03  0.95270289173E+03  0.00000000000E+00 0.  1.
         21   -1    0    0  502  503 -0.00000000000E+00 -0.00000000000E+00 -0.36109087068E+02  0.36109087068E+02  0.00000000000E+00 0.  1.
         -6    2    1    2    0  503 -0.18374468629E+02  0.19543579305E+02  0.60530179464E+03  0.62989673771E+03  0.17222097721E+03 0.  0.
        -24    2    3    3    0    0 -0.76562653402E+02  0.90888344459E+00  0.36957465445E+03  0.38633464838E+03  0.82500723394E+02 0.  0.
          6    2    1    2  501    0  0.18374468629E+02 -0.19543579305E+02  0.31129201002E+03  0.35891524109E+03  0.17662916575E+03 0.  0.
         24    2    5    5    0    0  0.38516774858E+02 -0.51649473984E+02  0.98477684056E+02  0.14270116127E+03  0.80712806071E+02 0.  0.
          5    1    5    5  501    0 -0.20142306229E+02  0.32105894679E+02  0.21281432596E+03  0.21621407981E+03  0.47000000000E+01 0. -1.
        -13    1    6    6    0    0  0.12617236305E+01 -0.64009899422E+02  0.60763484986E+02  0.88266982945E+02  0.00000000000E+00 0.  1.
         14    1    6    6    0    0  0.37255051228E+02  0.12360425438E+02  0.37714199070E+02  0.54434178330E+02  0.00000000000E+00 0. -1.
         -5    1    3    3    0  503  0.58188184773E+02  0.18634695861E+02  0.23572714019E+03  0.24356208933E+03  0.47000000000E+01 0.  1.
         13    1    4    4    0    0  0.39153747747E+01 -0.14195179282E+02  0.10610647654E+02  0.18149906835E+02  0.00000000000E+00 0. -1.
        -14    1    4    4    0    0 -0.80478028177E+02  0.15104062727E+02  0.35896400680E+03  0.36818474155E+03  0.00000000000E+00 0.  1.
</event>
<event>
12    1  0.8500177E-002  0.1955280E+03  0.7818608E-02  0.1153666E+00
         21   -1    0    0  503  502  0.00000000000E+00  0.00000000000E+00  0.24024724954E+03  0.24024724954E+03  0.00000000000E+00 0. -1.
         21   -1    0    0  501  503 -0.00000000000E+00 -0.00000000000E+00 -0.15877570682E+03  0.15877570682E+03  0.00000000000E+00 0. -1.
          6    2    1    2  501    0  0.93425614436E+02  0.46490603067E+01  0.39208017811E+02  0.19942034818E+03  0.17170104080E+03 0.  0.
         24    2    3    3    0    0  0.53575562472E+02  0.64165590239E+02  0.51748099915E+02  0.12655343088E+03  0.79689027841E+02 0.  0.
         -6    2    1    2    0  502 -0.93425614436E+02 -0.46490603067E+01  0.42263524911E+02  0.19960260818E+03  0.17118713871E+03 0.  0.
        -24    2    5    5    0    0 -0.18012981483E+02 -0.28037578758E+02 -0.13295798451E+02  0.10294332815E+03  0.96488223266E+02 0.  0.
          5    1    3    3  501    0  0.39850051964E+02 -0.59516529932E+02 -0.12540082104E+02  0.72866917294E+02  0.47000000000E+01 0. -1.
        -11    1    4    4    0    0  0.26955436751E+01  0.57783346918E+02  0.47947262511E+02  0.75134021049E+02  0.00000000000E+00 0.  1.
         12    1    4    4    0    0  0.50880018797E+02  0.63822433204E+01  0.38008374045E+01  0.51419409833E+02  0.00000000000E+00 0. -1.
         -5    1    5    5    0  502 -0.75412632953E+02  0.23388518452E+02  0.55559323362E+02  0.96659280034E+02  0.47000000000E+01 0.  1.
         13    1    6    6    0    0 -0.37313905643E+02 -0.50032641557E+02 -0.29998191990E+02  0.69249435363E+02  0.00000000000E+00 0. -1.
        -14    1    6    6    0    0  0.19300924161E+02  0.21995062798E+02  0.16702393539E+02  0.33693892783E+02  0.00000000000E+00 0.  1.
</event>
<event>
12    1  0.8500177E-002  0.2080488E+03  0.7818608E-02  0.1143269E+00
         21   -1    0    0  501  502  0.00000000000E+00  0.00000000000E+00  0.27316785092E+03  0.27316785092E+03  0.00000000000E+00 0.  1.
         21   -1    0    0  502  503 -0.00000000000E+00 -0.00000000000E+00 -0.23658218941E+03  0.23658218941E+03  0.00000000000E+00 0. -1.
         -6    2    1    2    0  503  0.11099091781E+03  0.38151941872E+02 -0.12868112339E+03  0.24462859970E+03  0.17178406727E+03 0.  0.
        -24    2    3    3    0    0  0.72503798575E+02  0.76069576029E+02 -0.37482159820E+02  0.13852324506E+03  0.82099914203E+02 0.  0.
          6    2    1    2  501    0 -0.11099091781E+03 -0.38151941872E+02  0.16526678490E+03  0.26512144063E+03  0.17088508883E+03 0.  0.
         24    2    5    5    0    0 -0.11292875880E+03 -0.12254749357E+02  0.48763238082E+02  0.14566606725E+03  0.77056254213E+02 0.  0.
          5    1    5    5  501    0  0.19378409907E+01 -0.25897192514E+02  0.11650354682E+03  0.11945537338E+03  0.47000000000E+01 0. -1.
        -13    1    6    6    0    0 -0.29687906643E+02  0.11435272043E+02  0.49822158369E+02  0.59113320936E+02  0.00000000000E+00 0.  1.
         14    1    6    6    0    0 -0.83240852162E+02 -0.23690021401E+02 -0.10589202872E+01  0.86552746316E+02  0.00000000000E+00 0. -1.
         -5    1    3    3    0  503  0.38487119239E+02 -0.37917634157E+02 -0.91198963571E+02  0.10610535464E+03  0.47000000000E+01 0.  1.
         13    1    4    4    0    0 -0.42747329996E+01  0.26589236938E+02 -0.38730645767E+02  0.47173337646E+02  0.00000000000E+00 0. -1.
        -14    1    4    4    0    0  0.76778531575E+02  0.49480339091E+02  0.12484859468E+01  0.91349907413E+02  0.00000000000E+00 0.  1.
</event>
<event>
12    1  0.8500177E-002  0.1754951E+03  0.7818608E-02  0.1176582E+00
         21   -1    0    0  501  502  0.00000000000E+00  0.00000000000E+00  0.85473365069E+02  0.85473365069E+02  0.00000000000E+00 0.  1.
         21   -1    0    0  502  503 -0.00000000000E+00 -0.00000000000E+00 -0.47072848377E+03  0.47072848377E+03  0.00000000000E+00 0.  1.
         -6    2    1    2    0  503  0.23744782468E+02  0.25005103047E+02 -0.33942095941E+03  0.37482016776E+03  0.15522403357E+03 0.  0.
        -24    2    3    3    0    0  0.62667590697E+02  0.15278589064E+02 -0.15262198300E+03  0.18370361258E+03  0.79327708735E+02 0.  0.
          6    2    1    2  501    0 -0.23744782468E+02 -0.25005103047E+02 -0.45834159287E+02  0.18138168108E+03  0.17207403697E+03 0.  0.
         24    2    5    5    0    0 -0.43386686007E+02 -0.45301028527E+02  0.21405982107E+02  0.10829915526E+03  0.85649887628E+02 0.  0.
          5    1    5    5  501    0  0.19641903539E+02  0.20295925480E+02 -0.67240141394E+02  0.73082525821E+02  0.47000000000E+01 0. -1.
        -13    1    6    6    0    0 -0.15343975071E+02  0.88604523917E+01  0.40650659234E+02  0.44344348949E+02  0.00000000000E+00 0.  1.
         14    1    6    6    0    0 -0.28042710936E+02 -0.54161480919E+02 -0.19244677127E+02  0.63954806306E+02  0.00000000000E+00 0. -1.
         -5    1    3    3    0  503 -0.38922808229E+02  0.97265139826E+01 -0.18679897641E+03  0.19111655518E+03  0.47000000000E+01 0.  1.
         13    1    4    4    0    0  0.41504577952E+02  0.10454643023E+01 -0.15637262400E+02  0.44364929415E+02  0.00000000000E+00 0. -1.
        -14    1    4    4    0    0  0.21163012745E+02  0.14233124762E+02 -0.13698472060E+03  0.13933868317E+03  0.00000000000E+00 0.  1.
</event>
<event>
12    1  0.8500177E-002  0.2585484E+03  0.7818608E-02  0.1108272E+00
         21   -1    0    0  501  502  0.00000000000E+00  0.00000000000E+00  0.11987297257E+03  0.11987297257E+03  0.00000000000E+00 0.  1.
         21   -1    0    0  502  503 -0.00000000000E+00 -0.00000000000E+00 -0.55834587232E+03  0.55834587232E+03  0.00000000000E+00 0. -1.
         -6    2    1    2    0  503  0.17290968939E+03  0.74712648291E+02 -0.19022541615E+03  0.32098750394E+03  0.17710880339E+03 0.  0.
        -24    2    3    3    0    0  0.76634415029E+02 -0.25087379667E+02 -0.12403325699E+03  0.16725895758E+03  0.78032684592E+02 0.  0.
          6    2    1    2  501    0 -0.17290968939E+03 -0.74712648291E+02 -0.24824748361E+03  0.35723134095E+03  0.17466447075E+03 0.  0.
         24    2    5    5    0    0 -0.12660888928E+03 -0.11951357764E+03 -0.20189560962E+03  0.27772364584E+03  0.77815680850E+02 0.  0.
          5    1    5    5  501    0 -0.46300800106E+02  0.44800929346E+02 -0.46351873982E+02  0.79507695114E+02  0.47000000000E+01 0. -1.
        -13    1    6    6    0    0 -0.34814712055E+02 -0.71690350766E+02 -0.50573073849E+02  0.94388592356E+02  0.00000000000E+00 0.  1.
         14    1    6    6    0    0 -0.91794177225E+02 -0.47823226871E+02 -0.15132253578E+03  0.18333505348E+03  0.00000000000E+00 0. -1.
         -5    1    3    3    0  503  0.96275274357E+02  0.99800027958E+02 -0.66192159160E+02  0.15372854636E+03  0.47000000000E+01 0.  1.
         11    1    4    4    0    0  0.20540086161E+02  0.70532818757E+01 -0.93082284901E+02  0.95582193358E+02  0.00000000000E+00 0. -1.
        -12    1    4    4    0    0  0.56094328868E+02 -0.32140661542E+02 -0.30950972087E+02  0.71676764217E+02  0.00000000000E+00 0.  1.
</event>
<event>
12    1  0.8500177E-002  0.1990878E+03  0.7818608E-02  0.1150701E+00
         21   -1    0    0  503  502  0.00000000000E+00  0.00000000000E+00  0.19550883505E+03  0.19550883505E+03  0.00000000000E+00 0. -1.
         21   -1    0    0  501  503 -0.00000000000E+00 -0.00000000000E+00 -0.22674816301E+03  0.22674816301E+03  0.00000000000E+00 0. -1.
          6    2    1    2  501    0  0.73446837632E+02 -0.63638573324E+02 -0.85647081729E+02  0.21672879898E+03  0.17375742783E+03 0.  0.
         24    2    3    3    0    0  0.37608749778E+02 -0.93349112768E+01  0.18174462925E+02  0.94114528251E+02  0.83819297879E+02 0.  0.
         -6    2    1    2    0  502 -0.73446837632E+02  0.63638573324E+02  0.54407753764E+02  0.20552819907E+03  0.17273485743E+03 0.  0.
        -24    2    5    5    0    0 -0.47525241390E+02  0.34721718312E+02  0.10416968378E+03  0.14223164834E+03  0.76904307280E+02 0.  0.
          5    1    3    3  501    0  0.35838087855E+02 -0.54303662047E+02 -0.10382154465E+03  0.12261427073E+03  0.47000000000E+01 0. -1.
        -13    1    4    4    0    0 -0.34726568116E+01 -0.40569816200E+02  0.71018190939E+01  0.41332858191E+02  0.00000000000E+00 0.  1.
         14    1    4    4    0    0  0.41081406589E+02  0.31234904923E+02  0.11072643831E+02  0.52781670060E+02  0.00000000000E+00 0. -1.
         -5    1    5    5    0  502 -0.25921596243E+02  0.28916855012E+02 -0.49761930019E+02  0.63296550733E+02  0.47000000000E+01 0.  1.
         13    1    6    6    0    0 -0.31063697943E+02  0.48964582269E+02  0.10553982022E+03  0.12042066807E+03  0.00000000000E+00 0. -1.
        -14    1    6    6    0    0 -0.16461543447E+02 -0.14242863957E+02 -0.13701364380E+01  0.21810980267E+02  0.00000000000E+00 0.  1.
</event>
<event>
12    1  0.8500177E-002  0.2375036E+03  0.7818608E-02  0.1121642E+00
         21   -1    0    0  503  502  0.00000000000E+00  0.00000000000E+00  0.21147998327E+03  0.21147998327E+03  0.00000000000E+00 0.  1.
         21   -1    0    0  501  503 -0.00000000000E+00 -0.00000000000E+00 -0.26639968960E+03  0.26639968960E+03  0.00000000000E+00 0. -1.
          6    2    1    2  501    0 -0.16362010377E+03  0.23194628202E+01 -0.40830635245E+02  0.24098775631E+03  0.17213668885E+03 0.  0.
         24    2    3    3    0    0 -0.13803090407E+03 -0.46487005618E+02 -0.67236635000E+02  0.17969954108E+03  0.80978934350E+02 0.  0.
         -6    2    1    2    0  502  0.16362010377E+03 -0.23194628202E+01 -0.14089071088E+02  0.23689191656E+03  0.17071133513E+03 0.  0.
        -24    2    5    5    0    0  0.12977979196E+03 -0.39625679478E+02 -0.59903459598E+02  0.16864260375E+03  0.80242846740E+02 0.  0.
          5    1    3    3  501    0 -0.25589199703E+02  0.48806468438E+02  0.26405999756E+02  0.61288215229E+02  0.47000000000E+01 0. -1.
        -11    1    4    4    0    0  0.75198566739E+01  0.12622664647E+01  0.61959100302E+01  0.98250120675E+01  0.00000000000E+00 0.  1.
         12    1    4    4    0    0 -0.14555076074E+03 -0.47749272082E+02 -0.73432545031E+02  0.16987452901E+03  0.00000000000E+00 0. -1.
         -5    1    5    5    0  502  0.33840311815E+02  0.37306216658E+02  0.45814388510E+02  0.68249312814E+02  0.47000000000E+01 0.  1.
         11    1    6    6    0    0  0.81113150733E+02 -0.43746868139E+02 -0.73573811208E+02  0.11792471068E+03  0.00000000000E+00 0. -1.
        -12    1    6    6    0    0  0.48666641223E+02  0.41211886610E+01  0.13670351610E+02  0.50717893066E+02  0.00000000000E+00 0.  1.
</event>
<event>
12    1  0.8500177E-002  0.2102543E+03  0.7818608E-02  0.1141474E+00
         21   -1    0    0  503  502  0.00000000000E+00  0.00000000000E+00  0.53265042507E+03  0.53265042507E+03  0.00000000000E+00 0. -1.
         21   -1    0    0  501  503 -0.00000000000E+00 -0.00000000000E+00 -0.17425175754E+03  0.17425175754E+03  0.00000000000E+00 0.  1.
          6    2    1    2  501    0  0.21566944300E+02 -0.11827819139E+03 -0.77002234722E+02  0.22339332482E+03  0.17181492885E+03 0.  0.
         24    2    3    3    0    0  0.54370958940E+01 -0.15205131187E+03 -0.63570563550E+02  0.18335215267E+03  0.80172513290E+02 0.  0.
         -6    2    1    2    0  502 -0.21566944300E+02  0.11827819139E+03  0.43540090225E+03  0.48350885779E+03  0.17248769878E+03 0.  0.
        -24    2    5    5    0    0  0.15306589282E+02  0.14335340510E+03  0.35808653165E+03  0.39413310200E+03  0.79564109440E+02 0.  0.
          5    1    3    3  501    0  0.16129848406E+02  0.33773120475E+02 -0.13431671172E+02  0.40041172145E+02  0.47000000000E+01 0. -1.
        -11    1    4    4    0    0 -0.75281920372E+01 -0.87971839299E+01 -0.34783713749E+02  0.36660208164E+02  0.00000000000E+00 0.  1.
         12    1    4    4    0    0  0.12965287931E+02 -0.14325412794E+03 -0.28786849800E+02  0.14669194451E+03  0.00000000000E+00 0. -1.
         -5    1    5    5    0  502 -0.36873533582E+02 -0.25075213709E+02  0.77314370599E+02  0.89375755787E+02  0.47000000000E+01 0.  1.
         11    1    6    6    0    0 -0.32412281757E+01  0.12078004272E+03  0.20233077131E+03  0.23566091169E+03  0.00000000000E+00 0. -1.
        -12    1    6    6    0    0  0.18547817458E+02  0.22573362382E+02  0.15575576035E+03  0.15847219031E+03  0.00000000000E+00 0.  1.
</event>
<event>
12    1  0.8500177E-002  0.2306161E+03  0.7818608E-02  0.1126285E+00
         21   -1    0    0  503  502  0.00000000000E+00  0.00000000000E+00  0.13107540028E+03  0.13107540028E+03  0.00000000000E+00 0.  1.
         21   -1    0    0  501  503 -0.00000000000E+00 -0.00000000000E+00 -0.40557462586E+03  0.40557462586E+03  0.00000000000E+00 0. -1.
          6    2    1    2  501    0 -0.19387839847E+02  0.15283597325E+03 -0.14746480911E+03  0.27336020468E+03  0.17101230518E+03 0.  0.
         24    2    3    3    0    0  0.71903806735E+01  0.66608300884E+02 -0.38370832000E+01  0.10367630168E+03  0.79029646346E+02 0.  0.
         -6    2    1    2    0  502  0.19387839847E+02 -0.15283597325E+03 -0.12703441647E+03  0.26328982145E+03  0.17160729605E+03 0.  0.
        -24    2    5    5    0    0 -0.34748336467E+02 -0.34939355367E+02 -0.82986624254E+02  0.12620358548E+03  0.81316417415E+02 0.  0.
          5    1    3    3  501    0 -0.26578220521E+02  0.86227672370E+02 -0.14362772591E+03  0.16968390300E+03  0.47000000000E+01 0. -1.
        -11    1    4    4    0    0  0.39005292312E+02  0.50827562276E+02 -0.16176948953E+02  0.66079857693E+02  0.00000000000E+00 0.  1.
         12    1    4    4    0    0 -0.31814911639E+02  0.15780738608E+02  0.12339865753E+02  0.37596443986E+02  0.00000000000E+00 0. -1.
         -5    1    5    5    0  502  0.54136176314E+02 -0.11789661789E+03 -0.44047792213E+02  0.13708623598E+03  0.47000000000E+01 0.  1.
         13    1    6    6    0    0 -0.15575099074E+02 -0.34601521863E+02 -0.95866751585E+02  0.10310326419E+03  0.00000000000E+00 0. -1.
        -14    1    6    6    0    0 -0.19173237393E+02 -0.33783350393E+00  0.12880127331E+02  0.23100321289E+02  0.00000000000E+00 0.  1.
</event>
<event>
12    1  0.8500177E-002  0.2472609E+03  0.7818608E-02  0.1115074E+00
         21   -1    0    0  503  502  0.00000000000E+00  0.00000000000E+00  0.29635440547E+03  0.29635440547E+03  0.00000000000E+00 0. -1.
         21   -1    0    0  501  503 -0.00000000000E+00 -0.00000000000E+00 -0.54314498802E+03  0.54314498802E+03  0.00000000000E+00 0.  1.
          6    2    1    2  501    0 -0.14960512342E+03  0.96359142372E+02 -0.45400461078E+03  0.51689191014E+03  0.17143594400E+03 0.  0.
         24    2    3    3    0    0 -0.14489887437E+03  0.13021360802E+02 -0.28230575720E+03  0.32592091513E+03  0.73230203754E+02 0.  0.
         -6    2    1    2    0  502  0.14960512342E+03 -0.96359142372E+02  0.20721402823E+03  0.32260748335E+03  0.17167165622E+03 0.  0.
        -24    2    5    5    0    0  0.52534223815E+02  0.14039986465E+01  0.14271292930E+03  0.17041394520E+03  0.76890289674E+02 0.  0.
          5    1    3    3  501    0 -0.47062490545E+01  0.83337781570E+02 -0.17169885358E+03  0.19097099502E+03  0.47000000000E+01 0. -1.
        -13    1    4    4    0    0 -0.12160627267E+03 -0.32527576127E+01 -0.26754057105E+03  0.29389900161E+03  0.00000000000E+00 0.  1.
         14    1    4    4    0    0 -0.23292601692E+02  0.16274118415E+02 -0.14765186145E+02  0.32021913523E+02  0.00000000000E+00 0. -1.
         -5    1    5    5    0  502  0.97070899605E+02 -0.97763141018E+02  0.64501098929E+02  0.15219353815E+03  0.47000000000E+01 0.  1.
         13    1    6    6    0    0  0.13488997522E+02  0.37435089960E+02  0.55459983267E+02  0.68257957473E+02  0.00000000000E+00 0. -1.
        -14    1    6    6    0    0  0.39045226293E+02 -0.36031091314E+02  0.87252946030E+02  0.10215598773E+03  0.00000000000E+00 0.  1.
</event>
<event>
12    1  0.8500177E-002  0.1957287E+03  0.7818608E-02  0.1153845E+00
         21   -1    0    0  501  502  0.00000000000E+00  0.00000000000E+00  0.16499350176E+04  0.16499350176E+04  0.00000000000E+00 0.  1.
         21   -1    0    0  502  503 -0.00000000000E+00 -0.00000000000E+00 -0.40839411047E+02  0.40839411047E+02  0.00000000000E+00 0.  1.
         -6    2    1    2    0  503 -0.85770729984E+02  0.33240110174E+02  0.24300268087E+03  0.31073108713E+03  0.17041708410E+03 0.  0.
        -24    2    3    3    0    0 -0.46769478856E+00  0.21510208272E+02  0.49194665573E+02  0.98604155304E+02  0.82702820533E+02 0.  0.
          6    2    1    2  501    0  0.85770729984E+02 -0.33240110174E+02  0.13660929257E+04  0.13800433415E+04  0.17276637353E+03 0.  0.
         24    2    5    5    0    0  0.95258833030E+02  0.33315579095E+02  0.87345748877E+03  0.88281960156E+03  0.79109361861E+02 0.  0.
          5    1    5    5  501    0 -0.94881030460E+01 -0.66555689269E+02  0.49263543689E+03  0.49722373994E+03  0.47000000000E+01 0. -1.
        -13    1    6    6    0    0  0.35171176551E+02 -0.15890841318E+02  0.13871985749E+03  0.14398864316E+03  0.00000000000E+00 0.  1.
         14    1    6    6    0    0  0.60087656479E+02  0.49206420413E+02  0.73473763128E+03  0.73883095840E+03  0.00000000000E+00 0. -1.
         -5    1    3    3    0  503 -0.85303035195E+02  0.11729901902E+02  0.19380801530E+03  0.21212693182E+03  0.47000000000E+01 0.  1.
         13    1    4    4    0    0  0.33840721092E+02 -0.10884830364E+02  0.91258748956E+01  0.36700892750E+02  0.00000000000E+00 0. -1.
        -14    1    4    4    0    0 -0.34308415880E+02  0.32395038636E+02  0.40068790678E+02  0.61903262554E+02  0.00000000000E+00 0.  1.
</event>
<event>
12    1  0.8500177E-002  0.1847792E+03  0.7818608E-02  0.1163591E+00
         21   -1    0    0  503  502  0.00000000000E+00  0.00000000000E+00  0.16470772701E+03  0.16470772701E+03  0.00000000000E+00 0.  1.
         21   -1    0    0  501  503 -0.00000000000E+00 -0.00000000000E+00 -0.62235578384E+03  0.62235578384E+03  0.00000000000E+00 0.  1.
          6    2    1    2  501    0 -0.38314605521E+02 -0.54355054160E+02 -0.55052526442E+03  0.58025553332E+03  0.17086818391E+03 0.  0.
         24    2    3    3    0    0  0.45046723836E+02 -0.33918837112E+02 -0.35193499018E+03  0.36386020707E+03  0.73186871336E+02 0.  0.
         -6    2    1    2    0  502  0.38314605521E+02  0.54355054160E+02  0.92877207583E+02  0.20680797753E+03  0.17239745640E+03 0.  0.
        -24    2    5    5    0    0 -0.19642371115E+02  0.66129722572E+02  0.10188399445E+03  0.14680075991E+03  0.80069668632E+02 0.  0.
          5    1    3    3  501    0 -0.83361329356E+02 -0.20436217047E+02 -0.19859027424E+03  0.21639532625E+03  0.47000000000E+01 0. -1.
        -13    1    4    4    0    0  0.56409887023E+00 -0.46206144175E+02 -0.17126001369E+03  0.17738466184E+03  0.00000000000E+00 0.  1.
         14    1    4    4    0    0  0.44482624966E+02  0.12287307063E+02 -0.18067497650E+03  0.18647554524E+03  0.00000000000E+00 0. -1.
         -5    1    5    5    0  502  0.57956976636E+02 -0.11774668413E+02 -0.90067868667E+01  0.60007217621E+02  0.47000000000E+01 0.  1.
         11    1    6    6    0    0  0.83398161195E+00  0.65712081137E+02  0.30339818604E+02  0.72382855192E+02  0.00000000000E+00 0. -1.
        -12    1    6    6    0    0 -0.20476352727E+02  0.41764143502E+00  0.71544175845E+02  0.74417904719E+02  0.00000000000E+00 0.  1.
</event>
<event>
12    1  0.8500177E-002  0.1827055E+03  0.7818608E-02  0.1165311E+00
         21   -1    0    0  503  502  0.00000000000E+00  0.00000000000E+00  0.54832224948E+02  0.54832224948E+02  0.00000000000E+00 0.  1.
         21   -1    0    0  501  503 -0.00000000000E+00 -0.00000000000E+00 -0.85610262529E+03  0.85610262529E+03  0.00000000000E+00 0.  1.
          6    2    1    2  501    0 -0.33611834349E+02 -0.51833108700E+02 -0.64647120671E+03  0.67179335897E+03  0.17194437901E+03 0.  0.
         24    2    3    3    0    0 -0.34298343247E+02  0.34274122404E+02 -0.27575938226E+03  0.29118296325E+03  0.79957422183E+02 0.  0.
         -6    2    1    2    0  502  0.33611834349E+02  0.51833108700E+02 -0.15479919363E+03  0.23914149127E+03  0.17149179553E+03 0.  0.
        -24    2    5    5    0    0  0.21365406354E+02  0.60784673111E+02 -0.18221917867E+03  0.20745472616E+03  0.75381544555E+02 0.  0.
          5    1    3    3  501    0  0.68650889865E+00 -0.86107231104E+02 -0.37071182445E+03  0.38061039572E+03  0.47000000000E+01 0. -1.
        -11    1    4    4    0    0 -0.43554841183E+02  0.41896981900E+01 -0.23816654160E+03  0.24215259507E+03  0.00000000000E+00 0.  1.
         12    1    4    4    0    0  0.92564979361E+01  0.30084424214E+02 -0.37592840665E+02  0.49030368177E+02  0.00000000000E+00 0. -1.
         -5    1    5    5    0  502  0.12246427994E+02 -0.89515644117E+01  0.27419985034E+02  0.31686765113E+02  0.47000000000E+01 0.  1.
         11    1    6    6    0    0 -0.27595956994E+02  0.17500524577E+02 -0.46649130621E+02  0.56955654597E+02  0.00000000000E+00 0. -1.
        -12    1    6    6    0    0  0.48961363348E+02  0.43284148535E+02 -0.13557004804E+03  0.15049907157E+03  0.00000000000E+00 0.  1.
</event>
<event>
12    1  0.8500177E-002  0.1902555E+03  0.7818608E-02  0.1158265E+00
         21   -1    0    0  503  502  0.00000000000E+00  0.00000000000E+00  0.65251184712E+03  0.65251184712E+03  0.00000000000E+00 0.  1.
         21   -1    0    0  501  503 -0.00000000000E+00 -0.00000000000E+00 -0.55656289813E+02  0.55656289813E+02  0.00000000000E+00 0.  1.
          6    2    1    2  501    0  0.28492887275E+02  0.77311089305E+02  0.27595710914E+03  0.33518575056E+03  0.17148851898E+03 0.  0.
         24    2    3    3    0    0  0.11953708288E+02  0.68559061168E+02  0.66530592208E+02  0.12487241663E+03  0.79520844591E+02 0.  0.
         -6    2    1    2    0  502 -0.28492887275E+02 -0.77311089305E+02  0.32089844817E+03  0.37298238637E+03  0.17132191147E+03 0.  0.
        -24    2    5    5    0    0  0.46726833261E+02 -0.16979979929E+02  0.14871147065E+03  0.17557850003E+03  0.78999946227E+02 0.  0.
          5    1    3    3  501    0  0.16539178987E+02  0.87520281366E+01  0.20942651693E+03  0.21031333394E+03  0.47000000000E+01 0. -1.
        -11    1    4    4    0    0 -0.54587250466E+01  0.80042386065E+02  0.66195472368E+02  0.10401164266E+03  0.00000000000E+00 0.  1.
         12    1    4    4    0    0  0.17412433334E+02 -0.11483324897E+02  0.33511983974E+00  0.20860773970E+02  0.00000000000E+00 0. -1.
         -5    1    5    5    0  502 -0.75219720536E+02 -0.60331109376E+02  0.17218697752E+03  0.19740388635E+03  0.47000000000E+01 0.  1.
         11    1    6    6    0    0  0.52991701158E+02 -0.19075137890E+02  0.46174665257E+02  0.72829121845E+02  0.00000000000E+00 0. -1.
        -12    1    6    6    0    0 -0.62648678963E+01  0.20951579612E+01  0.10253680539E+03  0.10274937818E+03  0.00000000000E+00 0.  1.
</event>
<event>
12    1  0.8500177E-002  0.2228462E+03  0.7818608E-02  0.1132223E+00
         21   -1    0    0  503  502  0.00000000000E+00  0.00000000000E+00  0.36229485321E+03  0.36229485321E+03  0.00000000000E+00 0. -1.
         21   -1    0    0  501  503 -0.00000000000E+00 -0.00000000000E+00 -0.14077663910E+03  0.14077663910E+03  0.00000000000E+00 0. -1.
          6    2    1    2  501    0  0.39321789961E+02  0.13391390295E+03  0.15843539405E+03  0.27146870815E+03  0.17062927313E+03 0.  0.
         24    2    3    3    0    0  0.36715079674E+02  0.12097340010E+03  0.45484551269E+02  0.15765203786E+03  0.82478845959E+02 0.  0.
         -6    2    1    2    0  502 -0.39321789961E+02 -0.13391390295E+03  0.63082820064E+02  0.23160278416E+03  0.17372757661E+03 0.  0.
        -24    2    5    5    0    0  0.30020815420E+02 -0.10422990216E+03  0.33142129461E+01  0.13524971872E+03  0.80724101377E+02 0.  0.
          5    1    3    3  501    0  0.26067102872E+01  0.12940502857E+02  0.11295084278E+03  0.11381667029E+03  0.47000000000E+01 0. -1.
        -13    1    4    4    0    0 -0.25088159486E+02  0.46101074331E+02  0.59333740057E+01  0.52819785383E+02  0.00000000000E+00 0.  1.
         14    1    4    4    0    0  0.61803239160E+02  0.74872325766E+02  0.39551177263E+02  0.10483225248E+03  0.00000000000E+00 0. -1.
         -5    1    5    5    0  502 -0.69342605381E+02 -0.29684000795E+02  0.59768607118E+02  0.96353065447E+02  0.47000000000E+01 0.  1.
         13    1    6    6    0    0  0.22408234991E+00 -0.25414175913E+02  0.36679427027E+02  0.44624106908E+02  0.00000000000E+00 0. -1.
        -14    1    6    6    0    0  0.29796733070E+02 -0.78815726245E+02 -0.33365214081E+02  0.90625611809E+02  0.00000000000E+00 0.  1.
</event>
<event>
12    1  0.8500177E-002  0.2142719E+03  0.7818608E-02  0.1138527E+00
         21   -1    0    0  501  502  0.00000000000E+00  0.00000000000E+00  0.40476435195E+03  0.40476435195E+03  0.00000000000E+00 0. -1.
         21   -1    0    0  502  503 -0.00000000000E+00 -0.00000000000E+00 -0.29172456213E+03  0.29172456213E+03  0.00000000000E+00 0.  1.
         -6    2    1    2    0  503 -0.58599268279E+02  0.11107863484E+03 -0.21643236663E+03  0.30346940346E+03  0.17169266772E+03 0.  0.
        -24    2    3    3    0    0 -0.15420132439E+02  0.18323511852E+02 -0.17347211359E+03  0.19240354933E+03  0.79705834363E+02 0.  0.
          6    2    1    2  501    0  0.58599268279E+02 -0.11107863484E+03  0.32947215645E+03  0.39301951063E+03  0.17360903346E+03 0.  0.
         24    2    5    5    0    0  0.29503530022E+02 -0.70626761855E+02  0.74436857566E+02  0.13311951122E+03  0.79506985418E+02 0.  0.
          5    1    5    5  501    0  0.29095738256E+02 -0.40451872981E+02  0.25503529889E+03  0.25989999940E+03  0.47000000000E+01 0. -1.
        -11    1    6    6    0    0 -0.21104949659E+02 -0.37866157113E+02  0.92455025811E+01  0.44325433699E+02  0.00000000000E+00 0.  1.
         12    1    6    6    0    0  0.50608479682E+02 -0.32760604743E+02  0.65191354985E+02  0.88794077525E+02  0.00000000000E+00 0. -1.
         -5    1    3    3    0  503 -0.43179135840E+02  0.92755122984E+02 -0.42960253047E+02  0.11106585413E+03  0.47000000000E+01 0.  1.
         11    1    4    4    0    0  0.11716829613E+01 -0.28697241912E+02 -0.35290166396E+02  0.45500553608E+02  0.00000000000E+00 0. -1.
        -12    1    4    4    0    0 -0.16591815400E+02  0.47020753764E+02 -0.13818194719E+03  0.14690299572E+03  0.00000000000E+00 0.  1.
</event>
<event>
12    1  0.8500177E-002  0.1878621E+03  0.7818608E-02  0.1160863E+00
         21   -1    0    0  501  502  0.00000000000E+00  0.00000000000E+00  0.37142918770E+03  0.37142918770E+03  0.00000000000E+00 0.  1.
         21   -1    0    0  502  503 -0.00000000000E+00 -0.00000000000E+00 -0.15813543897E+03  0.15813543897E+03  0.00000000000E+00 0. -1.
         -6    2    1    2    0  503  0.68928585095E+02 -0.31947747787E+02 -0.62302400054E+02  0.19602990035E+03  0.16962996300E+03 0.  0.
        -24    2    3    3    0    0  0.56732786760E+02 -0.35735946017E+02 -0.11227193920E+03  0.14424058886E+03  0.60866182809E+02 0.  0.
          6    2    1    2  501    0 -0.68928585095E+02  0.31947747787E+02  0.27559614878E+03  0.33353472632E+03  0.17181492370E+03 0.  0.
         24    2    5    5    0    0 -0.10840361364E+03  0.78551755840E+01  0.24081083954E+03  0.27547581096E+03  0.78000094557E+02 0.  0.
          5    1    5    5  501    0  0.39475028542E+02  0.24092572203E+02  0.34785309245E+02  0.58058915362E+02  0.47000000000E+01 0. -1.
        -13    1    6    6    0    0 -0.43210725474E+01  0.23655561511E+02  0.77751146202E+02  0.81384875708E+02  0.00000000000E+00 0.  1.
         14    1    6    6    0    0 -0.10408254109E+03 -0.15800385927E+02  0.16305969333E+03  0.19409093525E+03  0.00000000000E+00 0. -1.
         -5    1    3    3    0  503  0.12195798335E+02  0.37881982303E+01  0.49969539148E+02  0.51789311499E+02  0.47000000000E+01 0.  1.
         11    1    4    4    0    0  0.10255656029E+02  0.15057540808E+02 -0.42397583242E+02  0.46146105800E+02  0.00000000000E+00 0. -1.
        -12    1    4    4    0    0  0.46477130731E+02 -0.50793486825E+02 -0.69874355960E+02  0.98094483055E+02  0.00000000000E+00 0.  1.
</event>
<event>
12    1  0.8500177E-002  0.2095976E+03  0.7818608E-02  0.1141934E+00
         21   -1    0    0  503  502  0.00000000000E+00  0.00000000000E+00  0.47769943646E+02  0.47769943646E+02  0.00000000000E+00 0. -1.
         21   -1    0    0  501  503 -0.00000000000E+00 -0.00000000000E+00 -0.15879881136E+04  0.15879881136E+04  0.00000000000E+00 0. -1.
          6    2    1    2  501    0  0.12982432896E+01  0.11984164958E+03 -0.13008754421E+04  0.13176132952E+04  0.17165131352E+03 0.  0.
         24    2    3    3    0    0 -0.55057522862E+02  0.40724317749E+02 -0.50016840890E+03  0.51102209292E+03  0.79280144543E+02 0.  0.
         -6    2    1    2    0  502 -0.12982432896E+01 -0.11984164958E+03 -0.23934272783E+03  0.31814476201E+03  0.17195185903E+03 0.  0.
        -24    2    5    5    0    0  0.13224811136E+02 -0.31985156292E+02 -0.33607720500E+02  0.93915714473E+02  0.80577519788E+02 0.  0.
          5    1    3    3  501    0  0.56355766152E+02  0.79117331827E+02 -0.80070703324E+03  0.80659120232E+03  0.47000000000E+01 0. -1.
        -11    1    4    4    0    0  0.21242550370E+01 -0.51194061683E+01 -0.30430581136E-01  0.55427163917E+01  0.00000000000E+00 0.  1.
         12    1    4    4    0    0 -0.57181777899E+02  0.45843723917E+02 -0.50013797831E+03  0.50547937653E+03  0.00000000000E+00 0. -1.
         -5    1    5    5    0  502 -0.14523054426E+02 -0.87856493285E+02 -0.20573500733E+03  0.22422904754E+03  0.47000000000E+01 0.  1.
         11    1    6    6    0    0 -0.27500323126E+02 -0.13979840717E+00  0.67659635917E+01  0.28320762330E+02  0.00000000000E+00 0. -1.
        -12    1    6    6    0    0  0.40725134262E+02 -0.31845357885E+02 -0.40373684092E+02  0.65594952143E+02  0.00000000000E+00 0.  1.
</event>
<event>
12    1  0.8500177E-002  0.2727742E+03  0.7818608E-02  0.1099725E+00
         21   -1    0    0  501  502  0.00000000000E+00  0.00000000000E+00  0.71404195716E+03  0.71404195716E+03  0.00000000000E+00 0. -1.
         21   -1    0    0  502  503 -0.00000000000E+00 -0.00000000000E+00 -0.10625952333E+03  0.10625952333E+03  0.00000000000E+00 0.  1.
         -6    2    1    2    0  503 -0.11727828662E+03 -0.17522745277E+03  0.24589834319E+03  0.36712838131E+03  0.17279582305E+03 0.  0.
        -24    2    3    3    0    0 -0.41920415634E+01 -0.11186916880E+03  0.16204246291E+03  0.21267233700E+03  0.80246364383E+02 0.  0.
          6    2    1    2  501    0  0.11727828662E+03  0.17522745277E+03  0.36188409064E+03  0.45317309918E+03  0.17305174383E+03 0.  0.
         24    2    5    5    0    0  0.92505996454E+02  0.18816490711E+03  0.24268801632E+03  0.33065437318E+03  0.80445320502E+02 0.  0.
          5    1    5    5  501    0  0.24772290161E+02 -0.12937454345E+02  0.11919607433E+03  0.12251872600E+03  0.47000000000E+01 0. -1.
        -13    1    6    6    0    0  0.78590385295E+02  0.12115720461E+03  0.20986614229E+03  0.25475343878E+03  0.00000000000E+00 0.  1.
         14    1    6    6    0    0  0.13915611159E+02  0.67007702502E+02  0.32821874029E+02  0.75900934404E+02  0.00000000000E+00 0. -1.
         -5    1    3    3    0  503 -0.11308624505E+03 -0.63358283965E+02  0.83855880275E+02  0.15445604431E+03  0.47000000000E+01 0.  1.
         13    1    4    4    0    0 -0.35476898287E+02 -0.32381446992E+02  0.85032615223E+02  0.97661220927E+02  0.00000000000E+00 0. -1.
        -14    1    4    4    0    0  0.31284856724E+02 -0.79487721811E+02  0.77009847689E+02  0.11501111607E+03  0.00000000000E+00 0.  1.
</event>
<event>
12    1  0.8500177E-002  0.2532075E+03  0.7818608E-02  0.1112161E+00
         21   -1    0    0  503  502  0.00000000000E+00  0.00000000000E+00  0.10999879419E+04  0.10999879419E+04  0.00000000000E+00 0. -1.
         21   -1    0    0  501  503 -0.00000000000E+00 -0.00000000000E+00 -0.57277235112E+02  0.57277235112E+02  0.00000000000E+00 0.  1.
          6    2    1    2  501    0  0.88062310329E+02 -0.15311170043E+03  0.56546019979E+03  0.61956378426E+03  0.18142734607E+03 0.  0.
         24    2    3    3    0    0 -0.10028361852E+02 -0.17998220394E+02  0.23620289632E+03  0.25036208553E+03  0.80404363432E+02 0.  0.
         -6    2    1    2    0  502 -0.88062310329E+02  0.15311170043E+03  0.47725050697E+03  0.53770139273E+03  0.17365649436E+03 0.  0.
        -24    2    5    5    0    0  0.17056262296E+01  0.93182760321E+02  0.35137563627E+03  0.37182091356E+03  0.78102612089E+02 0.  0.
          5    1    3    3  501    0  0.98090672180E+02 -0.13511348003E+03  0.32925730347E+03  0.36920169873E+03  0.47000000000E+01 0. -1.
        -13    1    4    4    0    0 -0.30960346597E+00 -0.47941325947E+02  0.10487344891E+03  0.11531221477E+03  0.00000000000E+00 0.  1.
         14    1    4    4    0    0 -0.97187583858E+01  0.29943105553E+02  0.13132944741E+03  0.13504987076E+03  0.00000000000E+00 0. -1.
         -5    1    5    5    0  502 -0.89767936558E+02  0.59928940108E+02  0.12587487070E+03  0.16588047917E+03  0.47000000000E+01 0.  1.
         11    1    6    6    0    0 -0.21070903512E+02  0.85967144297E+02  0.20192166036E+03  0.22046924910E+03  0.00000000000E+00 0. -1.
        -12    1    6    6    0    0  0.22776529742E+02  0.72156160237E+01  0.14945397591E+03  0.15135166447E+03  0.00000000000E+00 0.  1.
</event>
<event>
12    1  0.8500177E-002  0.2029944E+03  0.7818608E-02  0.1147471E+00
         21   -1    0    0  503  502  0.00000000000E+00  0.00000000000E+00  0.33810490412E+03  0.33810490412E+03  0.00000000000E+00 0. -1.
         21   -1    0    0  501  503 -0.00000000000E+00 -0.00000000000E+00 -0.24942620424E+03  0.24942620424E+03  0.00000000000E+00 0.  1.
          6    2    1    2  501    0 -0.71382261143E+02 -0.82396597893E+02 -0.16623022661E+03  0.26237228691E+03  0.17123697658E+03 0.  0.
         24    2    3    3    0    0  0.54933269797E+01 -0.61066202876E+02 -0.32392685836E+02  0.10648957741E+03  0.80817610863E+02 0.  0.
         -6    2    1    2    0  502  0.71382261143E+02  0.82396597893E+02  0.25490892649E+03  0.32515882145E+03  0.16989723897E+03 0.  0.
        -24    2    5    5    0    0  0.61326003851E+02  0.79516327467E+02  0.79191609682E+02  0.14906768114E+03  0.76590713753E+02 0.  0.
          5    1    3    3  501    0 -0.76875588123E+02 -0.21330395017E+02 -0.13383754078E+03  0.15588270950E+03  0.47000000000E+01 0. -1.
        -11    1    4    4    0    0 -0.91074899857E+01 -0.24193796897E+02 -0.55048525643E+02  0.60816332984E+02  0.00000000000E+00 0.  1.
         12    1    4    4    0    0  0.14600816965E+02 -0.36872405979E+02  0.22655839807E+02  0.45673244423E+02  0.00000000000E+00 0. -1.
         -5    1    5    5    0  502  0.10056257292E+02  0.28802704261E+01  0.17571731681E+03  0.17609114031E+03  0.47000000000E+01 0.  1.
         11    1    6    6    0    0  0.19214145124E+02  0.12738054139E+02  0.64852959149E+02  0.68828393171E+02  0.00000000000E+00 0. -1.
        -12    1    6    6    0    0  0.42111858727E+02  0.66778273328E+02  0.14338650532E+02  0.80239287966E+02  0.00000000000E+00 0.  1.
</event>
<event>
12    1  0.8500177E-002  0.1752696E+03  0.7818608E-02  0.1172493E+00
         21   -1    0    0  501  502  0.00000000000E+00  0.00000000000E+00  0.13194272997E+03  0.13194272997E+03  0.00000000000E+00 0.  1.
         21   -1    0    0  502  503 -0.00000000000E+00 -0.00000000000E+00 -0.23266687041E+03  0.23266687041E+03  0.00000000000E+00 0. -1.
         -6    2    1    2    0  503  0.31994404507E+02  0.88648149948E+01 -0.51725275133E+02  0.18274283926E+03  0.17209652626E+03 0.  0.
        -24    2    3    3    0    0 -0.93887435591E+01 -0.56256090239E+02 -0.26783833177E+02  0.10151807229E+03  0.79596790690E+02 0.  0.
          6    2    1    2  501    0 -0.31994404507E+02 -0.88648149948E+01 -0.48998865309E+02  0.18186676112E+03  0.17196628488E+03 0.  0.
         24    2    5    5    0    0  0.23885407487E+02  0.31648120237E+02  0.11041610109E+02  0.90265451100E+02  0.80335660221E+02 0.  0.
          5    1    5    5  501    0 -0.55879811993E+02 -0.40512935232E+02 -0.60040475418E+02  0.91601310023E+02  0.47000000000E+01 0. -1.
        -13    1    6    6    0    0  0.27633571795E+02  0.40538000614E+01  0.40842168298E+02  0.49478584219E+02  0.00000000000E+00 0.  1.
         14    1    6    6    0    0 -0.37481643078E+01  0.27594320176E+02 -0.29800558189E+02  0.40786866881E+02  0.00000000000E+00 0. -1.
         -5    1    3    3    0  503  0.41383148066E+02  0.65120905234E+02 -0.24941441956E+02  0.81224766969E+02  0.47000000000E+01 0.  1.
         11    1    4    4    0    0  0.27146989284E+01 -0.69963995895E+02 -0.38398515275E+02  0.79854719881E+02  0.00000000000E+00 0. -1.
        -12    1    4    4    0    0 -0.12103442488E+02  0.13707905656E+02  0.11614682099E+02  0.21663352413E+02  0.00000000000E+00 0.  1.
</event>
<event>
12    1  0.8500177E-002  0.2122845E+03  0.7818608E-02  0.1139814E+00
         21   -1    0    0  503  502  0.00000000000E+00  0.00000000000E+00  0.71304564770E+03  0.71304564770E+03  0.00000000000E+00 0.  1.
         21   -1    0    0  501  503 -0.00000000000E+00 -0.00000000000E+00 -0.13580486237E+03  0.13580486237E+03  0.00000000000E+00 0.  1.
          6    2    1    2  501    0 -0.10171710638E+03  0.72139821535E+02 -0.21783578489E+02  0.21339925082E+03  0.17179695101E+03 0.  0.
         24    2    3    3    0    0 -0.19352618235E+02  0.32117434434E+02 -0.59132406327E+02  0.11439053747E+03  0.90457173060E+02 0.  0.
         -6    2    1    2    0  502  0.10171710638E+03 -0.72139821535E+02  0.59902436382E+03  0.63545125925E+03  0.17151557029E+03 0.  0.
        -24    2    5    5    0    0  0.69083892586E+02 -0.38982216996E+02  0.16958926533E+03  0.20347794156E+03  0.79690377899E+02 0.  0.
          5    1    3    3  501    0 -0.82364488147E+02  0.40022387101E+02  0.37348827838E+02  0.99008713343E+02  0.47000000000E+01 0. -1.
        -13    1    4    4    0    0 -0.51211590598E+02  0.25293046735E+01 -0.17459047964E+02  0.54164958687E+02  0.00000000000E+00 0.  1.
         14    1    4    4    0    0  0.31858972363E+02  0.29588129760E+02 -0.41673358363E+02  0.60225578785E+02  0.00000000000E+00 0. -1.
         -5    1    5    5    0  502  0.32633213797E+02 -0.33157604539E+02  0.42943509849E+03  0.43197331769E+03  0.47000000000E+01 0.  1.
         13    1    6    6    0    0  0.84756443897E+02 -0.35749695612E+02  0.16071827087E+03  0.18518114944E+03  0.00000000000E+00 0. -1.
        -14    1    6    6    0    0 -0.15672551311E+02 -0.32325213837E+01  0.88709944667E+01  0.18296792121E+02  0.00000000000E+00 0.  1.
</event>
<event>
12    1  0.8500177E-002  0.2199630E+03  0.7818608E-02  0.1134011E+00
         21   -1    0    0  501  502  0.00000000000E+00  0.00000000000E+00  0.43023267368E+02  0.43023267368E+02  0.00000000000E+00 0.  1.
         21   -1    0    0  502  503 -0.00000000000E+00 -0.00000000000E+00 -0.11240434943E+04  0.11240434943E+04  0.00000000000E+00 0. -1.
         -6    2    1    2    0  503 -0.12474465354E+03  0.56449759244E+02 -0.56566069888E+03  0.60672831509E+03  0.17146258533E+03 0.  0.
        -24    2    3    3    0    0 -0.11557457154E+03  0.10618954681E+03 -0.46701500715E+03  0.49577247086E+03  0.55259610214E+02 0.  0.
          6    2    1    2  501    0  0.12474465354E+03 -0.56449759244E+02 -0.51535952811E+03  0.56033844663E+03  0.17215088631E+03 0.  0.
         24    2    5    5    0    0  0.67371374676E+02 -0.31470233345E+02 -0.12323443683E+03  0.16322404617E+03  0.76981069858E+02 0.  0.
          5    1    5    5  501    0  0.57373278864E+02 -0.24979525899E+02 -0.39212509128E+03  0.39711440046E+03  0.47000000000E+01 0. -1.
        -13    1    6    6    0    0  0.32891937677E+02  0.57239241707E+01 -0.39671967365E+01  0.33621146946E+02  0.00000000000E+00 0.  1.
         14    1    6    6    0    0  0.34479437000E+02 -0.37194157516E+02 -0.11926724009E+03  0.12960289923E+03  0.00000000000E+00 0. -1.
         -5    1    3    3    0  503 -0.91700819972E+01 -0.49739787570E+02 -0.98645691727E+02  0.11095584423E+03  0.47000000000E+01 0.  1.
         13    1    4    4    0    0 -0.76658625830E+02  0.45389792101E+02 -0.31719201428E+03  0.32946555520E+03  0.00000000000E+00 0. -1.
        -14    1    4    4    0    0 -0.38915945713E+02  0.60799754714E+02 -0.14982299287E+03  0.16630691566E+03  0.00000000000E+00 0.  1.
</event>
<event>
12    1  0.8500177E-002  0.2121428E+03  0.7818608E-02  0.1139937E+00
         21   -1    0    0  501  502  0.00000000000E+00  0.00000000000E+00  0.11411982878E+03  0.11411982878E+03  0.00000000000E+00 0.  1.
         21   -1    0    0  502  503 -0.00000000000E+00 -0.00000000000E+00 -0.61249975089E+03  0.61249975089E+03  0.00000000000E+00 0.  1.
         -6    2    1    2    0  503 -0.11936292357E+03  0.36349137602E+02 -0.31999705088E+02  0.21425733125E+03  0.17121172723E+03 0.  0.
        -24    2    3    3    0    0 -0.10178810238E+03  0.94199552570E+01  0.42041597010E+02  0.13339782582E+03  0.74685545533E+02 0.  0.
          6    2    1    2  501    0  0.11936292357E+03 -0.36349137602E+02 -0.46638021702E+03  0.51236224842E+03  0.17156864357E+03 0.  0.
         24    2    5    5    0    0  0.10765305427E+03 -0.86642931286E+02 -0.33621229645E+03  0.37224670944E+03  0.80204281458E+02 0.  0.
          5    1    5    5  501    0  0.11709869302E+02  0.50293793684E+02 -0.13016792056E+03  0.14011553899E+03  0.47000000000E+01 0. -1.
        -11    1    6    6    0    0  0.97367704128E+02 -0.33169030544E+02 -0.24926673233E+03  0.26965637067E+03  0.00000000000E+00 0.  1.
         12    1    6    6    0    0  0.10285350140E+02 -0.53473900742E+02 -0.86945564121E+02  0.10259033877E+03  0.00000000000E+00 0. -1.
         -5    1    3    3    0  503 -0.17574821188E+02  0.26929182345E+02 -0.74041302098E+02  0.80859505427E+02  0.47000000000E+01 0.  1.
         13    1    4    4    0    0 -0.20688278888E+02  0.33586975529E+02  0.26059669779E+02  0.47277861601E+02  0.00000000000E+00 0. -1.
        -14    1    4    4    0    0 -0.81099823493E+02 -0.24167020272E+02  0.15981927231E+02  0.86119964221E+02  0.00000000000E+00 0.  1.
</event>
<event>
12    1  0.8500177E-002  0.2296942E+03  0.7818608E-02  0.1126991E+00
         21   -1    0    0  501  502  0.00000000000E+00  0.00000000000E+00  0.18471491612E+03  0.18471491612E+03  0.00000000000E+00 0.  1.
         21   -1    0    0  502  503 -0.00000000000E+00 -0.00000000000E+00 -0.31459543023E+03  0.31459543023E+03  0.00000000000E+00 0.  1.
         -6    2    1    2    0  503 -0.12549041446E+03 -0.77934228109E+02  0.11962641145E+02  0.23000549506E+03  0.17589154313E+03 0.  0.
        -24    2    3    3    0    0 -0.15731150778E+03 -0.62826801018E+02  0.31196763518E+02  0.18959685988E+03  0.79244014385E+02 0.  0.
          6    2    1    2  501    0  0.12549041446E+03  0.77934228109E+02 -0.14184315525E+03  0.26930485128E+03  0.17488291569E+03 0.  0.
         24    2    5    5    0    0  0.10960964135E+03  0.71653962779E+02 -0.17846693662E+03  0.22862276618E+03  0.57178299121E+02 0.  0.
          5    1    5    5  501    0  0.15880773107E+02  0.62802653302E+01  0.36623781363E+02  0.40682085104E+02  0.47000000000E+01 0. -1.
        -11    1    6    6    0    0  0.57039024152E+02  0.10052282907E+02 -0.10170103958E+03  0.11703674687E+03  0.00000000000E+00 0.  1.
         12    1    6    6    0    0  0.52570617201E+02  0.61601679871E+02 -0.76765897040E+02  0.11158601930E+03  0.00000000000E+00 0. -1.
         -5    1    3    3    0  503  0.31821093323E+02 -0.15107427090E+02 -0.19234122373E+02  0.40408635179E+02  0.47000000000E+01 0.  1.
         11    1    4    4    0    0 -0.87326542436E+02 -0.89094925546E+01 -0.16318785097E+02  0.89283855307E+02  0.00000000000E+00 0. -1.
        -12    1    4    4    0    0 -0.69984965347E+02 -0.53917308464E+02  0.47515548616E+02  0.10031300458E+03  0.00000000000E+00 0.  1.
</event>
<event>
12    1  0.8500177E-002  0.2984382E+03  0.7818608E-02  0.1086088E+00
         21   -1    0    0  501  502  0.00000000000E+00  0.00000000000E+00  0.77431174602E+03  0.77431174602E+03  0.00000000000E+00 0. -1.
         21   -1    0    0  502  503 -0.00000000000E+00 -0.00000000000E+00 -0.14339525481E+03  0.14339525481E+03  0.00000000000E+00 0. -1.
         -6    2    1    2    0  503 -0.24415207690E+03 -0.27350640216E+01  0.52047655436E+03  0.59996768817E+03  0.17160322251E+03 0.  0.
        -24    2    3    3    0    0 -0.63447200852E+02 -0.19505938744E+02  0.28142021213E+03  0.29979184099E+03  0.79194590655E+02 0.  0.
          6    2    1    2  501    0  0.24415207690E+03  0.27350640216E+01  0.11043993684E+03  0.31773931266E+03  0.17071489077E+03 0.  0.
         24    2    5    5    0    0  0.67714177079E+02  0.44173244929E+02  0.65516748641E+02  0.13095698435E+03  0.79503471956E+02 0.  0.
          5    1    5    5  501    0  0.17643789982E+03 -0.41438180907E+02  0.44923188200E+02  0.18678232831E+03  0.47000000000E+01 0. -1.
        -11    1    6    6    0    0  0.44166681505E+02  0.60429091189E+02  0.20481718291E+02  0.77600719077E+02  0.00000000000E+00 0.  1.
         12    1    6    6    0    0  0.23547495574E+02 -0.16255846260E+02  0.45035030350E+02  0.53356265275E+02  0.00000000000E+00 0. -1.
         -5    1    3    3    0  503 -0.18070487605E+03  0.16770874722E+02  0.23905634224E+03  0.30017584718E+03  0.47000000000E+01 0.  1.
         11    1    4    4    0    0 -0.55081003354E+02 -0.31036091886E+02  0.10336144364E+03  0.12116411994E+03  0.00000000000E+00 0. -1.
        -12    1    4    4    0    0 -0.83661974982E+01  0.11530153142E+02  0.17805876849E+03  0.17862772105E+03  0.00000000000E+00 0.  1.
</event>
<event>
12    1  0.8500177E-002  0.2817795E+03  0.7818608E-02  0.1094800E+00
         21   -1    0    0  503  502  0.00000000000E+00  0.00000000000E+00  0.12765577112E+04  0.12765577112E+04  0.00000000000E+00 0. -1.
         21   -1    0    0  501  503 -0.00000000000E+00 -0.00000000000E+00 -0.69772624274E+02  0.69772624274E+02  0.00000000000E+00 0. -1.
          6    2    1    2  501    0 -0.18138819816E+03 -0.12896274512E+03  0.38027822492E+03  0.47329820414E+03  0.17281954066E+03 0.  0.
         24    2    3    3    0    0 -0.12017868905E+03 -0.11520189823E+03  0.35809619269E+03  0.40658915328E+03  0.96785648139E+02 0.  0.
         -6    2    1    2    0  502  0.18138819816E+03  0.12896274512E+03  0.82650686205E+03  0.87303213138E+03  0.17186751100E+03 0.  0.
        -24    2    5    5    0    0  0.17083807235E+03  0.15798949440E+03  0.77979886949E+03  0.81683974847E+03  0.70672275414E+02 0.  0.
          5    1    3    3  501    0 -0.61209509113E+02 -0.13760846892E+02  0.22182032224E+02  0.66709050860E+02  0.47000000000E+01 0. -1.
        -11    1    4    4    0    0 -0.99025500356E+02 -0.30827944718E+02  0.16630843705E+03  0.19599721460E+03  0.00000000000E+00 0.  1.
         12    1    4    4    0    0 -0.21153188695E+02 -0.84373953509E+02  0.19178775564E+03  0.21059193868E+03  0.00000000000E+00 0. -1.
         -5    1    5    5    0  502  0.10550125819E+02 -0.29026749277E+02  0.46707992563E+02  0.56192382915E+02  0.47000000000E+01 0.  1.
         13    1    6    6    0    0  0.10041154388E+03  0.91012620497E+02  0.33158928494E+03  0.35821394322E+03  0.00000000000E+00 0. -1.
        -14    1    6    6    0    0  0.70426528466E+02  0.66976873898E+02  0.44820958455E+03  0.45862580524E+03  0.00000000000E+00 0.  1.
</event>
<event>
12    1  0.8500177E-002  0.2202321E+03  0.7818608E-02  0.1133793E+00
         21   -1    0    0  501  502  0.00000000000E+00  0.00000000000E+00  0.19743249569E+03  0.19743249569E+03  0.00000000000E+00 0.  1.
         21   -1    0    0  502  503 -0.00000000000E+00 -0.00000000000E+00 -0.35168462953E+03  0.35168462953E+03  0.00000000000E+00 0.  1.
         -6    2    1    2    0  503  0.12091388391E+02  0.13706295909E+03 -0.22827832629E+03  0.31719582107E+03  0.17195853634E+03 0.  0.
        -24    2    3    3    0    0 -0.16775249733E+02  0.10519907119E+03 -0.63750710048E+02  0.14707816573E+03  0.78864315259E+02 0.  0.
          6    2    1    2  501    0 -0.12091388391E+02 -0.13706295909E+03  0.74026192454E+02  0.23192130415E+03  0.17139182513E+03 0.  0.
         24    2    5    5    0    0 -0.86304846242E+01 -0.86808103159E+02  0.11677711790E+03  0.16568490913E+03  0.78768406157E+02 0.  0.
          5    1    5    5  501    0 -0.34609037665E+01 -0.50254855928E+02 -0.42750925445E+02  0.66236395023E+02  0.47000000000E+01 0. -1.
        -13    1    6    6    0    0  0.28230765199E+02 -0.61757514004E+02  0.93057101108E+02  0.11519804992E+03  0.00000000000E+00 0.  1.
         14    1    6    6    0    0 -0.36861249823E+02 -0.25050589155E+02  0.23720016790E+02  0.50486859202E+02  0.00000000000E+00 0. -1.
         -5    1    3    3    0  503  0.28866638124E+02  0.31863887897E+02 -0.16452761624E+03  0.17011765533E+03  0.47000000000E+01 0.  1.
         11    1    4    4    0    0 -0.89450568701E+01  0.37608785359E+02  0.16354758297E+02  0.41975146188E+02  0.00000000000E+00 0. -1.
        -12    1    4    4    0    0 -0.78301928630E+01  0.67590285831E+02 -0.80105468345E+02  0.10510301955E+03  0.00000000000E+00 0.  1.
</event>
<event>
12    1  0.8500177E-002  0.2019419E+03  0.7818608E-02  0.1148239E+00
         21   -1    0    0  503  502  0.00000000000E+00  0.00000000000E+00  0.47211981435E+02  0.47211981435E+02  0.00000000000E+00 0.  1.
         21   -1    0    0  501  503 -0.00000000000E+00 -0.00000000000E+00 -0.99120968676E+03  0.99120968676E+03  0.00000000000E+00 0.  1.
          6    2    1    2  501    0 -0.69286604506E+02  0.78040023746E+02 -0.66069525887E+03  0.69086813131E+03  0.17288629472E+03 0.  0.
         24    2    3    3    0    0 -0.11521441949E+03  0.71357666042E+02 -0.52515814584E+03  0.54752791678E+03  0.75029744434E+02 0.  0.
         -6    2    1    2    0  502  0.69286604506E+02 -0.78040023746E+02 -0.28330244646E+03  0.34755353688E+03  0.17216941064E+03 0.  0.
        -24    2    5    5    0    0  0.63075363805E+02 -0.32770633413E+02 -0.65980262926E+02  0.12542988063E+03  0.79541460421E+02 0.  0.
          5    1    3    3  501    0  0.45927814987E+02  0.66823577042E+01 -0.13553711303E+03  0.14334021453E+03  0.47000000000E+01 0. -1.
        -13    1    4    4    0    0 -0.43311642702E+02  0.68856957814E+02 -0.23901158348E+03  0.25247517912E+03  0.00000000000E+00 0.  1.
         14    1    4    4    0    0 -0.71902776790E+02  0.25007082286E+01 -0.28614656236E+03  0.29505273766E+03  0.00000000000E+00 0. -1.
         -5    1    5    5    0  502  0.62112407012E+01 -0.45269390334E+02 -0.21732218353E+03  0.22212365625E+03  0.47000000000E+01 0.  1.
         11    1    6    6    0    0 -0.39489308355E+01 -0.27038163017E+02  0.48437774595E+01  0.27751008886E+02  0.00000000000E+00 0. -1.
        -12    1    6    6    0    0  0.67024294641E+02 -0.57324703954E+01 -0.70824040386E+02  0.97678871746E+02  0.00000000000E+00 0.  1.
</event>
<event>
12    1  0.8500177E-002  0.2563319E+03  0.7818608E-02  0.1110022E+00
         21   -1    0    0  503  502  0.00000000000E+00  0.00000000000E+00  0.23277879357E+03  0.23277879357E+03  0.00000000000E+00 0. -1.
         21   -1    0    0  501  503 -0.00000000000E+00 -0.00000000000E+00 -0.36962637084E+03  0.36962637084E+03  0.00000000000E+00 0. -1.
          6    2    1    2  501    0  0.18900364096E+03  0.14559523932E+02 -0.21912293352E+03  0.33722529296E+03  0.17254472516E+03 0.  0.
         24    2    3    3    0    0  0.13154830630E+03  0.20505079304E+02 -0.23037797021E+03  0.27818944825E+03  0.81178474916E+02 0.  0.
         -6    2    1    2    0  502 -0.18900364096E+03 -0.14559523932E+02  0.82275356254E+02  0.26517987146E+03  0.16618295323E+03 0.  0.
        -24    2    5    5    0    0 -0.12515262599E+03  0.48167136038E+02  0.23816229393E+02  0.15816984624E+03  0.80419118933E+02 0.  0.
          5    1    3    3  501    0  0.57455334657E+02 -0.59455553721E+01  0.11255036690E+02  0.59035844705E+02  0.47000000000E+01 0. -1.
        -13    1    4    4    0    0  0.21118924502E+02 -0.30401076704E+00 -0.11577393279E+03  0.11768476922E+03  0.00000000000E+00 0.  1.
         14    1    4    4    0    0  0.11042938180E+03  0.20809090071E+02 -0.11460403743E+03  0.16050467903E+03  0.00000000000E+00 0. -1.
         -5    1    5    5    0  502 -0.63851014967E+02 -0.62726659970E+02  0.58459126861E+02  0.10701002522E+03  0.47000000000E+01 0.  1.
         11    1    6    6    0    0 -0.83527159328E+02 -0.51294427900E+01  0.32935163178E+02  0.89932321789E+02  0.00000000000E+00 0. -1.
        -12    1    6    6    0    0 -0.41625466664E+02  0.53296578828E+02 -0.91189337850E+01  0.68237524451E+02  0.00000000000E+00 0.  1.
</event>
<event>
12    1  0.8500177E-002  0.1982902E+03  0.7818608E-02  0.1151327E+00
         21   -1    0    0  503  502  0.00000000000E+00  0.00000000000E+00  0.81749074690E+03  0.81749074690E+03  0.00000000000E+00 0.  1.
         21   -1    0    0  501  503 -0.00000000000E+00 -0.00000000000E+00 -0.56265607771E+02  0.56265607771E+02  0.00000000000E+00 0.  1.
          6    2    1    2  501    0 -0.36717880207E+02 -0.92397561092E+02  0.54812448745E+03  0.58267061146E+03  0.17081883881E+03 0.  0.
         24    2    3    3    0    0  0.35404076739E+02 -0.85764285946E+02  0.38862762267E+03  0.40743671950E+03  0.79776499727E+02 0.  0.
         -6    2    1    2    0  502  0.36717880207E+02  0.92397561092E+02  0.21310065168E+03  0.29108574321E+03  0.17156197170E+03 0.  0.
        -24    2    5    5    0    0 -0.16711119655E+02  0.11339684206E+03  0.13819825306E+03  0.19659718757E+03  0.80084903093E+02 0.  0.
          5    1    3    3  501    0 -0.72121956946E+02 -0.66332751465E+01  0.15949686479E+03  0.17523389196E+03  0.47000000000E+01 0. -1.
        -13    1    4    4    0    0 -0.24829462174E+02 -0.18166291565E+02  0.76874948751E+02  0.82802621254E+02  0.00000000000E+00 0.  1.
         14    1    4    4    0    0  0.60233538913E+02 -0.67597994380E+02  0.31175267391E+03  0.32463409825E+03  0.00000000000E+00 0. -1.
         -5    1    5    5    0  502  0.53428999862E+02 -0.20999280972E+02  0.74902398624E+02  0.94488555641E+02  0.47000000000E+01 0.  1.
         11    1    6    6    0    0 -0.12803671344E+02  0.12289773659E+03  0.13937027962E+03  0.18625751663E+03  0.00000000000E+00 0. -1.
        -12    1    6    6    0    0 -0.39074483108E+01 -0.95008945230E+01 -0.11720265634E+01  0.10339670948E+02  0.00000000000E+00 0.  1.
</event>
<event>
12    1  0.8500177E-002  0.2201972E+03  0.7818608E-02  0.1134076E+00
         21   -1    0    0  501  502  0.00000000000E+00  0.00000000000E+00  0.72512731418E+02  0.72512731418E+02  0.00000000000E+00 0. -1.
         21   -1    0    0  502  503 -0.00000000000E+00 -0.00000000000E+00 -0.96388600799E+03  0.96388600799E+03  0.00000000000E+00 0. -1.
         -6    2    1    2    0  503  0.10083922217E+03 -0.89222404198E+02 -0.73386168947E+03  0.76566513298E+03  0.17193292427E+03 0.  0.
        -24    2    3    3    0    0  0.98835503042E+02 -0.52937497503E+02 -0.70734478686E+03  0.72043410968E+03  0.78216517412E+02 0.  0.
          6    2    1    2  501    0 -0.10083922217E+03  0.89222404198E+02 -0.15751158710E+03  0.27073360643E+03  0.17423432337E+03 0.  0.
         24    2    5    5    0    0 -0.32153017006E+02  0.11500538901E+03 -0.81878042421E+02  0.16525811086E+03  0.79662873213E+02 0.  0.
          5    1    5    5  501    0 -0.68686205160E+02 -0.25782984816E+02 -0.75633544675E+02  0.10547549557E+03  0.47000000000E+01 0. -1.
        -13    1    6    6    0    0  0.17224532061E+02  0.35134214053E+02 -0.55159836533E+02  0.67629173203E+02  0.00000000000E+00 0.  1.
         14    1    6    6    0    0 -0.49377549067E+02  0.79871174961E+02 -0.26718205888E+02  0.97628937654E+02  0.00000000000E+00 0. -1.
         -5    1    3    3    0  503  0.20037191237E+01 -0.36284906695E+02 -0.26516902614E+02  0.45231023296E+02  0.47000000000E+01 0.  1.
         13    1    4    4    0    0  0.61086479357E+02 -0.62621037814E+02 -0.34178849059E+03  0.35280635572E+03  0.00000000000E+00 0. -1.
        -14    1    4    4    0    0  0.37749023685E+02  0.96835403105E+01 -0.36555629627E+03  0.36762775397E+03  0.00000000000E+00 0.  1.
</event>
<event>
12    1  0.8500177E-002  0.2134297E+03  0.7818608E-02  0.1138961E+00
         21   -1    0    0  501  502  0.00000000000E+00  0.00000000000E+00  0.15360610341E+03  0.15360610341E+03  0.00000000000E+00 0. -1.
         21   -1    0    0  502  503 -0.00000000000E+00 -0.00000000000E+00 -0.29695990382E+03  0.29695990382E+03  0.00000000000E+00 0. -1.
         -6    2    1    2    0  503  0.10141548291E+03  0.74309047840E+02 -0.84677508268E+02  0.22921755324E+03  0.17194031390E+03 0.  0.
        -24    2    3    3    0    0  0.34101267762E+02  0.10658539728E+03 -0.51872736583E+02  0.14754008181E+03  0.80956479451E+02 0.  0.
          6    2    1    2  501    0 -0.10141548291E+03 -0.74309047840E+02 -0.58676292138E+02  0.22134845399E+03  0.17246824652E+03 0.  0.
         24    2    5    5    0    0 -0.13288044389E+03 -0.73911938246E+02 -0.73095778875E+02  0.18641690574E+03  0.79297432952E+02 0.  0.
          5    1    5    5  501    0  0.31464960977E+02 -0.39710959473E+00  0.14419486737E+02  0.34931548249E+02  0.47000000000E+01 0. -1.
        -11    1    6    6    0    0 -0.63836687724E+02 -0.31469404808E+02 -0.77537260603E+02  0.10524957444E+03  0.00000000000E+00 0.  1.
         12    1    6    6    0    0 -0.69043756164E+02 -0.42442533437E+02  0.44414817279E+01  0.81167331296E+02  0.00000000000E+00 0. -1.
         -5    1    3    3    0  503  0.67314215149E+02 -0.32276349436E+02 -0.32804771685E+02  0.81677471431E+02  0.47000000000E+01 0.  1.
         13    1    4    4    0    0  0.24260629921E+02  0.77928008011E+02 -0.73881837930E+02  0.11009032007E+03  0.00000000000E+00 0. -1.
        -14    1    4    4    0    0  0.98406378412E+01  0.28657389265E+02  0.22009101347E+02  0.37449761744E+02  0.00000000000E+00 0.  1.
</event>
<event>
12    1  0.8500177E-002  0.1972231E+03  0.7818608E-02  0.1152379E+00
         21   -1    0    0  503  502  0.00000000000E+00  0.00000000000E+00  0.28912591486E+03  0.28912591486E+03  0.00000000000E+00 0.  1.
         21   -1    0    0  501  503 -0.00000000000E+00 -0.00000000000E+00 -0.55706471831E+03  0.55706471831E+03  0.00000000000E+00 0.  1.
          6    2    1    2  501    0 -0.68717626586E+02 -0.64382757967E+02 -0.50293338595E+03  0.54022118440E+03  0.17329075465E+03 0.  0.
         24    2    3    3    0    0 -0.88146702424E+02 -0.36366764468E+02 -0.48680143735E+03  0.50221178233E+03  0.78413342006E+02 0.  0.
         -6    2    1    2    0  502  0.68717626586E+02  0.64382757967E+02  0.23499458250E+03  0.30596944878E+03  0.17183596263E+03 0.  0.
        -24    2    5    5    0    0  0.10175395776E+03  0.13150720655E+02  0.12565317007E+03  0.18069472947E+03  0.79593069652E+02 0.  0.
          5    1    3    3  501    0  0.19429075838E+02 -0.28015993499E+02 -0.16131948598E+02  0.38009402063E+02  0.47000000000E+01 0. -1.
        -11    1    4    4    0    0 -0.11414297728E+02  0.19040975727E+02 -0.17384415766E+03  0.17525591603E+03  0.00000000000E+00 0.  1.
         12    1    4    4    0    0 -0.76732404696E+02 -0.55407740195E+02 -0.31295727969E+03  0.32695586631E+03  0.00000000000E+00 0. -1.
         -5    1    5    5    0  502 -0.33036331176E+02  0.51232037312E+02  0.10934141243E+03  0.12527471930E+03  0.47000000000E+01 0.  1.
         13    1    6    6    0    0  0.62823918560E+02  0.37736458160E+02  0.40103435019E+02  0.83541429950E+02  0.00000000000E+00 0. -1.
        -14    1    6    6    0    0  0.38930039202E+02 -0.24585737505E+02  0.85549735052E+02  0.97153299524E+02  0.00000000000E+00 0.  1.
</event>
<event>
12    1  0.8500177E-002  0.2027449E+03  0.7818608E-02  0.1147787E+00
         21   -1    0    0  503  502  0.00000000000E+00  0.00000000000E+00  0.16728269161E+03  0.16728269161E+03  0.00000000000E+00 0.  1.
         21   -1    0    0  501  503 -0.00000000000E+00 -0.00000000000E+00 -0.25095371162E+03  0.25095371162E+03  0.00000000000E+00 0.  1.
          6    2    1    2  501    0 -0.11193391517E+02  0.10501824757E+03 -0.77482723275E+02  0.21704626025E+03  0.17306467678E+03 0.  0.
         24    2    3    3    0    0  0.43799269305E+02  0.15210034903E+02 -0.55285320134E+02  0.10932197092E+03  0.82128591550E+02 0.  0.
         -6    2    1    2    0  502  0.11193391517E+02 -0.10501824757E+03 -0.61882967325E+01  0.20119014298E+03  0.17112876520E+03 0.  0.
        -24    2    5    5    0    0 -0.61046957752E+02 -0.72929676832E+02  0.75709070104E+01  0.12081757227E+03  0.74122185089E+02 0.  0.
          5    1    3    3  501    0 -0.54992660823E+02  0.89808212664E+02 -0.22197403141E+02  0.10772428933E+03  0.47000000000E+01 0. -1.
        -11    1    4    4    0    0  0.13674679372E+02 -0.24027614222E+02 -0.53028450113E+02  0.59802505153E+02  0.00000000000E+00 0.  1.
         12    1    4    4    0    0  0.30124589933E+02  0.39237649126E+02 -0.22568700211E+01  0.49519465767E+02  0.00000000000E+00 0. -1.
         -5    1    5    5    0  502  0.72240349270E+02 -0.32088570735E+02 -0.13759203743E+02  0.80372570707E+02  0.47000000000E+01 0.  1.
         13    1    6    6    0    0  0.14179187415E+01 -0.24868182707E+02 -0.25226059812E+02  0.35451249602E+02  0.00000000000E+00 0. -1.
        -14    1    6    6    0    0 -0.62464876494E+02 -0.48061494124E+02  0.32796966823E+02  0.85366322666E+02  0.00000000000E+00 0.  1.
</event>
<event>
12    1  0.8500177E-002  0.2217184E+03  0.7818608E-02  0.1132816E+00
         21   -1    0    0  503  502  0.00000000000E+00  0.00000000000E+00  0.33784126598E+03  0.33784126598E+03  0.00000000000E+00 0. -1.
         21   -1    0    0  501  503 -0.00000000000E+00 -0.00000000000E+00 -0.31712653672E+03  0.31712653672E+03  0.00000000000E+00 0.  1.
          6    2    1    2  501    0 -0.41699396171E+02  0.13362514926E+03 -0.23105494694E+03  0.32022718852E+03  0.17194343141E+03 0.  0.
         24    2    3    3    0    0  0.13775879464E+02  0.16650750972E+01 -0.92357741561E+02  0.12085323797E+03  0.76700752087E+02 0.  0.
         -6    2    1    2    0  502  0.41699396171E+02 -0.13362514926E+03  0.25176967621E+03  0.33474061418E+03  0.17049571481E+03 0.  0.
        -24    2    5    5    0    0 -0.15723527632E+02 -0.12796022423E+03  0.22429568654E+03  0.27065946514E+03  0.79542081726E+02 0.  0.
          5    1    3    3  501    0 -0.55475275635E+02  0.13196007416E+03 -0.13869720538E+03  0.19937395055E+03  0.47000000000E+01 0. -1.
        -11    1    4    4    0    0 -0.26076513777E+02 -0.96652844952E+01 -0.66330793203E+02  0.71924796990E+02  0.00000000000E+00 0.  1.
         12    1    4    4    0    0  0.39852393241E+02  0.11330359592E+02 -0.26026948358E+02  0.48928440976E+02  0.00000000000E+00 0. -1.
         -5    1    5    5    0  502  0.57422923803E+02 -0.56649250318E+01  0.27473989671E+02  0.64081149039E+02  0.47000000000E+01 0.  1.
         11    1    6    6    0    0  0.25569683965E+01 -0.90795633327E+02  0.81694315590E+02  0.12216524186E+03  0.00000000000E+00 0. -1.
        -12    1    6    6    0    0 -0.18280496028E+02 -0.37164590899E+02  0.14260137095E+03  0.14849422328E+03  0.00000000000E+00 0.  1.
</event>
<event>
12    1  0.8500177E-002  0.1875534E+03  0.7818608E-02  0.1161276E+00
         21   -1    0    0  501  502  0.00000000000E+00  0.00000000000E+00  0.60307459385E+02  0.60307459385E+02  0.00000000000E+00 0. -1.
         21   -1    0    0  502  503 -0.00000000000E+00 -0.00000000000E+00 -0.59281858330E+03  0.59281858330E+03  0.00000000000E+00 0. -1.
         -6    2    1    2    0  503 -0.66525689915E+02  0.16014072494E+02 -0.32050810014E+03  0.37006851880E+03  0.17188120437E+03 0.  0.
        -24    2    3    3    0    0 -0.40545482089E+02 -0.48382657511E+02 -0.25521567140E+03  0.27463738508E+03  0.79409298482E+02 0.  0.
          6    2    1    2  501    0  0.66525689915E+02 -0.16014072494E+02 -0.21200302377E+03  0.28305752388E+03  0.17462577645E+03 0.  0.
         24    2    5    5    0    0  0.30856964073E+02 -0.61503343862E+02 -0.64244537520E+02  0.12432443951E+03  0.81205862604E+02 0.  0.
          5    1    5    5  501    0  0.35668725841E+02  0.45489271368E+02 -0.14775848625E+03  0.15873308437E+03  0.47000000000E+01 0. -1.
        -13    1    6    6    0    0  0.16298152165E+02 -0.16017866329E+02 -0.72358728253E+02  0.75881403256E+02  0.00000000000E+00 0.  1.
         14    1    6    6    0    0  0.14558811908E+02 -0.45485477533E+02  0.81141907333E+01  0.48443036258E+02  0.00000000000E+00 0. -1.
         -5    1    3    3    0  503 -0.25980207825E+02  0.64396730004E+02 -0.65292428736E+02  0.95431133725E+02  0.47000000000E+01 0.  1.
         13    1    4    4    0    0 -0.22789016255E+02 -0.33059435256E+02 -0.35267188037E+02  0.53441931789E+02  0.00000000000E+00 0. -1.
        -14    1    4    4    0    0 -0.17756465835E+02 -0.15323222254E+02 -0.21994848337E+03  0.22119545329E+03  0.00000000000E+00 0.  1.
</event>
<event>
12    1  0.8500177E-002  0.3124659E+03  0.7818608E-02  0.1079212E+00
         21   -1    0    0  503  502  0.00000000000E+00  0.00000000000E+00  0.81144418067E+03  0.81144418067E+03  0.00000000000E+00 0.  1.
         21   -1    0    0  501  503 -0.00000000000E+00 -0.00000000000E+00 -0.13118602835E+03  0.13118602835E+03  0.00000000000E+00 0. -1.
          6    2    1    2  501    0  0.26034125634E+03  0.11974765422E+02  0.20382301120E+03  0.37306668812E+03  0.17237740320E+03 0.  0.
         24    2    3    3    0    0  0.10593577862E+03  0.66289426975E+02  0.89868006225E+02  0.17356990327E+03  0.80209572105E+02 0.  0.
         -6    2    1    2    0  502 -0.26034125634E+03 -0.11974765422E+02  0.47643514112E+03  0.56956352089E+03  0.17173000869E+03 0.  0.
        -24    2    5    5    0    0 -0.17863645607E+03 -0.65495852995E+02  0.25775467651E+03  0.33001516084E+03  0.79194967813E+02 0.  0.
          5    1    3    3  501    0  0.15440547772E+03 -0.54314661553E+02  0.11395500498E+03  0.19949678486E+03  0.47000000000E+01 0. -1.
        -11    1    4    4    0    0  0.82739481827E+02  0.69584287946E+02  0.10071268865E+03  0.14775263326E+03  0.00000000000E+00 0.  1.
         12    1    4    4    0    0  0.23196296792E+02 -0.32948609707E+01 -0.10844682421E+02  0.25817270004E+02  0.00000000000E+00 0. -1.
         -5    1    5    5    0  502 -0.81704800266E+02  0.53521087573E+02  0.21868046461E+03  0.23954836005E+03  0.47000000000E+01 0.  1.
         11    1    6    6    0    0 -0.91749611023E+02 -0.32351734953E+01  0.76106391251E+02  0.11925032604E+03  0.00000000000E+00 0. -1.
        -12    1    6    6    0    0 -0.86886845047E+02 -0.62260679500E+02  0.18164828526E+03  0.21076483481E+03  0.00000000000E+00 0.  1.
</event>
<event>
12    1  0.8500177E-002  0.2179218E+03  0.7818608E-02  0.1136319E+00
         21   -1    0    0  501  502  0.00000000000E+00  0.00000000000E+00  0.55846719890E+03  0.55846719890E+03  0.00000000000E+00 0.  1.
         21   -1    0    0  502  503 -0.00000000000E+00 -0.00000000000E+00 -0.10470451273E+03  0.10470451273E+03  0.00000000000E+00 0.  1.
         -6    2    1    2    0  503  0.10219882523E+03  0.85368287002E+02  0.78721655420E+02  0.23170453852E+03  0.17250376760E+03 0.  0.
        -24    2    3    3    0    0  0.90885443202E+02  0.12593537990E+03  0.64649202628E+02  0.18705248855E+03  0.81787715320E+02 0.  0.
          6    2    1    2  501    0 -0.10219882523E+03 -0.85368287002E+02  0.37504103075E+03  0.43146717311E+03  0.16666074049E+03 0.  0.
         24    2    5    5    0    0 -0.11046647345E+03 -0.64105562225E+02  0.37831360717E+03  0.40794575248E+03  0.83583411775E+02 0.  0.
          5    1    5    5  501    0  0.82676482228E+01 -0.21262724777E+02 -0.32725764248E+01  0.23521420632E+02  0.47000000000E+01 0. -1.
        -11    1    6    6    0    0 -0.73084147342E+02 -0.78438120582E+02  0.31771898156E+03  0.33531952314E+03  0.00000000000E+00 0.  1.
         12    1    6    6    0    0 -0.37382326112E+02  0.14332558357E+02  0.60594625613E+02  0.72626229337E+02  0.00000000000E+00 0. -1.
         -5    1    3    3    0  503  0.11313382028E+02 -0.40567092894E+02  0.14072452793E+02  0.44652049969E+02  0.47000000000E+01 0.  1.
         11    1    4    4    0    0  0.98483130206E+02  0.76912256595E+02  0.37306290102E+02  0.13040775065E+03  0.00000000000E+00 0. -1.
        -12    1    4    4    0    0 -0.75976870031E+01  0.49023123301E+02  0.27342912526E+02  0.56644737897E+02  0.00000000000E+00 0.  1.
</event>
<event>
12    1  0.8500177E-002  0.2374070E+03  0.7818608E-02  0.1121613E+00
         21   -1    0    0  503  502  0.00000000000E+00  0.00000000000E+00  0.26493024190E+04  0.26493024190E+04  0.00000000000E+00 0. -1.
         21   -1    0    0  501  503 -0.00000000000E+00 -0.00000000000E+00 -0.23969764303E+02  0.23969764303E+02  0.00000000000E+00 0.  1.
          6    2    1    2  501    0 -0.70114589040E+02 -0.14680589523E+03  0.17632505091E+04  0.17790978793E+04  0.17224656736E+03 0.  0.
         24    2    3    3    0    0  0.62435490284E+01 -0.97096046792E+02  0.64967583051E+03  0.66179206218E+03  0.80146270035E+02 0.  0.
         -6    2    1    2    0  502  0.70114589040E+02  0.14680589523E+03  0.86208214568E+03  0.89417430405E+03  0.17289891163E+03 0.  0.
        -24    2    5    5    0    0  0.34235716667E+02  0.13985621232E+03  0.42249110558E+03  0.45304171161E+03  0.77564255561E+02 0.  0.
          5    1    3    3  501    0 -0.76358138068E+02 -0.49709848437E+02  0.11135746785E+04  0.11173058171E+04  0.47000000000E+01 0. -1.
        -11    1    4    4    0    0 -0.17950129390E+02  0.69313279971E+01  0.96193882732E+02  0.98099508296E+02  0.00000000000E+00 0.  1.
         12    1    4    4    0    0  0.24193678418E+02 -0.10402737479E+03  0.55348194778E+03  0.56369255388E+03  0.00000000000E+00 0. -1.
         -5    1    5    5    0  502  0.35878872373E+02  0.69496829112E+01  0.43959104010E+03  0.44113259244E+03  0.47000000000E+01 0.  1.
         11    1    6    6    0    0 -0.15003355680E+02  0.53053278888E+01  0.83702850617E+02  0.85202197079E+02  0.00000000000E+00 0. -1.
        -12    1    6    6    0    0  0.49239072347E+02  0.13455088443E+03  0.33878825497E+03  0.36783951453E+03  0.00000000000E+00 0.  1.
</event>
<event>
12    1  0.8500177E-002  0.1863495E+03  0.7818608E-02  0.1163785E+00
         21   -1    0    0  503  502  0.00000000000E+00  0.00000000000E+00  0.14084193435E+04  0.14084193435E+04  0.00000000000E+00 0. -1.
         21   -1    0    0  501  503 -0.00000000000E+00 -0.00000000000E+00 -0.29750785462E+02  0.29750785462E+02  0.00000000000E+00 0. -1.
          6    2    1    2  501    0  0.14909464350E+02 -0.69705614303E+02  0.37391066600E+03  0.41777424507E+03  0.17217714396E+03 0.  0.
         24    2    3    3    0    0  0.43262562953E+02 -0.10119244930E+03  0.33065189695E+03  0.35703932860E+03  0.77684258778E+02 0.  0.
         -6    2    1    2    0  502 -0.14909464350E+02  0.69705614303E+02  0.10047578920E+04  0.10203958839E+04  0.16305880367E+03 0.  0.
        -24    2    5    5    0    0  0.32262321048E+02  0.17494159327E+02  0.77826863654E+03  0.78318145300E+03  0.79524931475E+02 0.  0.
          5    1    3    3  501    0 -0.28353098603E+02  0.31486835002E+02  0.43258769046E+02  0.60734916467E+02  0.47000000000E+01 0. -1.
        -13    1    4    4    0    0  0.52518248482E+01 -0.50208182654E+02  0.24619377242E+03  0.25131616909E+03  0.00000000000E+00 0.  1.
         14    1    4    4    0    0  0.38010738105E+02 -0.50984266651E+02  0.84458124533E+02  0.10572315951E+03  0.00000000000E+00 0. -1.
         -5    1    5    5    0  502 -0.47171785398E+02  0.52211454976E+02  0.22648925550E+03  0.23721443090E+03  0.47000000000E+01 0.  1.
         11    1    6    6    0    0 -0.12706421658E+02  0.83532214302E+01  0.55685507783E+03  0.55706266000E+03  0.00000000000E+00 0. -1.
        -12    1    6    6    0    0  0.44968742706E+02  0.91409378966E+01  0.22141355871E+03  0.22611879299E+03  0.00000000000E+00 0.  1.
</event>
<event>
12    1  0.8500177E-002  0.2021415E+03  0.7818608E-02  0.1148190E+00
         21   -1    0    0  503  502  0.00000000000E+00  0.00000000000E+00  0.54768706614E+03  0.54768706614E+03  0.00000000000E+00 0. -1.
         21   -1    0    0  501  503 -0.00000000000E+00 -0.00000000000E+00 -0.11802150144E+03  0.11802150144E+03  0.00000000000E+00 0. -1.
          6    2    1    2  501    0  0.10062359152E+03  0.35573891897E+02  0.11556810398E+02  0.20129913979E+03  0.17028556855E+03 0.  0.
         24    2    3    3    0    0  0.47316082624E+01  0.63735450033E+02  0.10127650232E+02  0.10123676769E+03  0.77857036460E+02 0.  0.
         -6    2    1    2    0  502 -0.10062359152E+03 -0.35573891897E+02  0.41810875431E+03  0.46440942779E+03  0.17166996604E+03 0.  0.
        -24    2    5    5    0    0 -0.13253949296E+03 -0.11170493324E+02  0.27841259273E+03  0.31897470640E+03  0.80868995418E+02 0.  0.
          5    1    3    3  501    0  0.95891983263E+02 -0.28161558136E+02  0.14291601656E+01  0.10006237210E+03  0.47000000000E+01 0. -1.
        -13    1    4    4    0    0 -0.28531415367E+02  0.14606140820E+02  0.24316994030E+02  0.40233036316E+02  0.00000000000E+00 0.  1.
         14    1    4    4    0    0  0.33263023630E+02  0.49129309212E+02 -0.14189343798E+02  0.61003731378E+02  0.00000000000E+00 0. -1.
         -5    1    5    5    0  502  0.31915901435E+02 -0.24403398573E+02  0.13969616158E+03  0.14543472139E+03  0.47000000000E+01 0.  1.
         11    1    6    6    0    0 -0.20217006855E+02  0.34065756308E+01  0.13342202057E+03  0.13498802797E+03  0.00000000000E+00 0. -1.
        -12    1    6    6    0    0 -0.11232248611E+03 -0.14577068954E+02  0.14499057216E+03  0.18398667843E+03  0.00000000000E+00 0.  1.
</event>
<event>
12    1  0.8500177E-002  0.1950229E+03  0.7818608E-02  0.1155004E+00
         21   -1    0    0  503  502  0.00000000000E+00  0.00000000000E+00  0.76553336379E+03  0.76553336379E+03  0.00000000000E+00 0.  1.
         21   -1    0    0  501  503 -0.00000000000E+00 -0.00000000000E+00 -0.12567592804E+03  0.12567592804E+03  0.00000000000E+00 0.  1.
          6    2    1    2  501    0 -0.55836768494E+02  0.60610908932E+02 -0.27718064298E+02  0.19698278110E+03  0.17675547506E+03 0.  0.
         24    2    3    3    0    0 -0.91325320499E+02  0.23030564603E+02 -0.58483738898E+02  0.13664758128E+03  0.79884245535E+02 0.  0.
         -6    2    1    2    0  502  0.55836768494E+02 -0.60610908932E+02  0.66757550004E+03  0.69422651074E+03  0.17176138376E+03 0.  0.
        -24    2    5    5    0    0  0.64723761518E+02 -0.10386322366E+03  0.51196892067E+03  0.53240797373E+03  0.79808146347E+02 0.  0.
          5    1    3    3  501    0  0.35488552005E+02  0.37580344329E+02  0.30765674600E+02  0.60335199817E+02  0.47000000000E+01 0. -1.
        -11    1    4    4    0    0 -0.33537238454E+02  0.49471161725E+02 -0.24634067599E+02  0.64645026816E+02  0.00000000000E+00 0.  1.
         12    1    4    4    0    0 -0.57788082044E+02 -0.26440597123E+02 -0.33849671299E+02  0.72002554466E+02  0.00000000000E+00 0. -1.
         -5    1    5    5    0  502 -0.88869930243E+01  0.43252314732E+02  0.15560657937E+03  0.16181853700E+03  0.47000000000E+01 0.  1.
         13    1    6    6    0    0  0.81671620312E+02 -0.94362229669E+02  0.40877274559E+03  0.42739869149E+03  0.00000000000E+00 0. -1.
        -14    1    6    6    0    0 -0.16947858794E+02 -0.95009939949E+01  0.10319617509E+03  0.10500928224E+03  0.00000000000E+00 0.  1.
</event>
<event>
12    1  0.8500177E-002  0.2286854E+03  0.7818608E-02  0.1128155E+00
         21   -1    0    0  503  502  0.00000000000E+00  0.00000000000E+00  0.12388057147E+03  0.12388057147E+03  0.00000000000E+00 0.  1.
         21   -1    0    0  501  503 -0.00000000000E+00 -0.00000000000E+00 -0.41985731743E+03  0.41985731743E+03  0.00000000000E+00 0. -1.
          6    2    1    2  501    0 -0.83953526576E+02 -0.11803314539E+03 -0.12126676891E+03  0.25595222683E+03  0.17270175199E+03 0.  0.
         24    2    3    3    0    0 -0.28749610274E+02 -0.11709657095E+03 -0.28454069338E+02  0.14785672855E+03  0.80708308722E+02 0.  0.
         -6    2    1    2    0  502  0.83953526576E+02  0.11803314539E+03 -0.17470997705E+03  0.28778566206E+03  0.17696607916E+03 0.  0.
        -24    2    5    5    0    0  0.11822248610E+03  0.62582769725E+02 -0.14786998590E+03  0.21713454125E+03  0.85957646456E+02 0.  0.
          5    1    3    3  501    0 -0.55203916302E+02 -0.93657444011E+00 -0.92812699570E+02  0.10809549828E+03  0.47000000000E+01 0. -1.
        -11    1    4    4    0    0 -0.40902277768E+02 -0.58999111911E+02 -0.46839602866E+02  0.85719542284E+02  0.00000000000E+00 0.  1.
         12    1    4    4    0    0  0.12152667494E+02 -0.58097459036E+02  0.18385533528E+02  0.62137186263E+02  0.00000000000E+00 0. -1.
         -5    1    5    5    0  502 -0.34268959528E+02  0.55450375661E+02 -0.26839991146E+02  0.70651120817E+02  0.47000000000E+01 0.  1.
         11    1    6    6    0    0  0.34428657420E+01  0.39759836747E+02 -0.53802711884E+02  0.66988280682E+02  0.00000000000E+00 0. -1.
        -12    1    6    6    0    0  0.11477962036E+03  0.22822932979E+02 -0.94067274020E+02  0.15014626057E+03  0.00000000000E+00 0.  1.
</event>
<event>
12    1  0.8500177E-002  0.2030164E+03  0.7818608E-02  0.1148580E+00
         21   -1    0    0  503  502  0.00000000000E+00  0.00000000000E+00  0.27205111033E+03  0.27205111033E+03  0.00000000000E+00 0. -1.
         21   -1    0    0  501  503 -0.00000000000E+00 -0.00000000000E+00 -0.15012092547E+03  0.15012092547E+03  0.00000000000E+00 0.  1.
          6    2    1    2  501    0 -0.63952435225E+02 -0.70423484387E+02  0.30122814703E+02  0.20523902702E+03  0.17934963932E+03 0.  0.
         24    2    3    3    0    0 -0.10902483676E+03 -0.54300704090E+02 -0.15958276582E+02  0.13862804896E+03  0.64250197441E+02 0.  0.
         -6    2    1    2    0  502  0.63952435225E+02  0.70423484387E+02  0.91807370149E+02  0.21693300878E+03  0.17199405792E+03 0.  0.
        -24    2    5    5    0    0  0.27063242522E+02  0.33805037384E+02  0.12511064006E+03  0.15502242014E+03  0.80647869407E+02 0.  0.
          5    1    3    3  501    0  0.45072401536E+02 -0.16122780296E+02  0.46081091285E+02  0.66610978065E+02  0.47000000000E+01 0. -1.
        -13    1    4    4    0    0 -0.41057901894E+02  0.11934211377E+02 -0.32945869321E+01  0.42883924869E+02  0.00000000000E+00 0.  1.
         14    1    4    4    0    0 -0.67966934867E+02 -0.66234915467E+02 -0.12663689650E+02  0.95744124090E+02  0.00000000000E+00 0. -1.
         -5    1    5    5    0  502  0.36889192703E+02  0.36618447003E+02 -0.33303269911E+02  0.61910588641E+02  0.47000000000E+01 0.  1.
         13    1    6    6    0    0  0.94797240870E+01  0.58024717115E+02  0.63572946400E+02  0.86592450473E+02  0.00000000000E+00 0. -1.
        -14    1    6    6    0    0  0.17583518435E+02 -0.24219679731E+02  0.61537693661E+02  0.68429969662E+02  0.00000000000E+00 0.  1.
</event>
<event>
12    1  0.8500177E-002  0.2373227E+03  0.7818608E-02  0.1121618E+00
         21   -1    0    0  501  502  0.00000000000E+00  0.00000000000E+00  0.21024891263E+03  0.21024891263E+03  0.00000000000E+00 0.  1.
         21   -1    0    0  502  503 -0.00000000000E+00 -0.00000000000E+00 -0.28037193603E+03  0.28037193603E+03  0.00000000000E+00 0.  1.
         -6    2    1    2    0  503 -0.15949414920E+03 -0.35205286273E+02 -0.87225518906E+02  0.25268274614E+03  0.17193743990E+03 0.  0.
        -24    2    3    3    0    0 -0.18230418735E+02 -0.42752555394E+01 -0.68156905855E+02  0.10674505276E+03  0.79990727558E+02 0.  0.
          6    2    1    2  501    0  0.15949414920E+03  0.35205286273E+02  0.17102495510E+02  0.23793810251E+03  0.17217505470E+03 0.  0.
         24    2    5    5    0    0  0.14567945174E+03  0.72536396310E+02  0.48289596847E+02  0.18715244575E+03  0.78804323101E+02 0.  0.
          5    1    5    5  501    0  0.13814697467E+02 -0.37331110037E+02 -0.31187101337E+02  0.50785656760E+02  0.47000000000E+01 0. -1.
        -13    1    6    6    0    0  0.69804738695E+02  0.61447537596E+02 -0.60125900104E+01  0.93191483836E+02  0.00000000000E+00 0.  1.
         14    1    6    6    0    0  0.75874713043E+02  0.11088858714E+02  0.54302186857E+02  0.93960961917E+02  0.00000000000E+00 0. -1.
         -5    1    3    3    0  503 -0.14126373047E+03 -0.30930030734E+02 -0.19068613051E+02  0.14593769339E+03  0.47000000000E+01 0.  1.
         11    1    4    4    0    0  0.14299625322E+02 -0.48330469586E+01  0.12611898985E+02  0.19669713350E+02  0.00000000000E+00 0. -1.
        -12    1    4    4    0    0 -0.32530044057E+02  0.55779141926E+00 -0.80768804840E+02  0.87075339407E+02  0.00000000000E+00 0.  1.
</event>
<event>
12    1  0.8500177E-002  0.1865156E+03  0.7818608E-02  0.1161684E+00
         21   -1    0    0  503  502  0.00000000000E+00  0.00000000000E+00  0.14676907231E+04  0.14676907231E+04  0.00000000000E+00 0.  1.
         21   -1    0    0  501  503 -0.00000000000E+00 -0.00000000000E+00 -0.29106338877E+02  0.29106338877E+02  0.00000000000E+00 0.  1.
          6    2    1    2  501    0  0.21184357236E+02 -0.69370889514E+02  0.39585682578E+03  0.43751955958E+03  0.17163811116E+03 0.  0.
         24    2    3    3    0    0  0.17526528148E+02 -0.10008953097E+03  0.19179293880E+03  0.23107059588E+03  0.79271656397E+02 0.  0.
         -6    2    1    2    0  502 -0.21184357236E+02  0.69370889514E+02  0.10427275585E+04  0.10592775024E+04  0.17183413115E+03 0.  0.
        -24    2    5    5    0    0 -0.76213462967E+02  0.52446835534E+02  0.72752606479E+03  0.73882672975E+03  0.89507536877E+02 0.  0.
          5    1    3    3  501    0  0.36578290876E+01  0.30718641459E+02  0.20406388697E+03  0.20644896370E+03  0.47000000000E+01 0. -1.
        -13    1    4    4    0    0 -0.28143063368E+02 -0.58545343866E+02  0.11940336136E+03  0.13592921690E+03  0.00000000000E+00 0.  1.
         14    1    4    4    0    0  0.45669591517E+02 -0.41544187106E+02  0.72389577443E+02  0.95141378979E+02  0.00000000000E+00 0. -1.
         -5    1    5    5    0  502  0.55029105731E+02  0.16924053979E+02  0.31520149370E+03  0.32045077268E+03  0.47000000000E+01 0.  1.
         13    1    6    6    0    0  0.23289176436E+01 -0.17717360579E+02  0.20595070615E+03  0.20672450771E+03  0.00000000000E+00 0. -1.
        -14    1    6    6    0    0 -0.78542380611E+02  0.70164196113E+02  0.52157535863E+03  0.53210222204E+03  0.00000000000E+00 0.  1.
</event>
<event>
12    1  0.8500177E-002  0.2197377E+03  0.7818608E-02  0.1134765E+00
         21   -1    0    0  501  502  0.00000000000E+00  0.00000000000E+00  0.54906339688E+02  0.54906339688E+02  0.00000000000E+00 0. -1.
         21   -1    0    0  502  503 -0.00000000000E+00 -0.00000000000E+00 -0.87752376767E+03  0.87752376767E+03  0.00000000000E+00 0.  1.
         -6    2    1    2    0  503  0.11031349373E+03  0.81815875260E+02 -0.35872294059E+03  0.42067422967E+03  0.17152770931E+03 0.  0.
        -24    2    3    3    0    0  0.14480796755E+03  0.67569089818E+02 -0.26311512307E+03  0.31793288264E+03  0.79478427951E+02 0.  0.
          6    2    1    2  501    0 -0.11031349373E+03 -0.81815875260E+02 -0.46389448740E+03  0.51175587770E+03  0.16683248656E+03 0.  0.
         24    2    5    5    0    0 -0.57849248952E+02 -0.60591870160E+01 -0.35836265403E+03  0.37157517058E+03  0.79126899562E+02 0.  0.
          5    1    5    5  501    0 -0.52464244776E+02 -0.75756688244E+02 -0.10553183337E+03  0.14018070712E+03  0.47000000000E+01 0. -1.
        -11    1    6    6    0    0  0.16663659964E+02  0.10736509160E+02 -0.10858425653E+03  0.11037885195E+03  0.00000000000E+00 0.  1.
         12    1    6    6    0    0 -0.74512908915E+02 -0.16795696176E+02 -0.24977839750E+03  0.26119631863E+03  0.00000000000E+00 0. -1.
         -5    1    3    3    0  503 -0.34494473818E+02  0.14246785442E+02 -0.95607817516E+02  0.10274134703E+03  0.47000000000E+01 0.  1.
         13    1    4    4    0    0  0.99206353943E+02  0.28085972276E+02 -0.22245913700E+03  0.24519133373E+03  0.00000000000E+00 0. -1.
        -14    1    4    4    0    0  0.45601613603E+02  0.39483117542E+02 -0.40655986071E+02  0.72741548908E+02  0.00000000000E+00 0.  1.
</event>
<event>
12    1  0.8500177E-002  0.2444374E+03  0.7818608E-02  0.1116926E+00
         21   -1    0    0  501  502  0.00000000000E+00  0.00000000000E+00  0.53053507017E+02  0.53053507017E+02  0.00000000000E+00 0. -1.
         21   -1    0    0  502  503 -0.00000000000E+00 -0.00000000000E+00 -0.16304659429E+04  0.16304659429E+04  0.00000000000E+00 0. -1.
         -6    2    1    2    0  503  0.21051832520E+02  0.17278004064E+03 -0.32024610634E+03  0.40287366405E+03  0.17162021578E+03 0.  0.
        -24    2    3    3    0    0  0.73695943023E+02  0.14391673715E+03 -0.20220290743E+03  0.27035657283E+03  0.77868744982E+02 0.  0.
          6    2    1    2  501    0 -0.21051832520E+02 -0.17278004064E+03 -0.12571663295E+04  0.12806457858E+04  0.17114416912E+03 0.  0.
         24    2    5    5    0    0  0.51251680456E+01 -0.12771998344E+03 -0.11639790164E+04  0.11737738558E+04  0.80989211082E+02 0.  0.
          5    1    5    5  501    0 -0.26177000565E+02 -0.45060057203E+02 -0.93187313081E+02  0.10687193005E+03  0.47000000000E+01 0. -1.
        -11    1    6    6    0    0 -0.13013366964E+02 -0.17812715958E+01 -0.31884280975E+03  0.31911323692E+03  0.00000000000E+00 0.  1.
         12    1    6    6    0    0  0.18138535010E+02 -0.12593871184E+03 -0.84513620667E+03  0.85466061885E+03  0.00000000000E+00 0. -1.
         -5    1    3    3    0  503 -0.52644110503E+02  0.28863303486E+02 -0.11804319891E+03  0.13251709123E+03  0.47000000000E+01 0.  1.
         13    1    4    4    0    0  0.50968203052E+02  0.52965887470E+02 -0.13916757579E+03  0.15738728383E+03  0.00000000000E+00 0. -1.
        -14    1    4    4    0    0  0.22727739971E+02  0.90950849683E+02 -0.63035331638E+02  0.11296928900E+03  0.00000000000E+00 0.  1.
</event>
<event>
12    1  0.8500177E-002  0.1827031E+03  0.7818608E-02  0.1165484E+00
         21   -1    0    0  503  502  0.00000000000E+00  0.00000000000E+00  0.12002215560E+03  0.12002215560E+03  0.00000000000E+00 0.  1.
         21   -1    0    0  501  503 -0.00000000000E+00 -0.00000000000E+00 -0.29397028177E+03  0.29397028177E+03  0.00000000000E+00 0. -1.
          6    2    1    2  501    0  0.26900025157E+02  0.52129347567E+02 -0.36598860433E+02  0.18633278697E+03  0.17302991269E+03 0.  0.
         24    2    3    3    0    0  0.79576466192E+02  0.40020028561E+02 -0.51264737594E+02  0.13013117668E+03  0.79825015908E+02 0.  0.
         -6    2    1    2    0  502 -0.26900025157E+02 -0.52129347567E+02 -0.13734926573E+03  0.22765965040E+03  0.17182262770E+03 0.  0.
        -24    2    5    5    0    0 -0.59467466718E+02 -0.85544910969E+02 -0.11644027203E+03  0.17631265297E+03  0.81691512750E+02 0.  0.
          5    1    3    3  501    0 -0.52676441035E+02  0.12109319006E+02  0.14665877161E+02  0.56201610295E+02  0.47000000000E+01 0. -1.
        -13    1    4    4    0    0  0.52259760883E+02  0.62343069602E+02 -0.21938441565E+02  0.84255778159E+02  0.00000000000E+00 0.  1.
         14    1    4    4    0    0  0.27316705310E+02 -0.22323041041E+02 -0.29326296029E+02  0.45875398517E+02  0.00000000000E+00 0. -1.
         -5    1    5    5    0  502  0.32567441560E+02  0.33415563402E+02 -0.20908993707E+02  0.51346997430E+02  0.47000000000E+01 0.  1.
         13    1    6    6    0    0 -0.41087226878E+02 -0.35553051371E+02 -0.10996612774E+03  0.12265695628E+03  0.00000000000E+00 0. -1.
        -14    1    6    6    0    0 -0.18380239840E+02 -0.49991859598E+02 -0.64741442917E+01  0.53655696687E+02  0.00000000000E+00 0.  1.
</event>
<event>
12    1  0.8500177E-002  0.1938316E+03  0.7818608E-02  0.1155157E+00
         21   -1    0    0  503  502  0.00000000000E+00  0.00000000000E+00  0.11910971327E+04  0.11910971327E+04  0.00000000000E+00 0.  1.
         21   -1    0    0  501  503 -0.00000000000E+00 -0.00000000000E+00 -0.82342357004E+02  0.82342357004E+02  0.00000000000E+00 0. -1.
          6    2    1    2  501    0  0.57231809228E+01 -0.90907097743E+02  0.10551423447E+04  0.10727982362E+04  0.17109597535E+03 0.  0.
         24    2    3    3    0    0 -0.55705753223E+02 -0.82217350652E+02  0.77461525248E+03  0.78545425222E+03  0.83945037197E+02 0.  0.
         -6    2    1    2    0  502 -0.57231809228E+01  0.90907097743E+02  0.53612430946E+02  0.20064125346E+03  0.17054549135E+03 0.  0.
        -24    2    5    5    0    0 -0.24923801417E+02  0.36303381398E+02 -0.34121497541E+02  0.95429268051E+02  0.77481205645E+02 0.  0.
          5    1    3    3  501    0  0.61428934145E+02 -0.86897470910E+01  0.28052709225E+03  0.28734398400E+03  0.47000000000E+01 0. -1.
        -11    1    4    4    0    0  0.11149599591E+02 -0.48425173029E+02  0.42555088922E+03  0.42844237684E+03  0.00000000000E+00 0.  1.
         12    1    4    4    0    0 -0.66855352814E+02 -0.33792177624E+02  0.34906436326E+03  0.35701187539E+03  0.00000000000E+00 0. -1.
         -5    1    5    5    0  502  0.19200620494E+02  0.54603716345E+02  0.87733928487E+02  0.10521198541E+03  0.47000000000E+01 0.  1.
         13    1    6    6    0    0 -0.74367187596E+01  0.55372377724E+02 -0.44277542966E+01  0.56044714370E+02  0.00000000000E+00 0. -1.
        -14    1    6    6    0    0 -0.17487082657E+02 -0.19068996326E+02 -0.29693743245E+02  0.39384553680E+02  0.00000000000E+00 0.  1.
</event>
<event>
12    1  0.8500177E-002  0.2109374E+03  0.7818608E-02  0.1144517E+00
         21   -1    0    0  503  502  0.00000000000E+00  0.00000000000E+00  0.14901801100E+03  0.14901801100E+03  0.00000000000E+00 0. -1.
         21   -1    0    0  501  503 -0.00000000000E+00 -0.00000000000E+00 -0.33817263769E+03  0.33817263769E+03  0.00000000000E+00 0.  1.
          6    2    1    2  501    0 -0.94825629997E+02  0.59055440408E+02  0.15004398621E+02  0.19363400304E+03  0.15744697523E+03 0.  0.
         24    2    3    3    0    0 -0.10891437457E+03  0.11536924859E+02  0.36313555463E+02  0.13947985076E+03  0.78361424416E+02 0.  0.
         -6    2    1    2    0  502  0.94825629997E+02 -0.59055440408E+02 -0.20415902531E+03  0.29355664565E+03  0.17892778275E+03 0.  0.
        -24    2    5    5    0    0  0.96916126295E+02  0.20705308494E+02 -0.92325042053E+02  0.15609728055E+03  0.77595117568E+02 0.  0.
          5    1    3    3  501    0  0.14088744568E+02  0.47518515549E+02 -0.21309156842E+02  0.54154152277E+02  0.47000000000E+01 0. -1.
        -11    1    4    4    0    0 -0.29054698105E+02 -0.24788514924E+02 -0.11076028039E+02  0.39765869175E+02  0.00000000000E+00 0.  1.
         12    1    4    4    0    0 -0.79859676460E+02  0.36325439782E+02  0.47389583503E+02  0.99713981589E+02  0.00000000000E+00 0. -1.
         -5    1    5    5    0  502 -0.20904962977E+01 -0.79760748902E+02 -0.11183398326E+03  0.13745936509E+03  0.47000000000E+01 0.  1.
         11    1    6    6    0    0  0.33874907102E+02  0.46395002243E+02 -0.48041462089E+02  0.74886498409E+02  0.00000000000E+00 0. -1.
        -12    1    6    6    0    0  0.63041219193E+02 -0.25689693748E+02 -0.44283579963E+02  0.81210782145E+02  0.00000000000E+00 0.  1.
</event>
<event>
12    1  0.8500177E-002  0.3030630E+03  0.7818608E-02  0.1083813E+00
         21   -1    0    0  503  502  0.00000000000E+00  0.00000000000E+00  0.57779320258E+03  0.57779320258E+03  0.00000000000E+00 0.  1.
         21   -1    0    0  501  503 -0.00000000000E+00 -0.00000000000E+00 -0.18141967843E+03  0.18141967843E+03  0.00000000000E+00 0.  1.
          6    2    1    2  501    0 -0.13848202778E+03  0.20724659843E+03  0.63240508175E+02  0.30885214894E+03  0.17106099337E+03 0.  0.
         24    2    3    3    0    0 -0.15206422091E+03  0.21767588282E+03  0.75402351289E+02  0.28732898999E+03  0.79787948128E+02 0.  0.
         -6    2    1    2    0  502  0.13848202778E+03 -0.20724659843E+03  0.33313301598E+03  0.45036073207E+03  0.17239129350E+03 0.  0.
        -24    2    5    5    0    0  0.91888056148E+02 -0.20165280869E+03  0.32648397905E+03  0.40273103159E+03  0.80580550473E+02 0.  0.
          5    1    3    3  501    0  0.13582193135E+02 -0.10429284390E+02 -0.12161843114E+02  0.21523158950E+02  0.47000000000E+01 0. -1.
        -11    1    4    4    0    0 -0.41081065726E+02  0.12422145918E+03  0.49814278485E+02  0.14000031151E+03  0.00000000000E+00 0.  1.
         12    1    4    4    0    0 -0.11098315519E+03  0.93454423640E+02  0.25588072804E+02  0.14732867848E+03  0.00000000000E+00 0. -1.
         -5    1    5    5    0  502  0.46593971630E+02 -0.55937897431E+01  0.66490369344E+01  0.47629700483E+02  0.47000000000E+01 0.  1.
         13    1    6    6    0    0  0.72708375165E+02 -0.20366260810E+03  0.29424607401E+03  0.36516532945E+03  0.00000000000E+00 0. -1.
        -14    1    6    6    0    0  0.19179680983E+02  0.20097994145E+01  0.32237905032E+02  0.37565702138E+02  0.00000000000E+00 0.  1.
</event>
<event>
12    1  0.8500177E-002  0.1739738E+03  0.7818608E-02  0.1174132E+00
         21   -1    0    0  503  502  0.00000000000E+00  0.00000000000E+00  0.17768605518E+04  0.17768605518E+04  0.00000000000E+00 0. -1.
         21   -1    0    0  501  503 -0.00000000000E+00 -0.00000000000E+00 -0.19600234561E+02  0.19600234561E+02  0.00000000000E+00 0. -1.
          6    2    1    2  501    0  0.41827014345E+01  0.66414600390E+01  0.54167608164E+03  0.56849013350E+03  0.17235559315E+03 0.  0.
         24    2    3    3    0    0 -0.14570822502E+02  0.37262516779E+02  0.51664565483E+03  0.52446791136E+03  0.80889142484E+02 0.  0.
         -6    2    1    2    0  502 -0.41827014345E+01 -0.66414600390E+01  0.12155842356E+04  0.12279706529E+04  0.17379668137E+03 0.  0.
        -24    2    5    5    0    0  0.71202223222E+02  0.77667311794E+01  0.69113412403E+03  0.69791358766E+03  0.65474573200E+02 0.  0.
          5    1    3    3  501    0  0.18753523937E+02 -0.30621056740E+02  0.25030426810E+02  0.44022222141E+02  0.47000000000E+01 0. -1.
        -11    1    4    4    0    0  0.10330668171E+02  0.51953427870E+02  0.21456523758E+03  0.22100706448E+03  0.00000000000E+00 0.  1.
         12    1    4    4    0    0 -0.24901490673E+02 -0.14690911090E+02  0.30208041724E+03  0.30346084688E+03  0.00000000000E+00 0. -1.
         -5    1    5    5    0  502 -0.75384924656E+02 -0.14408191218E+02  0.52445011160E+03  0.53005706523E+03  0.47000000000E+01 0.  1.
         11    1    6    6    0    0  0.35795365658E+02 -0.80639852889E+01  0.55905094622E+03  0.56025377869E+03  0.00000000000E+00 0. -1.
        -12    1    6    6    0    0  0.35406857564E+02  0.15830716468E+02  0.13208317781E+03  0.13765980897E+03  0.00000000000E+00 0.  1.
</event>
<event>
12    1  0.8500177E-002  0.1910691E+03  0.7818608E-02  0.1157643E+00
         21   -1    0    0  503  502  0.00000000000E+00  0.00000000000E+00  0.38381880566E+02  0.38381880566E+02  0.00000000000E+00 0.  1.
         21   -1    0    0  501  503 -0.00000000000E+00 -0.00000000000E+00 -0.94832071705E+03  0.94832071705E+03  0.00000000000E+00 0.  1.
          6    2    1    2  501    0 -0.76010137229E+02 -0.32724672344E+02 -0.44683759634E+03  0.48597450904E+03  0.17221771336E+03 0.  0.
         24    2    3    3    0    0 -0.10732868773E+03 -0.34652440046E+02 -0.42671968792E+03  0.44840606307E+03  0.79107942263E+02 0.  0.
         -6    2    1    2    0  502  0.76010137229E+02  0.32724672344E+02 -0.46310124014E+03  0.50072808857E+03  0.17151505742E+03 0.  0.
        -24    2    5    5    0    0  0.29747802499E+02  0.25366093846E+02 -0.43867834336E+03  0.44769111864E+03  0.80375856474E+02 0.  0.
          5    1    3    3  501    0  0.31318550497E+02  0.19277677015E+01 -0.20117908420E+02  0.37568445972E+02  0.47000000000E+01 0. -1.
        -13    1    4    4    0    0 -0.30806639499E+02 -0.44493377400E+02 -0.24642303569E+03  0.25229550568E+03  0.00000000000E+00 0.  1.
         14    1    4    4    0    0 -0.76522048227E+02  0.98409373546E+01 -0.18029665223E+03  0.19611055739E+03  0.00000000000E+00 0. -1.
         -5    1    5    5    0  502  0.46262334730E+02  0.73585784983E+01 -0.24422896777E+02  0.53036969928E+02  0.47000000000E+01 0.  1.
         11    1    6    6    0    0  0.34403099399E+02  0.46300204457E+02 -0.39321784271E+03  0.39742616171E+03  0.00000000000E+00 0. -1.
        -12    1    6    6    0    0 -0.46552969000E+01 -0.20934110610E+02 -0.45460500650E+02  0.50264956934E+02  0.00000000000E+00 0.  1.
</event>
<event>
12    1  0.8500177E-002  0.1774896E+03  0.7818608E-02  0.1170556E+00
         21   -1    0    0  503  502  0.00000000000E+00  0.00000000000E+00  0.39934394988E+03  0.39934394988E+03  0.00000000000E+00 0. -1.
         21   -1    0    0  501  503 -0.00000000000E+00 -0.00000000000E+00 -0.19292577240E+03  0.19292577240E+03  0.00000000000E+00 0. -1.
          6    2    1    2  501    0 -0.84168951837E+01  0.40343635213E+02 -0.12515306472E+03  0.21618192100E+03  0.17138518120E+03 0.  0.
         24    2    3    3    0    0  0.61183463599E+02  0.18009516839E+02 -0.70450185913E+02  0.12476246062E+03  0.80837392160E+02 0.  0.
         -6    2    1    2    0  502  0.84168951837E+01 -0.40343635213E+02  0.33157124220E+03  0.37608780127E+03  0.17263861846E+03 0.  0.
        -24    2    5    5    0    0  0.63116682416E+02 -0.15297225919E+02  0.13388652089E+03  0.16939786832E+03  0.80946380998E+02 0.  0.
          5    1    3    3  501    0 -0.69600358783E+02  0.22334118374E+02 -0.54702878809E+02  0.91419460380E+02  0.47000000000E+01 0. -1.
        -13    1    4    4    0    0  0.96671668498E+01 -0.37995543620E+01  0.17604231050E+02  0.20440148706E+02  0.00000000000E+00 0.  1.
         14    1    4    4    0    0  0.51516296749E+02  0.21809071201E+02 -0.88054416963E+02  0.10432231192E+03  0.00000000000E+00 0. -1.
         -5    1    5    5    0  502 -0.54699787232E+02 -0.25046409294E+02  0.19768472131E+03  0.20668993295E+03  0.47000000000E+01 0.  1.
         13    1    6    6    0    0  0.55206078220E+02 -0.38238565749E+02  0.12781426310E+03  0.14438277195E+03  0.00000000000E+00 0. -1.
        -14    1    6    6    0    0  0.79106041960E+01  0.22941339831E+02  0.60722577849E+01  0.25015096374E+02  0.00000000000E+00 0.  1.
</event>
<event>
12    1  0.8500177E-002  0.3371286E+03  0.7818608E-02  0.1068059E+00
         21   -1    0    0  501  502  0.00000000000E+00  0.00000000000E+00  0.32756846532E+03  0.32756846532E+03  0.00000000000E+00 0.  1.
         21   -1    0    0  502  503 -0.00000000000E+00 -0.00000000000E+00 -0.35557031314E+03  0.35557031314E+03  0.00000000000E+00 0. -1.
         -6    2    1    2    0  503 -0.10568025411E+03  0.26991045267E+03 -0.68105860741E+02  0.34393910768E+03  0.17215032081E+03 0.  0.
        -24    2    3    3    0    0 -0.63787907330E+02  0.82777381317E+02 -0.60819281448E+02  0.15197833213E+03  0.92072995291E+02 0.  0.
          6    2    1    2  501    0  0.10568025411E+03 -0.26991045267E+03  0.40104012929E+02  0.33919967078E+03  0.17154625101E+03 0.  0.
         24    2    5    5    0    0 -0.19069238172E+02 -0.11030633182E+03  0.37480625368E+02  0.13655494872E+03  0.68639158343E+02 0.  0.
          5    1    5    5  501    0  0.12474949228E+03 -0.15960412084E+03  0.26233875611E+01  0.20264472206E+03  0.47000000000E+01 0. -1.
        -13    1    6    6    0    0 -0.19444340356E+02 -0.92003776640E+02  0.56864959304E+02  0.10989267894E+03  0.00000000000E+00 0.  1.
         14    1    6    6    0    0  0.37510218339E+00 -0.18302555184E+02 -0.19384333936E+02  0.26662269784E+02  0.00000000000E+00 0. -1.
         -5    1    3    3    0  503 -0.41892346781E+02  0.18713307135E+03 -0.72865792930E+01  0.19196077555E+03  0.47000000000E+01 0.  1.
         13    1    4    4    0    0 -0.10652567853E+02  0.23460238197E+02 -0.67315353208E+02  0.72077852047E+02  0.00000000000E+00 0. -1.
        -14    1    4    4    0    0 -0.53135339476E+02  0.59317143119E+02  0.64960717600E+01  0.79900480083E+02  0.00000000000E+00 0.  1.
</event>
<event>
12    1  0.8500177E-002  0.2096711E+03  0.7818608E-02  0.1142715E+00
         21   -1    0    0  503  502  0.00000000000E+00  0.00000000000E+00  0.69211717563E+02  0.69211717563E+02  0.00000000000E+00 0. -1.
         21   -1    0    0  501  503 -0.00000000000E+00 -0.00000000000E+00 -0.82604409709E+03  0.82604409709E+03  0.00000000000E+00 0.  1.
          6    2    1    2  501    0  0.80946666726E+02  0.88933142521E+02 -0.60401086228E+03  0.63936773192E+03  0.17175711973E+03 0.  0.
         24    2    3    3    0    0  0.32546895512E+01  0.75260493167E+02 -0.21477303242E+03  0.24218872586E+03  0.82783987855E+02 0.  0.
         -6    2    1    2    0  502 -0.80946666726E+02 -0.88933142521E+02 -0.15282151725E+03  0.25588808273E+03  0.16632146000E+03 0.  0.
        -24    2    5    5    0    0 -0.51068070687E+02 -0.59204013310E+02 -0.15815555597E+02  0.11246815681E+03  0.79283614074E+02 0.  0.
          5    1    3    3  501    0  0.77691977175E+02  0.13672649354E+02 -0.38923782987E+03  0.39717900606E+03  0.47000000000E+01 0. -1.
        -11    1    4    4    0    0  0.85949288789E+01  0.39439920213E+02 -0.19836216205E+03  0.20242758567E+03  0.00000000000E+00 0.  1.
         12    1    4    4    0    0 -0.53402393277E+01  0.35820572955E+02 -0.16410870369E+02  0.39761140189E+02  0.00000000000E+00 0. -1.
         -5    1    5    5    0  502 -0.29878596039E+02 -0.29729129211E+02 -0.13700596165E+03  0.14341992592E+03  0.47000000000E+01 0.  1.
         11    1    6    6    0    0 -0.54540085925E+02 -0.67870094719E+01 -0.22744955153E+02  0.59481236160E+02  0.00000000000E+00 0. -1.
        -12    1    6    6    0    0  0.34720152380E+01 -0.52417003838E+02  0.69293995561E+01  0.52986920645E+02  0.00000000000E+00 0.  1.
</event>
<event>
12    1  0.8500177E-002  0.3319759E+03  0.7818608E-02  0.1070297E+00
         21   -1    0    0  503  502  0.00000000000E+00  0.00000000000E+00  0.71642244670E+02  0.71642244670E+02  0.00000000000E+00 0.  1.
         21   -1    0    0  501  503 -0.00000000000E+00 -0.00000000000E+00 -0.20038269842E+04  0.20038269842E+04  0.00000000000E+00 0. -1.
          6    2    1    2  501    0 -0.14793090680E+03  0.24221858447E+03 -0.14672760684E+04  0.15043626820E+04  0.17220517454E+03 0.  0.
         24    2    3    3    0    0 -0.14613959858E+03  0.25609869854E+03 -0.12574988741E+04  0.12940666344E+04  0.79760330784E+02 0.  0.
         -6    2    1    2    0  502  0.14793090680E+03 -0.24221858447E+03 -0.46490867113E+03  0.57110654691E+03  0.17166601170E+03 0.  0.
        -24    2    5    5    0    0  0.21133337302E+02 -0.10649948127E+03 -0.13189479880E+03  0.18976991377E+03  0.82629442484E+02 0.  0.
          5    1    3    3  501    0 -0.17913082260E+01 -0.13880114070E+02 -0.20977719431E+03  0.21029604753E+03  0.47000000000E+01 0. -1.
        -11    1    4    4    0    0 -0.88574485312E+02  0.16092292706E+03 -0.60906103357E+03  0.63615797607E+03  0.00000000000E+00 0.  1.
         12    1    4    4    0    0 -0.57565113265E+02  0.95175771482E+02 -0.64843784052E+03  0.65790865838E+03  0.00000000000E+00 0. -1.
         -5    1    5    5    0  502  0.12679756950E+03 -0.13571910320E+03 -0.33301387234E+03  0.38133663314E+03  0.47000000000E+01 0.  1.
         11    1    6    6    0    0  0.29410802248E+02 -0.53999288416E+01 -0.10776880836E+02  0.31785148748E+02  0.00000000000E+00 0. -1.
        -12    1    6    6    0    0 -0.82774649456E+01 -0.10109955243E+03 -0.12111791796E+03  0.15798476502E+03  0.00000000000E+00 0.  1.
</event>
<event>
12    1  0.8500177E-002  0.1776085E+03  0.7818608E-02  0.1172043E+00
         21   -1    0    0  503  502  0.00000000000E+00  0.00000000000E+00  0.11936452200E+03  0.11936452200E+03  0.00000000000E+00 0. -1.
         21   -1    0    0  501  503 -0.00000000000E+00 -0.00000000000E+00 -0.93260833512E+03  0.93260833512E+03  0.00000000000E+00 0. -1.
          6    2    1    2  501    0  0.32348804011E+02  0.34742496442E+02 -0.85795375117E+03  0.87614463821E+03  0.17114701790E+03 0.  0.
         24    2    3    3    0    0 -0.86490364717E+00 -0.25815238966E+02 -0.22670495692E+03  0.24111115883E+03  0.77924827862E+02 0.  0.
         -6    2    1    2    0  502 -0.32348804011E+02 -0.34742496442E+02  0.44709938057E+02  0.17582821891E+03  0.16328838852E+03 0.  0.
        -24    2    5    5    0    0 -0.30965183182E+02 -0.65052758420E+02 -0.14883135109E+02  0.10879053729E+03  0.80144677589E+02 0.  0.
          5    1    3    3  501    0  0.33213707658E+02  0.60557735408E+02 -0.63124879424E+03  0.63503347938E+03  0.47000000000E+01 0. -1.
        -13    1    4    4    0    0 -0.24194572541E+02  0.18367168861E+02 -0.62812984217E+02  0.69772496147E+02  0.00000000000E+00 0.  1.
         14    1    4    4    0    0  0.23329668893E+02 -0.44182407827E+02 -0.16389197271E+03  0.17133866268E+03  0.00000000000E+00 0. -1.
         -5    1    5    5    0  502 -0.13836208290E+01  0.30310261979E+02  0.59593073166E+02  0.67037681622E+02  0.47000000000E+01 0.  1.
         11    1    6    6    0    0  0.10849361242E+02 -0.29317225986E+02  0.25672765942E+02  0.40451196397E+02  0.00000000000E+00 0. -1.
        -12    1    6    6    0    0 -0.41814544424E+02 -0.35735532435E+02 -0.40555901051E+02  0.68339340894E+02  0.00000000000E+00 0.  1.
</event>
<event>
12    1  0.8500177E-002  0.1757935E+03  0.7818608E-02  0.1172325E+00
         21   -1    0    0  503  502  0.00000000000E+00  0.00000000000E+00  0.72528260475E+03  0.72528260475E+03  0.00000000000E+00 0. -1.
         21   -1    0    0  501  503 -0.00000000000E+00 -0.00000000000E+00 -0.59979840647E+02  0.59979840647E+02  0.00000000000E+00 0. -1.
          6    2    1    2  501    0 -0.24367491801E+02  0.17212367444E+02  0.12012759097E+03  0.21291782401E+03  0.17324353211E+03 0.  0.
         24    2    3    3    0    0  0.12438581793E+02  0.70778201993E+02  0.95723875881E+02  0.14333609512E+03  0.78853684488E+02 0.  0.
         -6    2    1    2    0  502  0.24367491801E+02 -0.17212367444E+02  0.54517517313E+03  0.57234462139E+03  0.17167514666E+03 0.  0.
        -24    2    5    5    0    0 -0.34776986683E+02 -0.14288906087E+02  0.45982515401E+03  0.46835745042E+03  0.80659267685E+02 0.  0.
          5    1    3    3  501    0 -0.36806073593E+02 -0.53565834549E+02  0.24403715086E+02  0.69581728882E+02  0.47000000000E+01 0. -1.
        -13    1    4    4    0    0  0.11146268177E+02  0.85521130944E+02  0.95299526327E+02  0.12853055221E+03  0.00000000000E+00 0.  1.
         14    1    4    4    0    0  0.12923136154E+01 -0.14742928951E+02  0.42434955348E+00  0.14805542918E+02  0.00000000000E+00 0. -1.
         -5    1    5    5    0  502  0.59144478484E+02 -0.29234613574E+01  0.85350019124E+02  0.10398717097E+03  0.47000000000E+01 0.  1.
         13    1    6    6    0    0  0.34219615830E+01  0.18959518339E+02  0.30632049831E+02  0.36186953914E+02  0.00000000000E+00 0. -1.
        -14    1    6    6    0    0 -0.38198948266E+02 -0.33248424425E+02  0.42919310418E+03  0.43217049650E+03  0.00000000000E+00 0.  1.
</event>
<event>
12    1  0.8500177E-002  0.2311553E+03  0.7818608E-02  0.1126878E+00
         21   -1    0    0  503  502  0.00000000000E+00  0.00000000000E+00  0.14497897358E+03  0.14497897358E+03  0.00000000000E+00 0.  1.
         21   -1    0    0  501  503 -0.00000000000E+00 -0.00000000000E+00 -0.36722725093E+03  0.36722725093E+03  0.00000000000E+00 0. -1.
          6    2    1    2  501    0 -0.14050905612E+03 -0.34597353819E+02 -0.71818177396E+02  0.23641282543E+03  0.17260765243E+03 0.  0.
         24    2    3    3    0    0 -0.12818906910E+03  0.30919766252E+02 -0.28943567728E+02  0.15701133138E+03  0.80164572518E+02 0.  0.
         -6    2    1    2    0  502  0.14050905612E+03  0.34597353819E+02 -0.15043009995E+03  0.27579339908E+03  0.18025818222E+03 0.  0.
        -24    2    5    5    0    0  0.12488685865E+03  0.11398806384E+02 -0.18093630814E+03  0.23414073535E+03  0.79732528474E+02 0.  0.
          5    1    3    3  501    0 -0.12319987019E+02 -0.65517120071E+02 -0.42874609668E+02  0.79401494046E+02  0.47000000000E+01 0. -1.
        -13    1    4    4    0    0  0.10219477056E+02 -0.29169078923E+01 -0.72977422554E+01  0.12891978319E+02  0.00000000000E+00 0.  1.
         14    1    4    4    0    0 -0.13840854616E+03  0.33836674144E+02 -0.21645825473E+02  0.14411935306E+03  0.00000000000E+00 0. -1.
         -5    1    5    5    0  502  0.15622197471E+02  0.23198547436E+02  0.30506208190E+02  0.41652663722E+02  0.47000000000E+01 0.  1.
         13    1    6    6    0    0  0.98438306040E+02  0.17353411168E+02 -0.18129876803E+03  0.20702773791E+03  0.00000000000E+00 0. -1.
        -14    1    6    6    0    0  0.26448552611E+02 -0.59546047844E+01  0.36245988361E+00  0.27112997446E+02  0.00000000000E+00 0.  1.
</event>
<event>
12    1  0.8500177E-002  0.2138567E+03  0.7818608E-02  0.1141633E+00
         21   -1    0    0  503  502  0.00000000000E+00  0.00000000000E+00  0.42829075679E+03  0.42829075679E+03  0.00000000000E+00 0.  1.
         21   -1    0    0  501  503 -0.00000000000E+00 -0.00000000000E+00 -0.36899148111E+03  0.36899148111E+03  0.00000000000E+00 0. -1.
          6    2    1    2  501    0  0.71747766442E+02 -0.10320123976E+03 -0.31141170268E+03  0.36930871596E+03  0.15366665624E+03 0.  0.
         24    2    3    3    0    0  0.51235055675E+02 -0.13216975773E+03 -0.25218607428E+03  0.30010097510E+03  0.79805409620E+02 0.  0.
         -6    2    1    2    0  502 -0.71747766442E+02  0.10320123976E+03  0.37071097836E+03  0.42797352194E+03  0.17302158283E+03 0.  0.
        -24    2    5    5    0    0  0.19284362010E+01  0.10792211966E+03  0.28238666459E+03  0.31276178666E+03  0.80167350450E+02 0.  0.
          5    1    3    3  501    0  0.20512710767E+02  0.28968517967E+02 -0.59225628396E+02  0.69207740861E+02  0.47000000000E+01 0. -1.
        -13    1    4    4    0    0  0.56043983373E+02 -0.38182613718E+02 -0.91611240631E+02  0.11398008367E+03  0.00000000000E+00 0.  1.
         14    1    4    4    0    0 -0.48089276983E+01 -0.93987144014E+02 -0.16057483365E+03  0.18612089143E+03  0.00000000000E+00 0. -1.
         -5    1    5    5    0  502 -0.73676202643E+02 -0.47208798969E+01  0.88324313767E+02  0.11521173528E+03  0.47000000000E+01 0.  1.
         13    1    6    6    0    0 -0.34547676323E+02  0.30557975566E+02  0.70325023276E+02  0.84100777100E+02  0.00000000000E+00 0. -1.
        -14    1    6    6    0    0  0.36476112524E+02  0.77364144096E+02  0.21206164131E+03  0.22866100956E+03  0.00000000000E+00 0.  1.
</event>
<event>
12    1  0.8500177E-002  0.2043320E+03  0.7818608E-02  0.1146400E+00
         21   -1    0    0  501  502  0.00000000000E+00  0.00000000000E+00  0.47003674869E+03  0.47003674869E+03  0.00000000000E+00 0.  1.
         21   -1    0    0  502  503 -0.00000000000E+00 -0.00000000000E+00 -0.88315330937E+02  0.88315330937E+02  0.00000000000E+00 0. -1.
         -6    2    1    2    0  503  0.62299086376E+02 -0.89559313384E+02  0.18498970929E+03  0.27563153995E+03  0.17277009722E+03 0.  0.
        -24    2    3    3    0    0  0.97304142084E+02 -0.38751695459E+02  0.16323161477E+03  0.21003982827E+03  0.80637332733E+02 0.  0.
          6    2    1    2  501    0 -0.62299086376E+02  0.89559313384E+02  0.19673170846E+03  0.28272053968E+03  0.17124687344E+03 0.  0.
         24    2    5    5    0    0 -0.66868017810E+02  0.46174311215E+02  0.20825511066E+03  0.23735521872E+03  0.79774118076E+02 0.  0.
          5    1    5    5  501    0  0.45689314345E+01  0.43385002168E+02 -0.11523402198E+02  0.45365320960E+02  0.47000000000E+01 0. -1.
        -13    1    6    6    0    0 -0.81012642442E+02  0.21205220794E+02  0.13738528607E+03  0.16089570054E+03  0.00000000000E+00 0.  1.
         14    1    6    6    0    0  0.14144624632E+02  0.24969090421E+02  0.70869824584E+02  0.76459518171E+02  0.00000000000E+00 0. -1.
         -5    1    3    3    0  503 -0.35005055708E+02 -0.50807617925E+02  0.21758094521E+02  0.65591711683E+02  0.47000000000E+01 0.  1.
         13    1    4    4    0    0  0.17399754858E+01  0.12452791531E+02 -0.16760224280E+01  0.12684974686E+02  0.00000000000E+00 0. -1.
        -14    1    4    4    0    0  0.95564166598E+02 -0.51204486990E+02  0.16490763720E+03  0.19735485358E+03  0.00000000000E+00 0.  1.
</event>
<event>
12    1  0.8500177E-002  0.1806528E+03  0.7818608E-02  0.1167670E+00
         21   -1    0    0  503  502  0.00000000000E+00  0.00000000000E+00  0.11666060184E+03  0.11666060184E+03  0.00000000000E+00 0.  1.
         21   -1    0    0  501  503 -0.00000000000E+00 -0.00000000000E+00 -0.37790886815E+03  0.37790886815E+03  0.00000000000E+00 0.  1.
          6    2    1    2  501    0  0.48879935646E+02  0.21367804964E+02 -0.25921495925E+03  0.31595543189E+03  0.17259666464E+03 0.  0.
         24    2    3    3    0    0  0.82860237547E+02  0.13718593126E+02 -0.10003406722E+03  0.15294065420E+03  0.79561362099E+02 0.  0.
         -6    2    1    2    0  502 -0.48879935646E+02 -0.21367804964E+02 -0.20333070645E+01  0.17861403810E+03  0.17044943259E+03 0.  0.
        -24    2    5    5    0    0 -0.44073749641E+02 -0.73823839954E+02  0.25197820502E+02  0.11912992813E+03  0.78514679292E+02 0.  0.
          5    1    3    3  501    0 -0.33980301901E+02  0.76492118382E+01 -0.15918089202E+03  0.16301477769E+03  0.47000000000E+01 0. -1.
        -11    1    4    4    0    0  0.38599728259E+02 -0.19241514558E+02 -0.85674574360E+02  0.95918233908E+02  0.00000000000E+00 0.  1.
         12    1    4    4    0    0  0.44260509288E+02  0.32960107684E+02 -0.14359492862E+02  0.57022420294E+02  0.00000000000E+00 0. -1.
         -5    1    5    5    0  502 -0.48061860048E+01  0.52456034990E+02 -0.27231127566E+02  0.59484109974E+02  0.47000000000E+01 0.  1.
         13    1    6    6    0    0  0.18115242908E+02 -0.41888607674E+02  0.17170683671E+02  0.48761151096E+02  0.00000000000E+00 0. -1.
        -14    1    6    6    0    0 -0.62188992549E+02 -0.31935232280E+02  0.80271368309E+01  0.70368777030E+02  0.00000000000E+00 0.  1.
</event>
<event>
12    1  0.8500177E-002  0.1847260E+03  0.7818608E-02  0.1163637E+00
         21   -1    0    0  503  502  0.00000000000E+00  0.00000000000E+00  0.13502916803E+03  0.13502916803E+03  0.00000000000E+00 0. -1.
         21   -1    0    0  501  503 -0.00000000000E+00 -0.00000000000E+00 -0.26186664188E+03  0.26186664188E+03  0.00000000000E+00 0.  1.
          6    2    1    2  501    0 -0.41932263326E+02  0.48153155381E+02 -0.22375249211E+02  0.18467882697E+03  0.17183880899E+03 0.  0.
         24    2    3    3    0    0 -0.45269657090E+02  0.27722476977E+02  0.35355576407E+02  0.12316875427E+03  0.10536910203E+03 0.  0.
         -6    2    1    2    0  502  0.41932263326E+02 -0.48153155381E+02 -0.10446222464E+03  0.21221698293E+03  0.17333969652E+03 0.  0.
        -24    2    5    5    0    0  0.67396834428E+02 -0.84303145682E+02 -0.72934144032E+02  0.15770665321E+03  0.88896824678E+02 0.  0.
          5    1    3    3  501    0  0.33373937634E+01  0.20430678404E+02 -0.57730825618E+02  0.61510072701E+02  0.47000000000E+01 0. -1.
        -13    1    4    4    0    0 -0.50703497119E+02  0.18629991673E+02 -0.26671601237E+02  0.60243634704E+02  0.00000000000E+00 0.  1.
         14    1    4    4    0    0  0.54338400287E+01  0.90924853035E+01  0.62027177643E+02  0.62925119570E+02  0.00000000000E+00 0. -1.
         -5    1    5    5    0  502 -0.25464571102E+02  0.36149990301E+02 -0.31528080604E+02  0.54510329725E+02  0.47000000000E+01 0.  1.
         13    1    6    6    0    0  0.43643303453E+02  0.79654561023E+01 -0.27004946468E+02  0.51937015326E+02  0.00000000000E+00 0. -1.
        -14    1    6    6    0    0  0.23753530975E+02 -0.92268601784E+02 -0.45929197564E+02  0.10576963788E+03  0.00000000000E+00 0.  1.
</event>
<event>
12    1  0.8500177E-002  0.1758889E+03  0.7818608E-02  0.1171975E+00
         21   -1    0    0  503  502  0.00000000000E+00  0.00000000000E+00  0.49378802488E+03  0.49378802488E+03  0.00000000000E+00 0.  1.
         21   -1    0    0  501  503 -0.00000000000E+00 -0.00000000000E+00 -0.63070307430E+02  0.63070307430E+02  0.00000000000E+00 0.  1.
          6    2    1    2  501    0  0.26838588306E+02  0.27811911399E+02  0.18771845335E+03  0.25688242373E+03  0.17104546079E+03 0.  0.
         24    2    3    3    0    0  0.32846327747E+02 -0.11518504144E+02  0.19555120275E+03  0.21606065891E+03  0.85031630851E+02 0.  0.
         -6    2    1    2    0  502 -0.26838588306E+02 -0.27811911399E+02  0.24299926410E+03  0.29997590858E+03  0.17158989230E+03 0.  0.
        -24    2    5    5    0    0  0.46945811325E+02 -0.28251238494E+02  0.17352012450E+03  0.19851768330E+03  0.79359909906E+02 0.  0.
          5    1    3    3  501    0 -0.60077394407E+01  0.39330415544E+02 -0.78327494026E+01  0.40821764823E+02  0.47000000000E+01 0. -1.
        -11    1    4    4    0    0  0.13816924017E+02 -0.82497239202E+01 -0.31716832260E+01  0.16401978800E+02  0.00000000000E+00 0.  1.
         12    1    4    4    0    0  0.19029403729E+02 -0.32687802242E+01  0.19872288598E+03  0.19965868011E+03  0.00000000000E+00 0. -1.
         -5    1    5    5    0  502 -0.73784399630E+02  0.43932709460E+00  0.69479139603E+02  0.10145822528E+03  0.47000000000E+01 0.  1.
         13    1    6    6    0    0  0.48873387689E+02  0.60452940411E+01  0.49483506934E+02  0.69812399062E+02  0.00000000000E+00 0. -1.
        -14    1    6    6    0    0 -0.19275763647E+01 -0.34296532535E+02  0.12403661757E+03  0.12870528424E+03  0.00000000000E+00 0.  1.
</event>
<event>
12    1  0.8500177E-002  0.2065376E+03  0.7818608E-02  0.1144492E+00
         21   -1    0    0  503  502  0.00000000000E+00  0.00000000000E+00  0.38090807331E+03  0.38090807331E+03  0.00000000000E+00 0. -1.
         21   -1    0    0  501  503 -0.00000000000E+00 -0.00000000000E+00 -0.16577926611E+03  0.16577926611E+03  0.00000000000E+00 0. -1.
          6    2    1    2  501    0  0.66690212702E+02  0.91291250732E+02 -0.48868955576E+02  0.21149696075E+03  0.17193345415E+03 0.  0.
         24    2    3    3    0    0  0.41897457577E+02  0.14834236081E+02 -0.87053988877E+02  0.12238723870E+03  0.73653158147E+02 0.  0.
         -6    2    1    2    0  502 -0.66690212702E+02 -0.91291250732E+02  0.26399776278E+03  0.33519037866E+03  0.17284702562E+03 0.  0.
        -24    2    5    5    0    0 -0.13732779617E+02 -0.32467845159E+02  0.23534638741E+03  0.25088335599E+03  0.79446749699E+02 0.  0.
          5    1    3    3  501    0  0.24792755125E+02  0.76457014652E+02  0.38185033301E+02  0.89109722053E+02  0.47000000000E+01 0. -1.
        -11    1    4    4    0    0  0.42225576876E+01 -0.27876903285E+02 -0.37337472490E+02  0.46787162578E+02  0.00000000000E+00 0.  1.
         12    1    4    4    0    0  0.37674899889E+02  0.42711139365E+02 -0.49716516387E+02  0.75600076119E+02  0.00000000000E+00 0. -1.
         -5    1    5    5    0  502 -0.52957433085E+02 -0.58823405573E+02  0.28651375363E+02  0.84307022675E+02  0.47000000000E+01 0.  1.
         11    1    6    6    0    0  0.25385628489E+02  0.10093447143E+02  0.10096774720E+03  0.10459824943E+03  0.00000000000E+00 0. -1.
        -12    1    6    6    0    0 -0.39118408106E+02 -0.42561292302E+02  0.13437864021E+03  0.14628510656E+03  0.00000000000E+00 0.  1.
</event>
<event>
12    1  0.8500177E-002  0.2893775E+03  0.7818608E-02  0.1090740E+00
         21   -1    0    0  501  502  0.00000000000E+00  0.00000000000E+00  0.66234482235E+03  0.66234482235E+03  0.00000000000E+00 0.  1.
         21   -1    0    0  502  503 -0.00000000000E+00 -0.00000000000E+00 -0.14120638488E+03  0.14120638488E+03  0.00000000000E+00 0. -1.
         -6    2    1    2    0  503 -0.20700666889E+03  0.10719643522E+03  0.12944231477E+03  0.31655509082E+03  0.17061352811E+03 0.  0.
        -24    2    3    3    0    0 -0.12962712615E+03  0.68824282570E+02  0.15309914532E+03  0.22687927822E+03  0.80590848617E+02 0.  0.
          6    2    1    2  501    0  0.20700666889E+03 -0.10719643522E+03  0.39169612270E+03  0.48699611641E+03  0.17145415765E+03 0.  0.
         24    2    5    5    0    0  0.42117226513E+02 -0.48977740470E+02  0.21617360040E+03  0.23918935609E+03  0.79421928503E+02 0.  0.
          5    1    5    5  501    0  0.16488944238E+03 -0.58218694754E+02  0.17552252230E+03  0.24780676032E+03  0.47000000000E+01 0. -1.
        -11    1    6    6    0    0  0.41910221808E+02 -0.46957510468E+01  0.42169003415E+02  0.59638424014E+02  0.00000000000E+00 0.  1.
         12    1    6    6    0    0  0.20700470540E+00 -0.44281989424E+02  0.17400459698E+03  0.17955093207E+03  0.00000000000E+00 0. -1.
         -5    1    3    3    0  503 -0.77379542741E+02  0.38372152653E+02 -0.23656830543E+02  0.89675812599E+02  0.47000000000E+01 0.  1.
         13    1    4    4    0    0 -0.92100659426E+02  0.66075883630E+02  0.64024124204E+02  0.13018311083E+03  0.00000000000E+00 0. -1.
        -14    1    4    4    0    0 -0.37526466728E+02  0.27483989404E+01  0.89075021112E+02  0.96696167390E+02  0.00000000000E+00 0.  1.
</event>
<event>
12    1  0.8500177E-002  0.2589445E+03  0.7818608E-02  0.1107801E+00
         21   -1    0    0  503  502  0.00000000000E+00  0.00000000000E+00  0.32612242719E+03  0.32612242719E+03  0.00000000000E+00 0. -1.
         21   -1    0    0  501  503 -0.00000000000E+00 -0.00000000000E+00 -0.24297737554E+03  0.24297737554E+03  0.00000000000E+00 0.  1.
          6    2    1    2  501    0 -0.18972547504E+03 -0.37718172231E+02 -0.70203594126E+02  0.26815451909E+03  0.17192988422E+03 0.  0.
         24    2    3    3    0    0 -0.78614845261E+02 -0.69563424366E+02  0.23068664986E+01  0.13162778533E+03  0.79380024772E+02 0.  0.
         -6    2    1    2    0  502  0.18972547504E+03  0.37718172231E+02  0.15334864578E+03  0.30094528364E+03  0.17214482329E+03 0.  0.
        -24    2    5    5    0    0  0.10517374448E+03  0.34823320812E+02  0.16611910946E+03  0.21525660266E+03  0.80409366757E+02 0.  0.
          5    1    3    3  501    0 -0.11111062977E+03  0.31845252136E+02 -0.72510460624E+02  0.13652673376E+03  0.47000000000E+01 0. -1.
        -11    1    4    4    0    0 -0.57051594040E+02 -0.75060343956E+02 -0.23884527689E+02  0.97259499692E+02  0.00000000000E+00 0.  1.
         12    1    4    4    0    0 -0.21563251221E+02  0.54969195897E+01  0.26191394188E+02  0.34368285638E+02  0.00000000000E+00 0. -1.
         -5    1    5    5    0  502  0.84551730558E+02  0.28948514181E+01 -0.12770463676E+02  0.85688680977E+02  0.47000000000E+01 0.  1.
         13    1    6    6    0    0  0.10501254324E+03  0.24101189816E+02  0.95952684849E+02  0.14427549798E+03  0.00000000000E+00 0. -1.
        -14    1    6    6    0    0  0.16120123686E+00  0.10722130996E+02  0.70166424609E+02  0.70981104678E+02  0.00000000000E+00 0.  1.
</event>
<event>
12    1  0.8500177E-002  0.2329539E+03  0.7818608E-02  0.1124912E+00
         21   -1    0    0  503  502  0.00000000000E+00  0.00000000000E+00  0.13138512689E+04  0.13138512689E+04  0.00000000000E+00 0. -1.
         21   -1    0    0  501  503 -0.00000000000E+00 -0.00000000000E+00 -0.52433534006E+02  0.52433534006E+02  0.00000000000E+00 0.  1.
          6    2    1    2  501    0  0.55365121013E+02 -0.14849267974E+03  0.30916403893E+03  0.38595086500E+03  0.16810798513E+03 0.  0.
         24    2    3    3    0    0  0.42768786039E+01 -0.15754303505E+03  0.21900563021E+03  0.28182331771E+03  0.81380690304E+02 0.  0.
         -6    2    1    2    0  502 -0.55365121013E+02  0.14849267974E+03  0.95225369596E+03  0.98033393790E+03  0.17074002392E+03 0.  0.
        -24    2    5    5    0    0 -0.87939226045E+02  0.96543514357E+02  0.82364397695E+03  0.83777750021E+03  0.80173446041E+02 0.  0.
          5    1    3    3  501    0  0.51088242409E+02  0.90503553038E+01  0.90158408714E+02  0.10412754729E+03  0.47000000000E+01 0. -1.
        -13    1    4    4    0    0  0.33315422651E+02 -0.65509957005E+02  0.56024658749E+02  0.92413387781E+02  0.00000000000E+00 0.  1.
         14    1    4    4    0    0 -0.29038544047E+02 -0.92033078043E+02  0.16298097146E+03  0.18940992992E+03  0.00000000000E+00 0. -1.
         -5    1    5    5    0  502  0.32574105032E+02  0.51949165387E+02  0.12860971901E+03  0.14255643769E+03  0.47000000000E+01 0.  1.
         11    1    6    6    0    0 -0.30049566217E+02  0.16520657202E+02  0.44985285826E+03  0.45115795752E+03  0.00000000000E+00 0. -1.
        -12    1    6    6    0    0 -0.57889659828E+02  0.80022857154E+02  0.37379111869E+03  0.38661954270E+03  0.00000000000E+00 0.  1.
</event>
<event>
12    1  0.8500177E-002  0.2194036E+03  0.7818608E-02  0.1134368E+00
         21   -1    0    0  501  502  0.00000000000E+00  0.00000000000E+00  0.99262164412E+03  0.99262164412E+03  0.00000000000E+00 0. -1.
         21   -1    0    0  502  503 -0.00000000000E+00 -0.00000000000E+00 -0.83894119472E+02  0.83894119472E+02  0.00000000000E+00 0. -1.
         -6    2    1    2    0  503 -0.12715360803E+03  0.47533831594E+02  0.10462382438E+03  0.24307221605E+03  0.17236720223E+03 0.  0.
        -24    2    3    3    0    0 -0.87699888521E+02  0.14177485790E+02 -0.61964890514E+01  0.12071015633E+03  0.81487875260E+02 0.  0.
          6    2    1    2  501    0  0.12715360803E+03 -0.47533831594E+02  0.80410370027E+03  0.83344354755E+03  0.17209846304E+03 0.  0.
         24    2    5    5    0    0  0.11408554362E+03  0.65528614218E+01  0.36278256326E+03  0.38860359809E+03  0.79643687651E+02 0.  0.
          5    1    5    5  501    0  0.13068064418E+02 -0.54086693016E+02  0.44132113700E+03  0.44483994946E+03  0.47000000000E+01 0. -1.
        -13    1    6    6    0    0  0.64568962188E+02 -0.30804152965E+02  0.24825725943E+03  0.25835965935E+03  0.00000000000E+00 0.  1.
         14    1    6    6    0    0  0.49516581428E+02  0.37357014387E+02  0.11452530383E+03  0.13024393874E+03  0.00000000000E+00 0. -1.
         -5    1    3    3    0  503 -0.39453719513E+02  0.33356345804E+02  0.11082031343E+03  0.12236205972E+03  0.47000000000E+01 0.  1.
         13    1    4    4    0    0 -0.43021785378E+02 -0.39676425395E+01  0.36303890390E+02  0.56432159819E+02  0.00000000000E+00 0. -1.
        -14    1    4    4    0    0 -0.44678103144E+02  0.18145128330E+02 -0.42500379442E+02  0.64277996510E+02  0.00000000000E+00 0.  1.
</event>
<event>
12    1  0.8500177E-002  0.2068012E+03  0.7818608E-02  0.1145252E+00
         21   -1    0    0  501  502  0.00000000000E+00  0.00000000000E+00  0.14328658895E+03  0.14328658895E+03  0.00000000000E+00 0.  1.
         21   -1    0    0  502  503 -0.00000000000E+00 -0.00000000000E+00 -0.29058208071E+03  0.29058208071E+03  0.00000000000E+00 0.  1.
         -6    2    1    2    0  503  0.10493949099E+03 -0.27839415453E+01 -0.72874291562E+02  0.21408410357E+03  0.17175940712E+03 0.  0.
        -24    2    3    3    0    0  0.76045086873E+02 -0.32873912585E+02 -0.10855902629E+03  0.15898616133E+03  0.81412455680E+02 0.  0.
          6    2    1    2  501    0 -0.10493949099E+03  0.27839415453E+01 -0.74421200189E+02  0.21978456609E+03  0.17817601789E+03 0.  0.
         24    2    5    5    0    0 -0.93095135750E+02  0.40515957263E+02 -0.10661147110E+03  0.16857619467E+03  0.82119915656E+02 0.  0.
          5    1    5    5  501    0 -0.11844355240E+02 -0.37732015718E+02  0.32190270913E+02  0.51208371411E+02  0.47000000000E+01 0. -1.
        -13    1    6    6    0    0 -0.17302515823E+01  0.37859126016E+02 -0.42421344361E+02  0.56884775209E+02  0.00000000000E+00 0.  1.
         14    1    6    6    0    0 -0.91364884168E+02  0.26568312471E+01 -0.64190126741E+02  0.11169141947E+03  0.00000000000E+00 0. -1.
         -5    1    3    3    0  503  0.28894404117E+02  0.30089971040E+02  0.35684734730E+02  0.55097942240E+02  0.47000000000E+01 0.  1.
         11    1    4    4    0    0  0.86748344794E+02 -0.46197016030E+02 -0.98546481810E+02  0.13917919633E+03  0.00000000000E+00 0. -1.
        -12    1    4    4    0    0 -0.10703257921E+02  0.13323103445E+02 -0.10012544482E+02  0.19806965001E+02  0.00000000000E+00 0.  1.
</event>
<event>
12    1  0.8500177E-002  0.1769614E+03  0.7818608E-02  0.1171357E+00
         21   -1    0    0  501  502  0.00000000000E+00  0.00000000000E+00  0.13883670220E+03  0.13883670220E+03  0.00000000000E+00 0. -1.
         21   -1    0    0  502  503 -0.00000000000E+00 -0.00000000000E+00 -0.23404664672E+03  0.23404664672E+03  0.00000000000E+00 0. -1.
         -6    2    1    2    0  503 -0.34422202644E+02  0.22596983732E+02 -0.88541637576E+02  0.19579640122E+03  0.16970886080E+03 0.  0.
        -24    2    3    3    0    0  0.42223927073E+02 -0.11282072874E+02 -0.46463384986E+02  0.10190769573E+03  0.79474443178E+02 0.  0.
          6    2    1    2  501    0  0.34422202644E+02 -0.22596983732E+02 -0.66683069394E+01  0.17708694770E+03  0.17210406451E+03 0.  0.
         24    2    5    5    0    0 -0.32167717104E+02  0.30587704346E+02 -0.63218518193E+01  0.91734510776E+02  0.80030525276E+02 0.  0.
          5    1    5    5  501    0  0.66589919748E+02 -0.53184688078E+02 -0.34645512006E+00  0.85352436926E+02  0.47000000000E+01 0. -1.
        -11    1    6    6    0    0 -0.37630144607E+02 -0.18225246492E+02 -0.80822899285E+01  0.42585335543E+02  0.00000000000E+00 0.  1.
         12    1    6    6    0    0  0.54624275027E+01  0.48812950838E+02  0.17604381092E+01  0.49149175233E+02  0.00000000000E+00 0. -1.
         -5    1    3    3    0  503 -0.76646129716E+02  0.33879056607E+02 -0.42078252590E+02  0.93888705487E+02  0.47000000000E+01 0.  1.
         11    1    4    4    0    0 -0.16661872972E+02 -0.24511946083E+02 -0.94522827219E+01  0.31109470589E+02  0.00000000000E+00 0. -1.
        -12    1    4    4    0    0  0.58885800044E+02  0.13229873208E+02 -0.37011102264E+02  0.70798225139E+02  0.00000000000E+00 0.  1.
</event>
<event>
12    1  0.8500177E-002  0.2473279E+03  0.7818608E-02  0.1115199E+00
         21   -1    0    0  503  502  0.00000000000E+00  0.00000000000E+00  0.65631672855E+03  0.65631672855E+03  0.00000000000E+00 0.  1.
         21   -1    0    0  501  503 -0.00000000000E+00 -0.00000000000E+00 -0.94272158140E+02  0.94272158140E+02  0.00000000000E+00 0.  1.
          6    2    1    2  501    0  0.50412694586E+01 -0.17652760697E+03  0.23401598578E+03  0.34049169680E+03  0.17315803063E+03 0.  0.
         24    2    3    3    0    0 -0.40191970570E+02 -0.53105534618E+02  0.52671744527E+02  0.11646741736E+03  0.79716712983E+02 0.  0.
         -6    2    1    2    0  502 -0.50412694586E+01  0.17652760697E+03  0.32802858463E+03  0.41009718989E+03  0.17143378430E+03 0.  0.
        -24    2    5    5    0    0  0.18377237124E+02  0.12071413351E+03  0.80423967550E+02  0.15515855674E+03  0.51928203325E+02 0.  0.
          5    1    3    3  501    0  0.45233240028E+02 -0.12342207235E+03  0.18134424125E+03  0.22402427945E+03  0.47000000000E+01 0. -1.
        -11    1    4    4    0    0 -0.40480067838E+02 -0.41386287197E+02  0.72898271478E+02  0.93089304673E+02  0.00000000000E+00 0.  1.
         12    1    4    4    0    0  0.28809726850E+00 -0.11719247421E+02 -0.20226526951E+02  0.23378112683E+02  0.00000000000E+00 0. -1.
         -5    1    5    5    0  502 -0.23418506583E+02  0.55813473454E+02  0.24760461708E+03  0.25493863315E+03  0.47000000000E+01 0.  1.
         11    1    6    6    0    0  0.17752502121E+02  0.60804056481E+02  0.69895048002E+02  0.94327102952E+02  0.00000000000E+00 0. -1.
        -12    1    6    6    0    0  0.62473500369E+00  0.59910077030E+02  0.10528919548E+02  0.60831453792E+02  0.00000000000E+00 0.  1.
</event>
<event>
12    1  0.8500177E-002  0.1872978E+03  0.7818608E-02  0.1161444E+00
         21   -1    0    0  501  502  0.00000000000E+00  0.00000000000E+00  0.65136347185E+02  0.65136347185E+02  0.00000000000E+00 0. -1.
         21   -1    0    0  502  503 -0.00000000000E+00 -0.00000000000E+00 -0.53447345511E+03  0.53447345511E+03  0.00000000000E+00 0. -1.
         -6    2    1    2    0  503 -0.70750270123E+02 -0.19456963942E+02 -0.21604996119E+03  0.28593366360E+03  0.17232614450E+03 0.  0.
        -24    2    3    3    0    0 -0.59464745973E+02 -0.17028243806E+02 -0.29810153869E+02  0.99277247773E+02  0.71702925679E+02 0.  0.
          6    2    1    2  501    0  0.70750270123E+02  0.19456963942E+02 -0.25328714673E+03  0.31367613869E+03  0.16986514392E+03 0.  0.
         24    2    5    5    0    0  0.13925514167E+02  0.26579416449E+02 -0.23444957348E+03  0.25320526649E+03  0.90807043507E+02 0.  0.
          5    1    5    5  501    0  0.56824755956E+02 -0.71224525070E+01 -0.18837573251E+02  0.60470872204E+02  0.47000000000E+01 0. -1.
        -13    1    6    6    0    0 -0.36213788383E+02  0.26948689509E+02 -0.10023402540E+03  0.10992966016E+03  0.00000000000E+00 0.  1.
         14    1    6    6    0    0  0.50139302550E+02 -0.36927305984E+00 -0.13421554808E+03  0.14327560633E+03  0.00000000000E+00 0. -1.
         -5    1    3    3    0  503 -0.11285524150E+02 -0.24287201365E+01 -0.18623980732E+03  0.18665641583E+03  0.47000000000E+01 0.  1.
         13    1    4    4    0    0 -0.48493023439E+02 -0.44039511738E+02 -0.19373128283E+02  0.68310833810E+02  0.00000000000E+00 0. -1.
        -14    1    4    4    0    0 -0.10971722534E+02  0.27011267932E+02 -0.10437025586E+02  0.30966413963E+02  0.00000000000E+00 0.  1.
</event>
<event>
12    1  0.8500177E-002  0.1731149E+03  0.7818608E-02  0.1174837E+00
         21   -1    0    0  501  502  0.00000000000E+00  0.00000000000E+00  0.32439072035E+02  0.32439072035E+02  0.00000000000E+00 0.  1.
         21   -1    0    0  502  503 -0.00000000000E+00 -0.00000000000E+00 -0.92498293897E+03  0.92498293897E+03  0.00000000000E+00 0.  1.
         -6    2    1    2    0  503 -0.82222280303E+01 -0.71068767527E+00 -0.48351461372E+03  0.51357097183E+03  0.17291804797E+03 0.  0.
        -24    2    3    3    0    0 -0.89242084940E+01  0.32226219544E+02 -0.15203065412E+03  0.18042079833E+03  0.91214987545E+02 0.  0.
          6    2    1    2  501    0  0.82222280303E+01  0.71068767527E+00 -0.40902925321E+03  0.44385103918E+03  0.17213571646E+03 0.  0.
         24    2    5    5    0    0  0.30606499150E+02 -0.40204245588E+02 -0.12968523149E+03  0.16060157345E+03  0.80134056281E+02 0.  0.
          5    1    5    5  501    0 -0.22384271120E+02  0.40914933263E+02 -0.27934402173E+03  0.28324946572E+03  0.47000000000E+01 0. -1.
        -11    1    6    6    0    0  0.43649440196E+02 -0.22345914592E+02 -0.12951429748E+03  0.13848670254E+03  0.00000000000E+00 0.  1.
         12    1    6    6    0    0 -0.13042941045E+02 -0.17858330995E+02 -0.17093400583E+00  0.22114870913E+02  0.00000000000E+00 0. -1.
         -5    1    3    3    0  503  0.70198046370E+00 -0.32936907220E+02 -0.33148395960E+03  0.33315017350E+03  0.47000000000E+01 0.  1.
         11    1    4    4    0    0  0.27593817450E+02  0.37572737693E+02 -0.12839036274E+03  0.13659141490E+03  0.00000000000E+00 0. -1.
        -12    1    4    4    0    0 -0.36518025944E+02 -0.53465181485E+01 -0.23640291383E+02  0.43829383430E+02  0.00000000000E+00 0.  1.
</event>
<event>
12    1  0.8500177E-002  0.2422347E+03  0.7818608E-02  0.1118371E+00
         21   -1    0    0  501  502  0.00000000000E+00  0.00000000000E+00  0.62776889429E+03  0.62776889429E+03  0.00000000000E+00 0. -1.
         21   -1    0    0  502  503 -0.00000000000E+00 -0.00000000000E+00 -0.93336440998E+02  0.93336440998E+02  0.00000000000E+00 0.  1.
         -6    2    1    2    0  503  0.69263635519E+02  0.15565666604E+03  0.26560015870E+03  0.35923732683E+03  0.17170196214E+03 0.  0.
        -24    2    3    3    0    0  0.50128943631E+02  0.14290307941E+03  0.10458504086E+03  0.19652055272E+03  0.68906427674E+02 0.  0.
          6    2    1    2  501    0 -0.69263635519E+02 -0.15565666604E+03  0.26883229459E+03  0.36186800846E+03  0.17219524977E+03 0.  0.
         24    2    5    5    0    0 -0.93678398343E+02 -0.88935601557E+02  0.10781007682E+03  0.18580544655E+03  0.78838237954E+02 0.  0.
          5    1    5    5  501    0  0.24414762823E+02 -0.66721064478E+02  0.16102221777E+03  0.17606256190E+03  0.47000000000E+01 0. -1.
        -11    1    6    6    0    0 -0.80704844618E+02 -0.35628558703E+02  0.35632773944E+02  0.95143894807E+02  0.00000000000E+00 0.  1.
         12    1    6    6    0    0 -0.12973553725E+02 -0.53307042854E+02  0.72177302879E+02  0.90661551746E+02  0.00000000000E+00 0. -1.
         -5    1    3    3    0  503  0.19134691888E+02  0.12753586627E+02  0.16101511784E+03  0.16271677411E+03  0.47000000000E+01 0.  1.
         13    1    4    4    0    0  0.65837878014E+02  0.13109814800E+03  0.93387406534E+02  0.17390387658E+03  0.00000000000E+00 0. -1.
        -14    1    4    4    0    0 -0.15708934383E+02  0.11804931405E+02  0.11197634328E+02  0.22616676137E+02  0.00000000000E+00 0.  1.
</event>
<event>
12    1  0.8500177E-002  0.2028783E+03  0.7818608E-02  0.1148317E+00
         21   -1    0    0  501  502  0.00000000000E+00  0.00000000000E+00  0.72022036340E+02  0.72022036340E+02  0.00000000000E+00 0.  1.
         21   -1    0    0  502  503 -0.00000000000E+00 -0.00000000000E+00 -0.66451427497E+03  0.66451427497E+03  0.00000000000E+00 0.  1.
         -6    2    1    2    0  503  0.54576495903E+02  0.81856157916E+02 -0.44635227302E+03  0.49029578938E+03  0.17742768938E+03 0.  0.
        -24    2    3    3    0    0  0.16533342989E+02  0.54621302859E+02 -0.96027582217E+02  0.13682938673E+03  0.79019911228E+02 0.  0.
          6    2    1    2  501    0 -0.54576495903E+02 -0.81856157916E+02 -0.14613996561E+03  0.24624052193E+03  0.17204208961E+03 0.  0.
         24    2    5    5    0    0 -0.92109711674E+02 -0.59617498515E+02 -0.14976011147E+03  0.20221217068E+03  0.80145030220E+02 0.  0.
          5    1    5    5  501    0  0.37533215772E+02 -0.22238659401E+02  0.36201458593E+01  0.44028351254E+02  0.47000000000E+01 0. -1.
        -13    1    6    6    0    0 -0.92271612915E+01 -0.36314202019E+02 -0.11243252708E+02  0.39118697643E+02  0.00000000000E+00 0.  1.
         14    1    6    6    0    0 -0.82882550383E+02 -0.23303296496E+02 -0.13851685876E+03  0.16309347303E+03  0.00000000000E+00 0. -1.
         -5    1    3    3    0  503  0.38043152913E+02  0.27234855058E+02 -0.35032469080E+03  0.35346640264E+03  0.47000000000E+01 0.  1.
         11    1    4    4    0    0  0.45757512686E+02  0.47713014795E+02 -0.55058190798E+02  0.86033052497E+02  0.00000000000E+00 0. -1.
        -12    1    4    4    0    0 -0.29224169696E+02  0.69082880631E+01 -0.40969391419E+02  0.50796334234E+02  0.00000000000E+00 0.  1.
</event>
<event>
12    1  0.8500177E-002  0.1883909E+03  0.7818608E-02  0.1159984E+00
         21   -1    0    0  503  502  0.00000000000E+00  0.00000000000E+00  0.58615032904E+02  0.58615032904E+02  0.00000000000E+00 0. -1.
         21   -1    0    0  501  503 -0.00000000000E+00 -0.00000000000E+00 -0.62467652742E+03  0.62467652742E+03  0.00000000000E+00 0.  1.
          6    2    1    2  501    0 -0.27835142065E+02 -0.71565618999E+02 -0.22158887437E+03  0.29066893055E+03  0.17172758947E+03 0.  0.
         24    2    3    3    0    0  0.71003964244E+01 -0.10337157893E+03 -0.19745905024E+03  0.23741060398E+03  0.81471586457E+02 0.  0.
         -6    2    1    2    0  502  0.27835142065E+02  0.71565618999E+02 -0.34447262015E+03  0.39262262978E+03  0.17203113213E+03 0.  0.
        -24    2    5    5    0    0  0.28222799903E+02  0.29665694629E+02 -0.64716918227E+02  0.10970727724E+03  0.78554613505E+02 0.  0.
          5    1    3    3  501    0 -0.34935538490E+02  0.31805959931E+02 -0.24129824126E+02  0.53258326570E+02  0.47000000000E+01 0. -1.
        -13    1    4    4    0    0  0.81690971166E+01 -0.38801596020E+01 -0.91925053974E+02  0.92368854785E+02  0.00000000000E+00 0.  1.
         14    1    4    4    0    0 -0.10687006922E+01 -0.99491419328E+02 -0.10553399627E+03  0.14504174919E+03  0.00000000000E+00 0. -1.
         -5    1    5    5    0  502 -0.38765783720E+00  0.41899924370E+02 -0.27975570193E+03  0.28291535254E+03  0.47000000000E+01 0.  1.
         11    1    6    6    0    0  0.20874347524E+02 -0.24677961287E+02 -0.33743343916E+02  0.46726367465E+02  0.00000000000E+00 0. -1.
        -12    1    6    6    0    0  0.73484523788E+01  0.54343655916E+02 -0.30973574311E+02  0.62980909777E+02  0.00000000000E+00 0.  1.
</event>
<event>
12    1  0.8500177E-002  0.1821238E+03  0.7818608E-02  0.1168626E+00
         21   -1    0    0  501  502  0.00000000000E+00  0.00000000000E+00  0.26225576462E+03  0.26225576462E+03  0.00000000000E+00 0.  1.
         21   -1    0    0  502  503 -0.00000000000E+00 -0.00000000000E+00 -0.30747857747E+03  0.30747857747E+03  0.00000000000E+00 0.  1.
         -6    2    1    2    0  503 -0.18015419440E+02 -0.61119542048E+02 -0.24614925776E+03  0.30620014722E+03  0.17061336202E+03 0.  0.
        -24    2    3    3    0    0 -0.59572467931E+02 -0.53180727758E+02 -0.92329342516E+02  0.14659855143E+03  0.81174867117E+02 0.  0.
          6    2    1    2  501    0  0.18015419440E+02  0.61119542048E+02  0.20092644491E+03  0.26353419487E+03  0.15817294915E+03 0.  0.
         24    2    5    5    0    0 -0.23770152290E+02  0.45271020070E+02  0.19699731251E+03  0.21842612757E+03  0.79294051940E+02 0.  0.
          5    1    5    5  501    0  0.41785571730E+02  0.15848521978E+02  0.39291324041E+01  0.45108067295E+02  0.47000000000E+01 0. -1.
        -13    1    6    6    0    0  0.10202842333E+02 -0.11102500208E+02  0.10046489007E+03  0.10159014538E+03  0.00000000000E+00 0.  1.
         14    1    6    6    0    0 -0.33972994623E+02  0.56373520277E+02  0.96532422438E+02  0.11683598219E+03  0.00000000000E+00 0. -1.
         -5    1    3    3    0  503  0.41557048491E+02 -0.79388142899E+01 -0.15381991525E+03  0.15960159579E+03  0.47000000000E+01 0.  1.
         11    1    4    4    0    0 -0.14401828344E+02 -0.22185937165E+02  0.11780548107E+02  0.28955306616E+02  0.00000000000E+00 0. -1.
        -12    1    4    4    0    0 -0.45170639586E+02 -0.30994790593E+02 -0.10410989062E+03  0.11764324481E+03  0.00000000000E+00 0.  1.
</event>
<event>
12    1  0.8500177E-002  0.2100308E+03  0.7818608E-02  0.1141621E+00
         21   -1    0    0  503  502  0.00000000000E+00  0.00000000000E+00  0.34291046399E+03  0.34291046399E+03  0.00000000000E+00 0.  1.
         21   -1    0    0  501  503 -0.00000000000E+00 -0.00000000000E+00 -0.13023677756E+03  0.13023677756E+03  0.00000000000E+00 0. -1.
          6    2    1    2  501    0 -0.10995656101E+03  0.50764659214E+02  0.13436217042E+03  0.24899185285E+03  0.17110305086E+03 0.  0.
         24    2    3    3    0    0 -0.10579360020E+03  0.77741102912E+02  0.52841250895E+02  0.16289418112E+03  0.80661958333E+02 0.  0.
         -6    2    1    2    0  502  0.10995656101E+03 -0.50764659214E+02  0.78311516011E+02  0.22415538870E+03  0.17159676224E+03 0.  0.
        -24    2    5    5    0    0  0.11516147081E+03  0.14838135398E+02  0.73917479828E+02  0.15803265962E+03  0.77641439088E+02 0.  0.
          5    1    3    3  501    0 -0.41629608073E+01 -0.26976443698E+02  0.81520919524E+02  0.86097671730E+02  0.47000000000E+01 0. -1.
        -11    1    4    4    0    0 -0.15454435744E+02  0.36067091452E+02  0.49744807937E+02  0.63357877069E+02  0.00000000000E+00 0.  1.
         12    1    4    4    0    0 -0.90339164454E+02  0.41674011460E+02  0.30964429580E+01  0.99536304053E+02  0.00000000000E+00 0. -1.
         -5    1    5    5    0  502 -0.52049097999E+01 -0.65602794612E+02  0.43940361830E+01  0.66122729079E+02  0.47000000000E+01 0.  1.
         11    1    6    6    0    0  0.10297879325E+03 -0.12708498099E+02  0.36487478677E+02  0.10998851705E+03  0.00000000000E+00 0. -1.
        -12    1    6    6    0    0  0.12182677557E+02  0.27546633497E+02  0.37430001151E+02  0.48044142573E+02  0.00000000000E+00 0.  1.
</event>
<event>
12    1  0.8500177E-002  0.1966535E+03  0.7818608E-02  0.1153124E+00
         21   -1    0    0  503  502  0.00000000000E+00  0.00000000000E+00  0.15885630406E+03  0.15885630406E+03  0.00000000000E+00 0. -1.
         21   -1    0    0  501  503 -0.00000000000E+00 -0.00000000000E+00 -0.41222907863E+03  0.41222907863E+03  0.00000000000E+00 0. -1.
          6    2    1    2  501    0 -0.10615518535E+02 -0.91053902249E+02 -0.31056016320E+03  0.36628545308E+03  0.17121307141E+03 0.  0.
         24    2    3    3    0    0 -0.64439183510E+02 -0.80667850064E+02 -0.26307767755E+03  0.29361129374E+03  0.79611663619E+02 0.  0.
         -6    2    1    2    0  502  0.10615518535E+02  0.91053902249E+02  0.57187388637E+02  0.20479992961E+03  0.17398020405E+03 0.  0.
        -24    2    5    5    0    0  0.39756882358E+02  0.90761253250E+02  0.93947167657E+02  0.15765466386E+03  0.78808044900E+02 0.  0.
          5    1    3    3  501    0  0.53823664975E+02 -0.10386052185E+02 -0.47482485651E+02  0.72674159334E+02  0.47000000000E+01 0.  1.
        -13    1    4    4    0    0  0.10997421152E+02  0.76687046890E+01 -0.18483564480E+02  0.22834063578E+02  0.00000000000E+00 0.  1.
         14    1    4    4    0    0 -0.75436604662E+02 -0.88336554753E+02 -0.24459411307E+03  0.27077723017E+03  0.00000000000E+00 0. -1.
         -5    1    5    5    0  502 -0.29141363823E+02  0.29264899941E+00 -0.36759779020E+02  0.47145265748E+02  0.47000000000E+01 0.  1.
         11    1    6    6    0    0 -0.18513426379E+01 -0.11192418439E+02  0.25728699259E+02  0.28118742248E+02  0.00000000000E+00 0. -1.
        -12    1    6    6    0    0  0.41608224996E+02  0.10195367169E+03  0.68218468398E+02  0.12953592162E+03  0.00000000000E+00 0.  1.
</event>
<event>
12    1  0.8500177E-002  0.1959204E+03  0.7818608E-02  0.1154223E+00
         21   -1    0    0  501  502  0.00000000000E+00  0.00000000000E+00  0.37065417882E+03  0.37065417882E+03  0.00000000000E+00 0.  1.
         21   -1    0    0  502  503 -0.00000000000E+00 -0.00000000000E+00 -0.11523642515E+03  0.11523642515E+03  0.00000000000E+00 0.  1.
         -6    2    1    2    0  503  0.56595681544E+02  0.61034334508E+02  0.21125574252E+03  0.28505468160E+03  0.17233375060E+03 0.  0.
        -24    2    3    3    0    0 -0.19099106027E+02  0.77533965157E+02  0.12599921017E+03  0.16976068789E+03  0.81034551803E+02 0.  0.
          6    2    1    2  501    0 -0.56595681544E+02 -0.61034334508E+02  0.44162011147E+02  0.20083592236E+03  0.17735986954E+03 0.  0.
         24    2    5    5    0    0 -0.64515327153E+02 -0.10970495054E+03  0.49996629476E+02  0.15095925023E+03  0.63965839812E+02 0.  0.
          5    1    5    5  501    0  0.79196456091E+01  0.48670616027E+02 -0.58346183290E+01  0.49876672123E+02  0.47000000000E+01 0. -1.
        -13    1    6    6    0    0 -0.57448519748E+02 -0.57101343171E+02  0.54600595048E+02  0.97683779579E+02  0.00000000000E+00 0.  1.
         14    1    6    6    0    0 -0.70668074050E+01 -0.52603607364E+02 -0.46039655720E+01  0.53275470656E+02  0.00000000000E+00 0. -1.
         -5    1    3    3    0  503  0.75694787571E+02 -0.16499630649E+02  0.85256532357E+02  0.11529399371E+03  0.47000000000E+01 0.  1.
         13    1    4    4    0    0 -0.52036199534E+01  0.56204629084E+02  0.13203885368E+03  0.14359769104E+03  0.00000000000E+00 0. -1.
        -14    1    4    4    0    0 -0.13895486073E+02  0.21329336072E+02 -0.60396435102E+01  0.26162996851E+02  0.00000000000E+00 0.  1.
</event>
<event>
12    1  0.8500177E-002  0.2723381E+03  0.7818608E-02  0.1100101E+00
         21   -1    0    0  503  502  0.00000000000E+00  0.00000000000E+00  0.14760060977E+04  0.14760060977E+04  0.00000000000E+00 0. -1.
         21   -1    0    0  501  503 -0.00000000000E+00 -0.00000000000E+00 -0.20152129637E+03  0.20152129637E+03  0.00000000000E+00 0.  1.
          6    2    1    2  501    0 -0.20543174308E+03 -0.44900929131E+02 -0.89626027550E+02  0.28670694392E+03  0.17305996758E+03 0.  0.
         24    2    3    3    0    0 -0.10770542293E+03 -0.79925966730E+02 -0.90771790678E+01  0.15522540948E+03  0.77613879435E+02 0.  0.
         -6    2    1    2    0  502  0.20543174308E+03  0.44900929131E+02  0.13641108288E+04  0.13908204501E+04  0.17136182943E+03 0.  0.
        -24    2    5    5    0    0  0.49320016843E+02  0.30133646551E+02  0.25166205974E+03  0.26736448855E+03  0.69350390821E+02 0.  0.
          5    1    3    3  501    0 -0.97726320150E+02  0.35025037599E+02 -0.80548848482E+02  0.13148153445E+03  0.47000000000E+01 0. -1.
        -13    1    4    4    0    0 -0.33148006018E+02 -0.29579888012E+02 -0.40315179685E+02  0.59992281093E+02  0.00000000000E+00 0.  1.
         14    1    4    4    0    0 -0.74557416913E+02 -0.50346078718E+02  0.31238000618E+02  0.95233128383E+02  0.00000000000E+00 0. -1.
         -5    1    5    5    0  502  0.15611172624E+03  0.14767282580E+02  0.11124487691E+04  0.11234559616E+04  0.47000000000E+01 0.  1.
         11    1    6    6    0    0  0.26994359996E+02  0.34635129812E+02  0.23519695321E+03  0.23926114287E+03  0.00000000000E+00 0. -1.
        -12    1    6    6    0    0  0.22325656847E+02 -0.45014832603E+01  0.16465106535E+02  0.28103345680E+02  0.00000000000E+00 0.  1.
</event>
<event>
12    1  0.8500177E-002  0.1887402E+03  0.7818608E-02  0.1159730E+00
         21   -1    0    0  501  502  0.00000000000E+00  0.00000000000E+00  0.36880973605E+03  0.36880973605E+03  0.00000000000E+00 0. -1.
         21   -1    0    0  502  503 -0.00000000000E+00 -0.00000000000E+00 -0.13759344374E+03  0.13759344374E+03  0.00000000000E+00 0.  1.
         -6    2    1    2    0  503 -0.77300271265E+02  0.45289412237E+01 -0.23218990836E+02  0.18960646056E+03  0.17150989798E+03 0.  0.
        -24    2    3    3    0    0 -0.48047331543E+02 -0.31484417957E+02 -0.71387899712E+02  0.12256147340E+03  0.81395748621E+02 0.  0.
          6    2    1    2  501    0  0.77300271265E+02 -0.45289412237E+01  0.25443528315E+03  0.31679671923E+03  0.17212496843E+03 0.  0.
         24    2    5    5    0    0  0.45975181990E+02 -0.47525471359E+02  0.71471610503E+02  0.12619829760E+03  0.80283444256E+02 0.  0.
          5    1    5    5  501    0  0.31325089276E+02  0.42996530135E+02  0.18296367264E+03  0.19059842163E+03  0.47000000000E+01 0. -1.
        -11    1    6    6    0    0 -0.10488682039E+02 -0.98000382411E+01 -0.11917604180E+02  0.18656968935E+02  0.00000000000E+00 0.  1.
         12    1    6    6    0    0  0.56463864028E+02 -0.37725433118E+02  0.83389214683E+02  0.10754132866E+03  0.00000000000E+00 0. -1.
         -5    1    3    3    0  503 -0.29252939722E+02  0.36013359181E+02  0.48168908876E+02  0.67044987166E+02  0.47000000000E+01 0.  1.
         13    1    4    4    0    0  0.69744754820E+01 -0.25738377993E+02  0.60969979398E+01  0.27354721600E+02  0.00000000000E+00 0. -1.
        -14    1    4    4    0    0 -0.55021807025E+02 -0.57460399638E+01 -0.77484897652E+02  0.95206751797E+02  0.00000000000E+00 0.  1.
</event>
<event>
12    1  0.8500177E-002  0.1752676E+03  0.7818608E-02  0.1173236E+00
         21   -1    0    0  503  502  0.00000000000E+00  0.00000000000E+00  0.40987580661E+02  0.40987580661E+02  0.00000000000E+00 0.  1.
         21   -1    0    0  501  503 -0.00000000000E+00 -0.00000000000E+00 -0.10657365782E+04  0.10657365782E+04  0.00000000000E+00 0.  1.
          6    2    1    2  501    0 -0.14808614636E+02 -0.14838673364E+02 -0.81683805298E+03  0.83479458176E+03  0.17093305019E+03 0.  0.
         24    2    3    3    0    0 -0.21536242330E+01 -0.73995918057E+02 -0.45062043231E+03  0.46358417772E+03  0.79821562428E+02 0.  0.
         -6    2    1    2    0  502  0.14808614636E+02  0.14838673364E+02 -0.20791094454E+03  0.27192957708E+03  0.17400934670E+03 0.  0.
        -24    2    5    5    0    0  0.74191884821E+02  0.50870317578E+01 -0.16514982549E+03  0.19795613188E+03  0.79886492139E+02 0.  0.
          5    1    3    3  501    0 -0.12654990403E+02  0.59157244693E+02 -0.36621762066E+03  0.37121040404E+03  0.47000000000E+01 0. -1.
        -11    1    4    4    0    0 -0.22950754674E+02  0.69211126571E+01 -0.13395005804E+03  0.13607812825E+03  0.00000000000E+00 0.  1.
         12    1    4    4    0    0  0.20797130441E+02 -0.80917030714E+02 -0.31667037428E+03  0.32750604947E+03  0.00000000000E+00 0. -1.
         -5    1    5    5    0  502 -0.59383270186E+02  0.97516416065E+01 -0.42761119057E+02  0.73973445202E+02  0.47000000000E+01 0.  1.
         13    1    6    6    0    0  0.34529470706E+02 -0.31423933433E+02 -0.39228739844E+02  0.60980668817E+02  0.00000000000E+00 0. -1.
        -14    1    6    6    0    0  0.39662414116E+02  0.36510965191E+02 -0.12592108564E+03  0.13697546307E+03  0.00000000000E+00 0.  1.
</event>
<event>
12    1  0.8500177E-002  0.1796415E+03  0.7818608E-02  0.1168329E+00
         21   -1    0    0  503  502  0.00000000000E+00  0.00000000000E+00  0.46980396689E+03  0.46980396689E+03  0.00000000000E+00 0.  1.
         21   -1    0    0  501  503 -0.00000000000E+00 -0.00000000000E+00 -0.70325665123E+02  0.70325665123E+02  0.00000000000E+00 0.  1.
          6    2    1    2  501    0  0.71988796473E+01  0.47852818724E+02  0.15556494118E+03  0.23763735539E+03  0.17300099891E+03 0.  0.
         24    2    3    3    0    0  0.17245392571E+02  0.36525826469E+02  0.18428369819E+03  0.20483354190E+03  0.79779439107E+02 0.  0.
         -6    2    1    2    0  502 -0.71988796473E+01 -0.47852818724E+02  0.24391336058E+03  0.30249227662E+03  0.17223859560E+03 0.  0.
        -24    2    5    5    0    0  0.16637034248E+02  0.32104286627E+02  0.80176309646E+02  0.11866300436E+03  0.79656712511E+02 0.  0.
          5    1    3    3  501    0 -0.10046512924E+02  0.11326992255E+02 -0.28718757009E+02  0.32803813492E+02  0.47000000000E+01 0. -1.
        -11    1    4    4    0    0  0.13132352998E+02  0.59308758077E+02  0.16064473711E+03  0.17174608887E+03  0.00000000000E+00 0.  1.
         12    1    4    4    0    0  0.41130395732E+01 -0.22782931608E+02  0.23638961075E+02  0.33087453028E+02  0.00000000000E+00 0. -1.
         -5    1    5    5    0  502 -0.23835913895E+02 -0.79957105351E+02  0.16373705094E+03  0.18382927225E+03  0.47000000000E+01 0.  1.
         13    1    6    6    0    0 -0.86004421915E+01  0.10506126450E+02  0.84123080498E+02  0.85211730245E+02  0.00000000000E+00 0. -1.
        -14    1    6    6    0    0  0.25237476439E+02  0.21598160177E+02 -0.39467708525E+01  0.33451274119E+02  0.00000000000E+00 0.  1.
</event>
<event>
12    1  0.8500177E-002  0.1884366E+03  0.7818608E-02  0.1160009E+00
         21   -1    0    0  503  502  0.00000000000E+00  0.00000000000E+00  0.49709148783E+03  0.49709148783E+03  0.00000000000E+00 0.  1.
         21   -1    0    0  501  503 -0.00000000000E+00 -0.00000000000E+00 -0.72991507987E+02  0.72991507987E+02  0.00000000000E+00 0.  1.
          6    2    1    2  501    0  0.18236464199E+01 -0.75710782496E+02  0.16792032964E+03  0.25239969913E+03  0.17254832002E+03 0.  0.
         24    2    3    3    0    0 -0.51368688635E+02 -0.87326935009E+02  0.13698373090E+03  0.18960222586E+03  0.83184889065E+02 0.  0.
         -6    2    1    2    0  502 -0.18236464199E+01  0.75710782496E+02  0.25617965020E+03  0.31768329668E+03  0.17192793706E+03 0.  0.
        -24    2    5    5    0    0 -0.38265337759E+02  0.84798703303E+02  0.97874279781E+02  0.15491577082E+03  0.75924075566E+02 0.  0.
          5    1    3    3  501    0  0.53192335054E+02  0.11616152514E+02  0.30936598737E+02  0.62797473271E+02  0.47000000000E+01 0. -1.
        -11    1    4    4    0    0 -0.65720912371E+02 -0.32646371886E+02  0.89771256038E+02  0.11594784315E+03  0.00000000000E+00 0.  1.
         12    1    4    4    0    0  0.14352223737E+02 -0.54680563123E+02  0.47212474866E+02  0.73654382712E+02  0.00000000000E+00 0. -1.
         -5    1    5    5    0  502  0.36441691339E+02 -0.90879208074E+01  0.15830537042E+03  0.16276752586E+03  0.47000000000E+01 0.  1.
         13    1    6    6    0    0 -0.43806450182E+02  0.76497805435E+02  0.10885799740E+03  0.14007491892E+03  0.00000000000E+00 0. -1.
        -14    1    6    6    0    0  0.55411124237E+01  0.83008978681E+01 -0.10983717617E+02  0.14840851896E+02  0.00000000000E+00 0.  1.
</event>
<event>
12    1  0.8500177E-002  0.2405844E+03  0.7818608E-02  0.1119580E+00
         21   -1    0    0  501  502  0.00000000000E+00  0.00000000000E+00  0.92497536524E+02  0.92497536524E+02  0.00000000000E+00 0. -1.
         21   -1    0    0  502  503 -0.00000000000E+00 -0.00000000000E+00 -0.20384259493E+04  0.20384259493E+04  0.00000000000E+00 0.  1.
         -6    2    1    2    0  503  0.71273963685E+02  0.15005007164E+03 -0.18614507346E+04  0.18769335911E+04  0.17402834896E+03 0.  0.
        -24    2    3    3    0    0  0.78512603585E+02  0.83372664496E+02 -0.16433116843E+04  0.16486683730E+04  0.67222632537E+02 0.  0.
          6    2    1    2  501    0 -0.71273963685E+02 -0.15005007164E+03 -0.84477678192E+02  0.25398989472E+03  0.17256704960E+03 0.  0.
         24    2    5    5    0    0 -0.21421334369E+02 -0.16389842046E+03 -0.85504238670E+02  0.20202639559E+03  0.78626483390E+02 0.  0.
          5    1    5    5  501    0 -0.49852629316E+02  0.13848348820E+02  0.10265604775E+01  0.51963499124E+02  0.47000000000E+01 0. -1.
        -11    1    6    6    0    0 -0.19020437958E+02 -0.44012868739E+02 -0.64376326303E+02  0.80269677108E+02  0.00000000000E+00 0.  1.
         12    1    6    6    0    0 -0.24008964114E+01 -0.11988555172E+03 -0.21127912366E+02  0.12175671849E+03  0.00000000000E+00 0. -1.
         -5    1    3    3    0  503 -0.72386398995E+01  0.66677407147E+02 -0.21813905033E+03  0.22826521813E+03  0.47000000000E+01 0.  1.
         11    1    4    4    0    0  0.10398817986E+02 -0.55639920793E+01 -0.43884713195E+03  0.43900557928E+03  0.00000000000E+00 0. -1.
        -12    1    4    4    0    0  0.68113785599E+02  0.88936656575E+02 -0.12044645523E+04  0.12096627937E+04  0.00000000000E+00 0.  1.
</event>
<event>
12    1  0.8500177E-002  0.3785746E+03  0.7818608E-02  0.1051504E+00
         21   -1    0    0  503  502  0.00000000000E+00  0.00000000000E+00  0.48270668040E+03  0.48270668040E+03  0.00000000000E+00 0. -1.
         21   -1    0    0  501  503 -0.00000000000E+00 -0.00000000000E+00 -0.38097503848E+03  0.38097503848E+03  0.00000000000E+00 0.  1.
          6    2    1    2  501    0 -0.30430822410E+03 -0.14510586394E+03 -0.15239807385E+03  0.40809794552E+03  0.17221949140E+03 0.  0.
         24    2    3    3    0    0 -0.29044349644E+03 -0.11333009972E+03 -0.85495011575E+02  0.33259933886E+03  0.78177919400E+02 0.  0.
         -6    2    1    2    0  502  0.30430822410E+03  0.14510586394E+03  0.25412971577E+03  0.45558377337E+03  0.17121756660E+03 0.  0.
        -24    2    5    5    0    0  0.26119562011E+03  0.10368623412E+03  0.26619946851E+03  0.39441146519E+03  0.75658837729E+02 0.  0.
          5    1    3    3  501    0 -0.13864727662E+02 -0.31775764222E+02 -0.66903062276E+02  0.75498606656E+02  0.47000000000E+01 0. -1.
        -11    1    4    4    0    0 -0.15001875318E+03 -0.88299489515E+02 -0.18640735113E+02  0.17507113743E+03  0.00000000000E+00 0.  1.
         12    1    4    4    0    0 -0.14042474325E+03 -0.25030610205E+02 -0.66854276463E+02  0.15752820143E+03  0.00000000000E+00 0. -1.
         -5    1    5    5    0  502  0.43112603988E+02  0.41419629819E+02 -0.12069752735E+02  0.61172308180E+02  0.47000000000E+01 0.  1.
         13    1    6    6    0    0  0.23088197679E+03  0.11033050488E+03  0.21352488672E+03  0.33327493869E+03  0.00000000000E+00 0. -1.
        -14    1    6    6    0    0  0.30313643324E+02 -0.66442707563E+01  0.52674581787E+02  0.61136526495E+02  0.00000000000E+00 0.  1.
</event>
<event>
12    1  0.8500177E-002  0.2200804E+03  0.7818608E-02  0.1136533E+00
         21   -1    0    0  503  502  0.00000000000E+00  0.00000000000E+00  0.50468592109E+03  0.50468592109E+03  0.00000000000E+00 0.  1.
         21   -1    0    0  501  503 -0.00000000000E+00 -0.00000000000E+00 -0.11848926155E+03  0.11848926155E+03  0.00000000000E+00 0.  1.
          6    2    1    2  501    0 -0.13624520066E+03  0.21135314123E+02  0.45060465957E+02  0.22464603413E+03  0.17153990455E+03 0.  0.
         24    2    3    3    0    0 -0.64076528286E+02  0.59572103326E+02 -0.32911535536E+02  0.11156452789E+03  0.60900227754E+02 0.  0.
         -6    2    1    2    0  502  0.13624520066E+03 -0.21135314123E+02  0.34113619358E+03  0.39852914850E+03  0.15310820824E+03 0.  0.
        -24    2    5    5    0    0  0.92533755001E+02  0.16752669807E+02  0.12915331748E+03  0.17874511913E+03  0.80162899377E+02 0.  0.
          5    1    3    3  501    0 -0.72168672374E+02 -0.38436789203E+02  0.77972001493E+02  0.11308150624E+03  0.47000000000E+01 0. -1.
        -13    1    4    4    0    0 -0.13329539961E+02 -0.12532506539E+02 -0.35903345724E+01  0.18644861439E+02  0.00000000000E+00 0.  1.
         14    1    4    4    0    0 -0.50746988325E+02  0.72104609865E+02 -0.29321200964E+02  0.92919666453E+02  0.00000000000E+00 0. -1.
         -5    1    5    5    0  502  0.43711445660E+02 -0.37887983930E+02  0.21198287611E+03  0.21978402938E+03  0.47000000000E+01 0.  1.
         11    1    6    6    0    0  0.17973549660E+02 -0.19003175704E+02  0.76171324317E+02  0.80537195273E+02  0.00000000000E+00 0. -1.
        -12    1    6    6    0    0  0.74560205341E+02  0.35755845511E+02  0.52981993159E+02  0.98207923854E+02  0.00000000000E+00 0.  1.
</event>
<event>
12    1  0.8500177E-002  0.1757399E+03  0.7818608E-02  0.1172687E+00
         21   -1    0    0  503  502  0.00000000000E+00  0.00000000000E+00  0.33748058741E+03  0.33748058741E+03  0.00000000000E+00 0. -1.
         21   -1    0    0  501  503 -0.00000000000E+00 -0.00000000000E+00 -0.11371033630E+03  0.11371033630E+03  0.00000000000E+00 0. -1.
          6    2    1    2  501    0  0.21895439401E+02 -0.87609196854E+01  0.97506763081E+01  0.17601021879E+03  0.17415038746E+03 0.  0.
         24    2    3    3    0    0  0.63617575352E+01 -0.72070813665E+02  0.18588276121E+01  0.11017854539E+03  0.83073356029E+02 0.  0.
         -6    2    1    2    0  502 -0.21895439401E+02  0.87609196854E+01  0.21401957480E+03  0.27518070491E+03  0.17135891567E+03 0.  0.
        -24    2    5    5    0    0 -0.49481227870E+02 -0.88535829120E+01  0.45923170182E+02  0.10386305354E+03  0.78433529110E+02 0.  0.
          5    1    3    3  501    0  0.15533681865E+02  0.63309893980E+02  0.78918486959E+01  0.65831673409E+02  0.47000000000E+01 0. -1.
        -11    1    4    4    0    0 -0.30059302137E+02 -0.41055343889E+02 -0.23485610732E+02  0.56041741749E+02  0.00000000000E+00 0.  1.
         12    1    4    4    0    0  0.36421059672E+02 -0.31015469776E+02  0.25344438344E+02  0.54136803637E+02  0.00000000000E+00 0. -1.
         -5    1    5    5    0  502  0.27585788470E+02  0.17614502597E+02  0.16809640462E+03  0.17131765137E+03  0.47000000000E+01 0.  1.
         11    1    6    6    0    0 -0.67816048202E+02 -0.17716455534E+02  0.45363205585E+02  0.83490775607E+02  0.00000000000E+00 0. -1.
        -12    1    6    6    0    0  0.18334820332E+02  0.88628726217E+01  0.55996459688E+00  0.20372277930E+02  0.00000000000E+00 0.  1.
</event>
<event>
12    1  0.8500177E-002  0.1828236E+03  0.7818608E-02  0.1165238E+00
         21   -1    0    0  501  502  0.00000000000E+00  0.00000000000E+00  0.39844053524E+02  0.39844053524E+02  0.00000000000E+00 0.  1.
         21   -1    0    0  502  503 -0.00000000000E+00 -0.00000000000E+00 -0.11041355018E+04  0.11041355018E+04  0.00000000000E+00 0.  1.
         -6    2    1    2    0  503 -0.20986147061E+02 -0.57293908691E+02 -0.81327422880E+03  0.83344114329E+03  0.17171533935E+03 0.  0.
        -24    2    3    3    0    0  0.24754412617E+02  0.69995600620E+01 -0.23729700004E+03  0.25206544122E+03  0.81026820502E+02 0.  0.
          6    2    1    2  501    0  0.20986147061E+02  0.57293908691E+02 -0.25101721951E+03  0.31053841206E+03  0.17234108777E+03 0.  0.
         24    2    5    5    0    0  0.65142428595E+02  0.81779505026E+02 -0.19367056825E+03  0.23398744840E+03  0.79438111486E+02 0.  0.
          5    1    5    5  501    0 -0.44156281535E+02 -0.24485596335E+02 -0.57346651255E+02  0.76550963658E+02  0.47000000000E+01 0. -1.
        -11    1    6    6    0    0  0.61008689383E+02  0.18127768406E+02 -0.12495550424E+03  0.14023036122E+03  0.00000000000E+00 0.  1.
         12    1    6    6    0    0  0.41337392121E+01  0.63651736620E+02 -0.68715064010E+02  0.93757087181E+02  0.00000000000E+00 0. -1.
         -5    1    3    3    0  503 -0.45740559678E+02 -0.64293468753E+02 -0.57597722875E+03  0.58137570208E+03  0.47000000000E+01 0.  1.
         11    1    4    4    0    0  0.42946869185E+02  0.26268707843E+02 -0.20047073770E+03  0.20669541663E+03  0.00000000000E+00 0. -1.
        -12    1    4    4    0    0 -0.18192456568E+02 -0.19269147781E+02 -0.36826262347E+02  0.45370024583E+02  0.00000000000E+00 0.  1.
</event>
<event>
12    1  0.8500177E-002  0.1791087E+03  0.7818608E-02  0.1168699E+00
         21   -1    0    0  501  502  0.00000000000E+00  0.00000000000E+00  0.33627456952E+02  0.33627456952E+02  0.00000000000E+00 0. -1.
         21   -1    0    0  502  503 -0.00000000000E+00 -0.00000000000E+00 -0.13732483893E+04  0.13732483893E+04  0.00000000000E+00 0. -1.
         -6    2    1    2    0  503 -0.49608340607E+02  0.61698923423E+00 -0.10586421240E+04  0.10736657017E+04  0.17196954438E+03 0.  0.
        -24    2    3    3    0    0 -0.26672335533E+02 -0.59833704357E+02 -0.81422190856E+03  0.82079482874E+03  0.80345185552E+02 0.  0.
          6    2    1    2  501    0  0.49608340607E+02 -0.61698923423E+00 -0.28097880830E+03  0.33321014449E+03  0.17210038218E+03 0.  0.
         24    2    5    5    0    0 -0.34564440791E+02  0.15693328459E+02 -0.10792947994E+03  0.14002825186E+03  0.80735107331E+02 0.  0.
          5    1    5    5  501    0  0.84172781398E+02 -0.16310317693E+02 -0.17304932836E+03  0.19318189262E+03  0.47000000000E+01 0. -1.
        -11    1    6    6    0    0 -0.51364693383E+02  0.35937428108E+02 -0.80387726391E+02  0.10194124298E+03  0.00000000000E+00 0.  1.
         12    1    6    6    0    0  0.16800252592E+02 -0.20244099649E+02 -0.27541753544E+02  0.38087008888E+02  0.00000000000E+00 0. -1.
         -5    1    3    3    0  503 -0.22936005074E+02  0.60450693592E+02 -0.24442021546E+03  0.25287087300E+03  0.47000000000E+01 0.  1.
         11    1    4    4    0    0  0.57458988253E+01 -0.34156522852E+02 -0.66633002328E+03  0.66722963314E+03  0.00000000000E+00 0. -1.
        -12    1    4    4    0    0 -0.32418234358E+02 -0.25677181506E+02 -0.14789188528E+03  0.15356519560E+03  0.00000000000E+00 0.  1.
</event>
<event>
12    1  0.8500177E-002  0.1767329E+03  0.7818608E-02  0.1171057E+00
         21   -1    0    0  503  502  0.00000000000E+00  0.00000000000E+00  0.38787095292E+02  0.38787095292E+02  0.00000000000E+00 0. -1.
         21   -1    0    0  501  503 -0.00000000000E+00 -0.00000000000E+00 -0.90235385451E+03  0.90235385451E+03  0.00000000000E+00 0. -1.
          6    2    1    2  501    0 -0.25860151638E-01  0.41434273406E+02 -0.27641284471E+03  0.32796541886E+03  0.17158221226E+03 0.  0.
         24    2    3    3    0    0  0.46411786088E+01 -0.37889167106E+02 -0.19318570566E+03  0.21280103139E+03  0.80662460709E+02 0.  0.
         -6    2    1    2    0  502  0.25860151638E-01 -0.41434273406E+02 -0.58715391451E+03  0.61317553094E+03  0.17180719643E+03 0.  0.
        -24    2    5    5    0    0 -0.25452918566E+02  0.13456257030E+02 -0.49935962469E+03  0.50644191009E+03  0.79337580046E+02 0.  0.
          5    1    3    3  501    0 -0.46670387605E+01  0.79323440512E+02 -0.83227139053E+02  0.11516438747E+03  0.47000000000E+01 0. -1.
        -13    1    4    4    0    0 -0.72869374557E+00  0.67689157018E+01 -0.15093858691E+03  0.15109204557E+03  0.00000000000E+00 0.  1.
         14    1    4    4    0    0  0.53698723544E+01 -0.44658082808E+02 -0.42247118748E+02  0.61708985826E+02  0.00000000000E+00 0. -1.
         -5    1    5    5    0  502  0.25478778718E+02 -0.54890530436E+02 -0.87794289820E+02  0.10673362086E+03  0.47000000000E+01 0.  1.
         13    1    6    6    0    0  0.62795421431E+01  0.33257595935E+02 -0.37641312876E+03  0.37793166557E+03  0.00000000000E+00 0. -1.
        -14    1    6    6    0    0 -0.31732460709E+02 -0.19801338905E+02 -0.12294649592E+03  0.12851024451E+03  0.00000000000E+00 0.  1.
</event>
<event>
12    1  0.8500177E-002  0.1751207E+03  0.7818608E-02  0.1173160E+00
         21   -1    0    0  503  502  0.00000000000E+00  0.00000000000E+00  0.22869637770E+02  0.22869637770E+02  0.00000000000E+00 0. -1.
         21   -1    0    0  501  503 -0.00000000000E+00 -0.00000000000E+00 -0.13246214351E+04  0.13246214351E+04  0.00000000000E+00 0. -1.
          6    2    1    2  501    0 -0.27803618031E+02 -0.11933206452E+02 -0.63731049624E+03  0.66035971728E+03  0.17027872739E+03 0.  0.
         24    2    3    3    0    0 -0.54302703745E+02  0.12287315463E+02 -0.60356317383E+03  0.61086419228E+03  0.75939415660E+02 0.  0.
         -6    2    1    2    0  502  0.27803618031E+02  0.11933206452E+02 -0.66444130113E+03  0.68713135562E+03  0.17248714342E+03 0.  0.
        -24    2    5    5    0    0 -0.32338241261E+02 -0.35013237145E+02 -0.27490264005E+03  0.29016351022E+03  0.79697631945E+02 0.  0.
          5    1    3    3  501    0  0.26499085714E+02 -0.24220521914E+02 -0.33747322408E+02  0.49495525002E+02  0.47000000000E+01 0. -1.
        -13    1    4    4    0    0  0.97072591612E+01 -0.19960028303E+02 -0.16418542828E+03  0.16567887153E+03  0.00000000000E+00 0.  1.
         14    1    4    4    0    0 -0.64009962906E+02  0.32247343766E+02 -0.43937774554E+03  0.44518532075E+03  0.00000000000E+00 0. -1.
         -5    1    5    5    0  502  0.60141859292E+02  0.46946443596E+02 -0.38953866108E+03  0.39696784540E+03  0.47000000000E+01 0.  1.
         11    1    6    6    0    0  0.18663053366E+02 -0.36399222238E+02 -0.14306829494E+03  0.14880104152E+03  0.00000000000E+00 0. -1.
        -12    1    6    6    0    0 -0.51001294627E+02  0.13859850929E+01 -0.13183434511E+03  0.14136246870E+03  0.00000000000E+00 0.  1.
</event>
<event>
12    1  0.8500177E-002  0.2528935E+03  0.7818608E-02  0.1111666E+00
         21   -1    0    0  501  502  0.00000000000E+00  0.00000000000E+00  0.85592072377E+02  0.85592072377E+02  0.00000000000E+00 0. -1.
         21   -1    0    0  502  503 -0.00000000000E+00 -0.00000000000E+00 -0.77437526178E+03  0.77437526178E+03  0.00000000000E+00 0. -1.
         -6    2    1    2    0  503 -0.90275246387E+02 -0.16450698319E+03 -0.43046932119E+03  0.49925842748E+03  0.16953752768E+03 0.  0.
        -24    2    3    3    0    0 -0.24216560646E+02 -0.14861826412E+03 -0.37374971333E+03  0.41062770329E+03  0.79072322896E+02 0.  0.
          6    2    1    2  501    0  0.90275246387E+02  0.16450698319E+03 -0.25831386821E+03  0.36070890668E+03  0.16784723178E+03 0.  0.
         24    2    5    5    0    0  0.61746655988E+01  0.13996289980E+03 -0.19214253127E+03  0.25081779898E+03  0.79768892096E+02 0.  0.
          5    1    5    5  501    0  0.84100580788E+02  0.24544083395E+02 -0.66171336942E+02  0.10989110770E+03  0.47000000000E+01 0. -1.
        -13    1    6    6    0    0  0.20935877797E+02  0.39228279801E+02 -0.11434316802E+03  0.12268467300E+03  0.00000000000E+00 0.  1.
         14    1    6    6    0    0 -0.14761212198E+02  0.10073462000E+03 -0.77799363248E+02  0.12813312598E+03  0.00000000000E+00 0. -1.
         -5    1    3    3    0  503 -0.66058685741E+02 -0.15888719072E+02 -0.56719607857E+02  0.88630724194E+02  0.47000000000E+01 0.  1.
         13    1    4    4    0    0 -0.24984666929E+02 -0.15205868804E+02 -0.30011374851E+02  0.41906260249E+02  0.00000000000E+00 0. -1.
        -14    1    4    4    0    0  0.76810628318E+00 -0.13341239532E+03 -0.34373833848E+03  0.36872144304E+03  0.00000000000E+00 0.  1.
</event>
<event>
12    1  0.8500177E-002  0.2110292E+03  0.7818608E-02  0.1144600E+00
         21   -1    0    0  501  502  0.00000000000E+00  0.00000000000E+00  0.13236912616E+03  0.13236912616E+03  0.00000000000E+00 0.  1.
         21   -1    0    0  502  503 -0.00000000000E+00 -0.00000000000E+00 -0.46215338370E+03  0.46215338370E+03  0.00000000000E+00 0.  1.
         -6    2    1    2    0  503  0.74341547384E+02 -0.40656401075E+02 -0.33171643696E+03  0.38348449306E+03  0.17275691954E+03 0.  0.
        -24    2    3    3    0    0  0.63003246157E+02 -0.85036017292E+02 -0.29898788561E+03  0.32699240968E+03  0.79559707044E+02 0.  0.
          6    2    1    2  501    0 -0.74341547384E+02  0.40656401075E+02  0.19321794177E+01  0.21103801680E+03  0.19327105992E+03 0.  0.
         24    2    5    5    0    0  0.40749839139E+02  0.30084461502E+02 -0.10354381050E+02  0.94715866175E+02  0.79361564278E+02 0.  0.
          5    1    5    5  501    0 -0.11509138652E+03  0.10571939573E+02  0.12286560468E+02  0.11632215063E+03  0.47000000000E+01 0. -1.
        -13    1    6    6    0    0 -0.20500649726E+02 -0.74522286199E+01  0.16783921546E+01  0.21877599292E+02  0.00000000000E+00 0.  1.
         14    1    6    6    0    0  0.61250488864E+02  0.37536690122E+02 -0.12032773205E+02  0.72838266882E+02  0.00000000000E+00 0. -1.
         -5    1    3    3    0  503  0.11338301228E+02  0.44379616217E+02 -0.32728551347E+02  0.56492083371E+02  0.47000000000E+01 0.  1.
         13    1    4    4    0    0 -0.12199945071E+02 -0.33176738708E+02 -0.13199820556E+03  0.13664940879E+03  0.00000000000E+00 0. -1.
        -14    1    4    4    0    0  0.75203191228E+02 -0.51859278585E+02 -0.16698968005E+03  0.19034300089E+03  0.00000000000E+00 0.  1.
</event>
<event>
12    1  0.8500177E-002  0.1827412E+03  0.7818608E-02  0.1165982E+00
         21   -1    0    0  503  502  0.00000000000E+00  0.00000000000E+00  0.17166403858E+03  0.17166403858E+03  0.00000000000E+00 0. -1.
         21   -1    0    0  501  503 -0.00000000000E+00 -0.00000000000E+00 -0.60534634575E+03  0.60534634575E+03  0.00000000000E+00 0. -1.
          6    2    1    2  501    0  0.14533433683E+02  0.40142553162E+02 -0.53763643870E+03  0.56677051445E+03  0.17422178557E+03 0.  0.
         24    2    3    3    0    0  0.66209039320E+01  0.93083837435E+02 -0.31310935564E+03  0.33590282781E+03  0.78005153562E+02 0.  0.
         -6    2    1    2    0  502 -0.14533433683E+02 -0.40142553162E+02  0.10395413154E+03  0.21023986988E+03  0.17768425973E+03 0.  0.
        -24    2    5    5    0    0  0.25235800942E+00 -0.10359230669E+00 -0.17763778080E+02  0.81169820900E+02  0.79201727237E+02 0.  0.
          5    1    3    3  501    0  0.79125297509E+01 -0.52941284273E+02 -0.22452708306E+03  0.23086768664E+03  0.47000000000E+01 0. -1.
        -11    1    4    4    0    0  0.13421505324E+02  0.56745821191E+02 -0.75305543288E+02  0.95242584371E+02  0.00000000000E+00 0.  1.
         12    1    4    4    0    0 -0.68006013916E+01  0.36338016243E+02 -0.23780381235E+03  0.24066024344E+03  0.00000000000E+00 0. -1.
         -5    1    5    5    0  502 -0.14785791692E+02 -0.40038960855E+02  0.12171790962E+03  0.12907004898E+03  0.47000000000E+01 0.  1.
         13    1    6    6    0    0  0.21950849356E+02 -0.29535005363E+02  0.63865096379E+01  0.37348946901E+02  0.00000000000E+00 0. -1.
        -14    1    6    6    0    0 -0.21698491347E+02  0.29431413056E+02 -0.24150287718E+02  0.43820873999E+02  0.00000000000E+00 0.  1.
</event>
<event>
12    1  0.8500177E-002  0.2325958E+03  0.7818608E-02  0.1124865E+00
         21   -1    0    0  501  502  0.00000000000E+00  0.00000000000E+00  0.50248652541E+03  0.50248652541E+03  0.00000000000E+00 0.  1.
         21   -1    0    0  502  503 -0.00000000000E+00 -0.00000000000E+00 -0.37427542039E+03  0.37427542039E+03  0.00000000000E+00 0.  1.
         -6    2    1    2    0  503 -0.10751850981E+03 -0.11360580940E+03 -0.30595039053E+03  0.38432598783E+03  0.17214619825E+03 0.  0.
        -24    2    3    3    0    0 -0.11690173799E+03 -0.24905387595E+02 -0.19345443372E+03  0.24068323619E+03  0.78851173603E+02 0.  0.
          6    2    1    2  501    0  0.10751850981E+03  0.11360580940E+03  0.43416149555E+03  0.49243595797E+03  0.17184428594E+03 0.  0.
         24    2    5    5    0    0  0.81047237932E+02  0.28803935166E+02  0.35307645791E+03  0.37206586436E+03  0.79822934253E+02 0.  0.
          5    1    5    5  501    0  0.26471271880E+02  0.84801874236E+02  0.81085037635E+02  0.12037009362E+03  0.47000000000E+01 0. -1.
        -11    1    6    6    0    0  0.74559714929E+02  0.58050923632E+01  0.15021349576E+03  0.16780031137E+03  0.00000000000E+00 0.  1.
         12    1    6    6    0    0  0.64875230024E+01  0.22998842803E+02  0.20286296215E+03  0.20426555299E+03  0.00000000000E+00 0. -1.
         -5    1    3    3    0  503  0.93832281832E+01 -0.88700421807E+02 -0.11249595681E+03  0.14364275164E+03  0.47000000000E+01 0.  1.
         11    1    4    4    0    0 -0.31766033469E+02 -0.13282193790E+02 -0.12832486723E+03  0.13286372380E+03  0.00000000000E+00 0. -1.
        -12    1    4    4    0    0 -0.85135704525E+02 -0.11623193805E+02 -0.65129566495E+02  0.10781951238E+03  0.00000000000E+00 0.  1.
</event>
<event>
12    1  0.8500177E-002  0.2204389E+03  0.7818608E-02  0.1134065E+00
         21   -1    0    0  501  502  0.00000000000E+00  0.00000000000E+00  0.72319769623E+03  0.72319769623E+03  0.00000000000E+00 0.  1.
         21   -1    0    0  502  503 -0.00000000000E+00 -0.00000000000E+00 -0.73991249257E+02  0.73991249257E+02  0.00000000000E+00 0.  1.
         -6    2    1    2    0  503 -0.11533712285E+03 -0.65510084297E+02  0.19483546104E+03  0.29216785244E+03  0.17264696368E+03 0.  0.
        -24    2    3    3    0    0 -0.11024361739E+03  0.12262776447E+02  0.14732664231E+03  0.20076905855E+03  0.79366519882E+02 0.  0.
          6    2    1    2  501    0  0.11533712285E+03  0.65510084297E+02  0.45437098594E+03  0.50502109305E+03  0.17606558015E+03 0.  0.
         24    2    5    5    0    0  0.27905890592E+02  0.94216613273E+02  0.25661628686E+03  0.28685304730E+03  0.82324013006E+02 0.  0.
          5    1    5    5  501    0  0.87431232257E+02 -0.28706528976E+02  0.19775469908E+03  0.21816804576E+03  0.47000000000E+01 0. -1.
        -11    1    6    6    0    0  0.52930177336E+02  0.82506200777E+02  0.17364729818E+03  0.19940476676E+03  0.00000000000E+00 0.  1.
         12    1    6    6    0    0 -0.25024286743E+02  0.11710412496E+02  0.82968988674E+02  0.87448280540E+02  0.00000000000E+00 0. -1.
         -5    1    3    3    0  503 -0.50935054617E+01 -0.77772860744E+02  0.47508818728E+02  0.91398793882E+02  0.47000000000E+01 0.  1.
         11    1    4    4    0    0 -0.89386198851E+02  0.65329861366E+01  0.15395821143E+03  0.17814517485E+03  0.00000000000E+00 0. -1.
        -12    1    4    4    0    0 -0.20857418537E+02  0.57297903101E+01 -0.66315691252E+01  0.22623883709E+02  0.00000000000E+00 0.  1.
</event>
<event>
12    1  0.8500177E-002  0.2184083E+03  0.7818608E-02  0.1135382E+00
         21   -1    0    0  503  502  0.00000000000E+00  0.00000000000E+00  0.66450260102E+02  0.66450260102E+02  0.00000000000E+00 0. -1.
         21   -1    0    0  501  503 -0.00000000000E+00 -0.00000000000E+00 -0.77649804188E+03  0.77649804188E+03  0.00000000000E+00 0. -1.
          6    2    1    2  501    0 -0.19464380178E+02  0.13324335059E+03 -0.47477240429E+03  0.52192388398E+03  0.16989129530E+03 0.  0.
         24    2    3    3    0    0 -0.48154791324E+02  0.12442417134E+03 -0.24470744759E+03  0.28986162527E+03  0.79610103353E+02 0.  0.
         -6    2    1    2    0  502  0.19464380178E+02 -0.13324335059E+03 -0.23527537748E+03  0.32102441800E+03  0.17195790511E+03 0.  0.
        -24    2    5    5    0    0  0.60471764954E+02 -0.14437690998E+03 -0.20107038501E+03  0.26627377178E+03  0.77271568634E+02 0.  0.
          5    1    3    3  501    0  0.28690411146E+02  0.88191792454E+01 -0.23006495671E+03  0.23206225871E+03  0.47000000000E+01 0. -1.
        -11    1    4    4    0    0 -0.24676544761E+02  0.10348051826E+03 -0.11612947922E+03  0.15749033451E+03  0.00000000000E+00 0.  1.
         12    1    4    4    0    0 -0.23478246562E+02  0.20943653079E+02 -0.12857796837E+03  0.13237129075E+03  0.00000000000E+00 0. -1.
         -5    1    5    5    0  502 -0.41007384776E+02  0.11133559393E+02 -0.34204992471E+02  0.54750646214E+02  0.47000000000E+01 0.  1.
         13    1    6    6    0    0  0.18937594656E+02 -0.12525489633E+03 -0.12808085070E+03  0.18014473587E+03  0.00000000000E+00 0. -1.
        -14    1    6    6    0    0  0.41534170298E+02 -0.19122013651E+02 -0.72989534306E+02  0.86129035909E+02  0.00000000000E+00 0.  1.
</event>
<event>
12    1  0.8500177E-002  0.1777645E+03  0.7818608E-02  0.1170294E+00
         21   -1    0    0  501  502  0.00000000000E+00  0.00000000000E+00  0.27036327601E+03  0.27036327601E+03  0.00000000000E+00 0. -1.
         21   -1    0    0  502  503 -0.00000000000E+00 -0.00000000000E+00 -0.16855048563E+03  0.16855048563E+03  0.00000000000E+00 0. -1.
         -6    2    1    2    0  503 -0.52699765601E+02  0.21472096102E+01 -0.71689208990E+02  0.19051255234E+03  0.16844528521E+03 0.  0.
        -24    2    3    3    0    0 -0.58338670300E+02 -0.14386785018E+02 -0.11025001476E+03  0.14791917297E+03  0.78196137629E+02 0.  0.
          6    2    1    2  501    0  0.52699765601E+02 -0.21472096102E+01  0.17350199938E+03  0.24840120931E+03  0.16975965714E+03 0.  0.
         24    2    5    5    0    0 -0.16090156193E+02 -0.18165373796E+02  0.12130580585E+03  0.16045140804E+03  0.10217965491E+03 0.  0.
          5    1    5    5  501    0  0.68789921794E+02  0.16018164186E+02  0.52196193521E+02  0.87949801263E+02  0.47000000000E+01 0. -1.
        -11    1    6    6    0    0 -0.39768707538E+02  0.27253949532E+02  0.33194282426E+02  0.58533650579E+02  0.00000000000E+00 0.  1.
         12    1    6    6    0    0  0.23678551345E+02 -0.45419323328E+02  0.88111523429E+02  0.10191775746E+03  0.00000000000E+00 0. -1.
         -5    1    3    3    0  503  0.56389046996E+01  0.16533994628E+02  0.38560805773E+02  0.42593379373E+02  0.47000000000E+01 0.  1.
         13    1    4    4    0    0 -0.66579040439E+02  0.13943863488E+02 -0.86501330396E+02  0.11004399173E+03  0.00000000000E+00 0. -1.
        -14    1    4    4    0    0  0.82403701389E+01 -0.28330648505E+02 -0.23748684367E+02  0.37875181240E+02  0.00000000000E+00 0.  1.
</event>
<event>
12    1  0.8500177E-002  0.1826403E+03  0.7818608E-02  0.1165555E+00
         21   -1    0    0  501  502  0.00000000000E+00  0.00000000000E+00  0.17826729745E+03  0.17826729745E+03  0.00000000000E+00 0. -1.
         21   -1    0    0  502  503 -0.00000000000E+00 -0.00000000000E+00 -0.21713494551E+03  0.21713494551E+03  0.00000000000E+00 0.  1.
         -6    2    1    2    0  503  0.33441534354E+02  0.48751127561E+02 -0.94467539979E+02  0.20562492301E+03  0.17280765086E+03 0.  0.
        -24    2    3    3    0    0  0.66376990587E+02  0.31793007979E+02 -0.90494847460E+01  0.11240123366E+03  0.84471556860E+02 0.  0.
          6    2    1    2  501    0 -0.33441534354E+02 -0.48751127561E+02  0.55599891923E+02  0.18977731995E+03  0.17154904409E+03 0.  0.
         24    2    5    5    0    0 -0.39735701292E-01 -0.72727470258E+02 -0.21320653212E+02  0.10243085221E+03  0.68907348824E+02 0.  0.
          5    1    5    5  501    0 -0.33401798652E+02  0.23976342698E+02  0.76920545136E+02  0.87346467738E+02  0.47000000000E+01 0. -1.
        -11    1    6    6    0    0  0.77649450079E+01  0.17039973703E+01 -0.26251745925E+02  0.27429038301E+02  0.00000000000E+00 0.  1.
         12    1    6    6    0    0 -0.78046807092E+01 -0.74431467629E+02  0.49310927123E+01  0.75001813909E+02  0.00000000000E+00 0. -1.
         -5    1    3    3    0  503 -0.32935456234E+02  0.16958119582E+02 -0.85418055233E+02  0.93223689354E+02  0.47000000000E+01 0.  1.
         13    1    4    4    0    0  0.51411452297E+02 -0.15109434706E+02  0.17621587430E+02  0.56408800625E+02  0.00000000000E+00 0. -1.
        -14    1    4    4    0    0  0.14965538290E+02  0.46902442685E+02 -0.26671072176E+02  0.55992433035E+02  0.00000000000E+00 0.  1.
</event>
<event>
12    1  0.8500177E-002  0.5776323E+03  0.7818608E-02  0.9953448E-01
         21   -1    0    0  503  502  0.00000000000E+00  0.00000000000E+00  0.50894602119E+03  0.50894602119E+03  0.00000000000E+00 0.  1.
         21   -1    0    0  501  503 -0.00000000000E+00 -0.00000000000E+00 -0.65481966570E+03  0.65481966570E+03  0.00000000000E+00 0. -1.
          6    2    1    2  501    0  0.54766414861E+03  0.60660223857E+02 -0.85658623696E+02  0.58394903318E+03  0.17333029484E+03 0.  0.
         24    2    3    3    0    0  0.14823356208E+03 -0.18894843940E+02 -0.11112489026E+02  0.16988017603E+03  0.80034884530E+02 0.  0.
         -6    2    1    2    0  502 -0.54766414861E+03 -0.60660223857E+02 -0.60215020806E+02  0.57981665371E+03  0.17013471354E+03 0.  0.
        -24    2    5    5    0    0 -0.50730294236E+03 -0.13468697252E+02 -0.44219428142E+02  0.51552033858E+03  0.79171841836E+02 0.  0.
          5    1    3    3  501    0  0.39943058653E+03  0.79555067797E+02 -0.74546134670E+02  0.41406885715E+03  0.47000000000E+01 0. -1.
        -13    1    4    4    0    0  0.87115959075E+01 -0.16538578278E+02 -0.23225659235E+02  0.29813549296E+02  0.00000000000E+00 0.  1.
         14    1    4    4    0    0  0.13952196618E+03 -0.23562656612E+01  0.12113170209E+02  0.14006662674E+03  0.00000000000E+00 0. -1.
         -5    1    5    5    0  502 -0.40361206256E+02 -0.47191526605E+02 -0.15995592664E+02  0.64296315123E+02  0.47000000000E+01 0.  1.
         13    1    6    6    0    0 -0.27509287252E+03  0.48053291583E+00 -0.62734984031E+02  0.28215598106E+03  0.00000000000E+00 0. -1.
        -14    1    6    6    0    0 -0.23221006983E+03 -0.13949230168E+02  0.18515555889E+02  0.23336435753E+03  0.00000000000E+00 0.  1.
</event>
<event>
12    1  0.8500177E-002  0.1961299E+03  0.7818608E-02  0.1153773E+00
         21   -1    0    0  503  502  0.00000000000E+00  0.00000000000E+00  0.10603628270E+03  0.10603628270E+03  0.00000000000E+00 0.  1.
         21   -1    0    0  501  503 -0.00000000000E+00 -0.00000000000E+00 -0.35836568187E+03  0.35836568187E+03  0.00000000000E+00 0. -1.
          6    2    1    2  501    0  0.83386906287E+02 -0.25904848483E+02 -0.11111981904E+03  0.22542086530E+03  0.17562037187E+03 0.  0.
         24    2    3    3    0    0  0.38972570812E+02 -0.48972813035E+02 -0.13578650269E+03  0.16942712042E+03  0.79689253522E+02 0.  0.
         -6    2    1    2    0  502 -0.83386906287E+02  0.25904848483E+02 -0.14120958012E+03  0.23898109927E+03  0.17189352220E+03 0.  0.
        -24    2    5    5    0    0 -0.11038615454E+03  0.44653054204E+02 -0.89713929584E+02  0.17770837574E+03  0.96709251289E+02 0.  0.
          5    1    3    3  501    0  0.44414335475E+02  0.23067964552E+02  0.24666683652E+02  0.55993744889E+02  0.47000000000E+01 0. -1.
        -13    1    4    4    0    0  0.10157019622E+02 -0.31845801447E+02 -0.42606335378E+01  0.33696781976E+02  0.00000000000E+00 0.  1.
         14    1    4    4    0    0  0.28815551190E+02 -0.17127011588E+02 -0.13152586915E+03  0.13573033844E+03  0.00000000000E+00 0. -1.
         -5    1    5    5    0  502  0.26999248248E+02 -0.18748205720E+02 -0.51495650540E+02  0.61272723525E+02  0.47000000000E+01 0.  1.
         11    1    6    6    0    0 -0.88397045858E+02  0.39336771592E+01 -0.96510902386E+02  0.13093458600E+03  0.00000000000E+00 0. -1.
        -12    1    6    6    0    0 -0.21989108677E+02  0.40719377044E+02  0.67969728022E+01  0.46773789739E+02  0.00000000000E+00 0.  1.
</event>
<event>
12    1  0.8500177E-002  0.1953858E+03  0.7818608E-02  0.1153774E+00
         21   -1    0    0  501  502  0.00000000000E+00  0.00000000000E+00  0.20968702547E+03  0.20968702547E+03  0.00000000000E+00 0.  1.
         21   -1    0    0  502  503 -0.00000000000E+00 -0.00000000000E+00 -0.21144713702E+03  0.21144713702E+03  0.00000000000E+00 0.  1.
         -6    2    1    2    0  503  0.90172234713E+02 -0.72657918700E+01 -0.79851724458E+02  0.21107318806E+03  0.17318131878E+03 0.  0.
        -24    2    3    3    0    0 -0.54108042030E+00 -0.20208826878E+01 -0.87271938785E+02  0.11978483067E+03  0.82022177638E+02 0.  0.
          6    2    1    2  501    0 -0.90172234713E+02  0.72657918700E+01  0.78091612910E+02  0.21006097444E+03  0.17275268255E+03 0.  0.
         24    2    5    5    0    0 -0.11391224394E+03  0.26632051763E+01  0.10424537109E+03  0.17413214326E+03  0.80447585063E+02 0.  0.
          5    1    5    5  501    0  0.23740009223E+02  0.46025866936E+01 -0.26153758185E+02  0.35928831172E+02  0.47000000000E+01 0. -1.
        -13    1    6    6    0    0 -0.96112730541E+02 -0.25651283282E+02  0.98879843225E+02  0.14026000393E+03  0.00000000000E+00 0.  1.
         14    1    6    6    0    0 -0.17799513395E+02  0.28314488458E+02  0.53655278697E+01  0.33872139334E+02  0.00000000000E+00 0. -1.
         -5    1    3    3    0  503  0.90713315133E+02 -0.52449091822E+01  0.74202143268E+01  0.91288357393E+02  0.47000000000E+01 0.  1.
         13    1    4    4    0    0  0.46452959286E+01  0.18700978882E+02  0.89313865972E+01  0.21238527537E+02  0.00000000000E+00 0. -1.
        -14    1    4    4    0    0 -0.51863763489E+01 -0.20721861569E+02 -0.96203325382E+02  0.98546303132E+02  0.00000000000E+00 0.  1.
</event>
<event>
12    1  0.8500177E-002  0.1959889E+03  0.7818608E-02  0.1153187E+00
         21   -1    0    0  501  502  0.00000000000E+00  0.00000000000E+00  0.11765691438E+04  0.11765691438E+04  0.00000000000E+00 0.  1.
         21   -1    0    0  502  503 -0.00000000000E+00 -0.00000000000E+00 -0.41371885190E+02  0.41371885190E+02  0.00000000000E+00 0.  1.
         -6    2    1    2    0  503 -0.82223012742E+02  0.48193454154E+02  0.28761312467E+03  0.34799246630E+03  0.17115552655E+03 0.  0.
        -24    2    3    3    0    0 -0.47885138464E+02  0.66222731222E+02  0.88757328398E+02  0.14533546012E+03  0.81031450734E+02 0.  0.
          6    2    1    2  501    0  0.82223012742E+02 -0.48193454154E+02  0.84758413391E+03  0.86994856267E+03  0.17125537882E+03 0.  0.
         24    2    5    5    0    0  0.11293760907E+03 -0.15991060405E+02  0.48973767620E+03  0.50931501197E+03  0.80920778365E+02 0.  0.
          5    1    5    5  501    0 -0.30714596326E+02 -0.32202393749E+02  0.35784645771E+03  0.36063355070E+03  0.47000000000E+01 0. -1.
        -11    1    6    6    0    0  0.79202344695E+02 -0.47712629884E+02  0.35490848653E+03  0.36675542295E+03  0.00000000000E+00 0.  1.
         12    1    6    6    0    0  0.33735264374E+02  0.31721569479E+02  0.13482918967E+03  0.14255958902E+03  0.00000000000E+00 0. -1.
         -5    1    3    3    0  503 -0.34337874278E+02 -0.18029277068E+02  0.19885579627E+03  0.20265700618E+03  0.47000000000E+01 0.  1.
         13    1    4    4    0    0 -0.33408471679E+02  0.14124547893E+01 -0.12737666176E+01  0.33462568489E+02  0.00000000000E+00 0. -1.
        -14    1    4    4    0    0 -0.14476666785E+02  0.64810276433E+02  0.90031095015E+02  0.11187289163E+03  0.00000000000E+00 0.  1.
</event>
<event>
12    1  0.8500177E-002  0.1739671E+03  0.7818608E-02  0.1174059E+00
         21   -1    0    0  503  502  0.00000000000E+00  0.00000000000E+00  0.43128721306E+03  0.43128721306E+03  0.00000000000E+00 0. -1.
         21   -1    0    0  501  503 -0.00000000000E+00 -0.00000000000E+00 -0.69907023648E+02  0.69907023648E+02  0.00000000000E+00 0. -1.
          6    2    1    2  501    0  0.25031777517E+02 -0.57069883856E+01  0.16827660591E+03  0.24203629999E+03  0.17206218298E+03 0.  0.
         24    2    3    3    0    0  0.43396715653E+02 -0.31884282055E+02  0.18269465846E+03  0.20664573775E+03  0.80157596807E+02 0.  0.
         -6    2    1    2    0  502 -0.25031777517E+02  0.57069883856E+01  0.19310358350E+03  0.25915793672E+03  0.17092303122E+03 0.  0.
        -24    2    5    5    0    0 -0.22060815952E+02 -0.61508250857E+02  0.10621104297E+03  0.14916194316E+03  0.81844701203E+02 0.  0.
          5    1    3    3  501    0 -0.18364938137E+02  0.26177293670E+02 -0.14418052549E+02  0.35390562244E+02  0.47000000000E+01 0. -1.
        -13    1    4    4    0    0 -0.43565672916E+00 -0.40822384120E+02  0.40202635783E+02  0.57296673253E+02  0.00000000000E+00 0.  1.
         14    1    4    4    0    0  0.43832372382E+02  0.89381020648E+01  0.14249202268E+03  0.14934906449E+03  0.00000000000E+00 0. -1.
         -5    1    5    5    0  502 -0.29709615646E+01  0.67215239243E+02  0.86892540527E+02  0.10999599356E+03  0.47000000000E+01 0.  1.
         11    1    6    6    0    0 -0.51995420070E+02 -0.50912539845E+02  0.69569883297E+02  0.10067561315E+03  0.00000000000E+00 0. -1.
        -12    1    6    6    0    0  0.29934604118E+02 -0.10595711013E+02  0.36641159675E+02  0.48486330011E+02  0.00000000000E+00 0.  1.
</event>
<event>
12    1  0.8500177E-002  0.1726945E+03  0.7818608E-02  0.1175555E+00
         21   -1    0    0  503  502  0.00000000000E+00  0.00000000000E+00  0.55044712422E+02  0.55044712422E+02  0.00000000000E+00 0.  1.
         21   -1    0    0  501  503 -0.00000000000E+00 -0.00000000000E+00 -0.53931396375E+03  0.53931396375E+03  0.00000000000E+00 0.  1.
          6    2    1    2  501    0  0.40021406453E+01  0.10109606588E+02 -0.26458870633E+03  0.31492544164E+03  0.17044831768E+03 0.  0.
         24    2    3    3    0    0 -0.63461662807E+02  0.13931815443E+02 -0.14420231363E+03  0.17679163838E+03  0.78990493197E+02 0.  0.
         -6    2    1    2    0  502 -0.40021406453E+01 -0.10109606588E+02 -0.21968054500E+03  0.27943323454E+03  0.17235187680E+03 0.  0.
        -24    2    5    5    0    0 -0.12746023642E+02  0.36690990633E+02 -0.37619560781E+02  0.91191253658E+02  0.73429717949E+02 0.  0.
          5    1    3    3  501    0  0.67463803452E+02 -0.38222088554E+01 -0.12038639269E+03  0.13813380326E+03  0.47000000000E+01 0. -1.
        -13    1    4    4    0    0  0.16120444668E+02 -0.10205302247E+02 -0.28813857771E+02  0.34557999506E+02  0.00000000000E+00 0.  1.
         14    1    4    4    0    0 -0.79582107474E+02  0.24137117690E+02 -0.11538845586E+03  0.14223363887E+03  0.00000000000E+00 0. -1.
         -5    1    5    5    0  502  0.87438829969E+01 -0.46800597220E+02 -0.18206098422E+03  0.18824198088E+03  0.47000000000E+01 0.  1.
         11    1    6    6    0    0  0.96001539875E+01  0.19877732789E+02  0.18296964756E+02  0.28671695741E+02  0.00000000000E+00 0. -1.
        -12    1    6    6    0    0 -0.22346177630E+02  0.16813257844E+02 -0.55916525537E+02  0.62519557916E+02  0.00000000000E+00 0.  1.
</event>
<event>
12    1  0.8500177E-002  0.2122235E+03  0.7818608E-02  0.1140107E+00
         21   -1    0    0  501  502  0.00000000000E+00  0.00000000000E+00  0.41480816530E+03  0.41480816530E+03  0.00000000000E+00 0.  1.
         21   -1    0    0  502  503 -0.00000000000E+00 -0.00000000000E+00 -0.10862317777E+03  0.10862317777E+03  0.00000000000E+00 0.  1.
         -6    2    1    2    0  503 -0.11580542461E+03 -0.44848849829E+02  0.13115914193E+03  0.24948253060E+03  0.17209444170E+03 0.  0.
        -24    2    3    3    0    0 -0.13690138004E+03 -0.74145396971E+02  0.11536491866E+03  0.20979784214E+03  0.80414814323E+02 0.  0.
          6    2    1    2  501    0  0.11580542461E+03  0.44848849829E+02  0.17502584561E+03  0.27394881246E+03  0.17026916784E+03 0.  0.
         24    2    5    5    0    0  0.14881549986E+03  0.43390440347E+02  0.12769852452E+03  0.21603717850E+03  0.79601294074E+02 0.  0.
          5    1    5    5  501    0 -0.33010075251E+02  0.14584094825E+01  0.47327321091E+02  0.57911633960E+02  0.47000000000E+01 0. -1.
        -11    1    6    6    0    0  0.12233906655E+03 -0.29950066906E+00  0.99443851853E+02  0.15765790997E+03  0.00000000000E+00 0.  1.
         12    1    6    6    0    0  0.26476433316E+02  0.43689941016E+02  0.28254672663E+02  0.58379268533E+02  0.00000000000E+00 0. -1.
         -5    1    3    3    0  503  0.21095955422E+02  0.29296547141E+02  0.15794223262E+02  0.39684688458E+02  0.47000000000E+01 0.  1.
         13    1    4    4    0    0  0.93815344257E+01 -0.11623054661E+02  0.17559172113E+02  0.23052833083E+02  0.00000000000E+00 0. -1.
        -14    1    4    4    0    0 -0.14628291446E+03 -0.62522342309E+02  0.97805746550E+02  0.18674500906E+03  0.00000000000E+00 0.  1.
</event>
<event>
12    1  0.8500177E-002  0.2116208E+03  0.7818608E-02  0.1142641E+00
         21   -1    0    0  501  502  0.00000000000E+00  0.00000000000E+00  0.39227763056E+03  0.39227763056E+03  0.00000000000E+00 0. -1.
         21   -1    0    0  502  503 -0.00000000000E+00 -0.00000000000E+00 -0.60794565189E+03  0.60794565189E+03  0.00000000000E+00 0. -1.
         -6    2    1    2    0  503 -0.94258152127E+02  0.33241529646E+02 -0.56187716169E+03  0.60040762252E+03  0.18653088165E+03 0.  0.
        -24    2    3    3    0    0 -0.48298610637E+02  0.43372561888E+02 -0.53724567454E+03  0.54708110541E+03  0.80317408830E+02 0.  0.
          6    2    1    2  501    0  0.94258152127E+02 -0.33241529646E+02  0.34620914036E+03  0.39981565994E+03  0.17321141569E+03 0.  0.
         24    2    5    5    0    0  0.11525900044E+03  0.19617770404E+02  0.26166210698E+03  0.29780864016E+03  0.80953281729E+02 0.  0.
          5    1    5    5  501    0 -0.21000848312E+02 -0.52859300050E+02  0.84547033376E+02  0.10200701978E+03  0.47000000000E+01 0. -1.
        -11    1    6    6    0    0  0.81740424399E+02  0.24009401039E+02  0.24641072006E+03  0.26072244107E+03  0.00000000000E+00 0.  1.
         12    1    6    6    0    0  0.33518576039E+02 -0.43916306349E+01  0.15251386926E+02  0.37086199084E+02  0.00000000000E+00 0. -1.
         -5    1    3    3    0  503 -0.45959541490E+02 -0.10131032242E+02 -0.24631487149E+02  0.53326517113E+02  0.47000000000E+01 0.  1.
         11    1    4    4    0    0 -0.52301552588E+02  0.10683710591E+02 -0.46028482309E+03  0.46336995202E+03  0.00000000000E+00 0. -1.
        -12    1    4    4    0    0  0.40029419509E+01  0.32688851297E+02 -0.76960851459E+02  0.83711153383E+02  0.00000000000E+00 0.  1.
</event>
<event>
12    1  0.8500177E-002  0.2559308E+03  0.7818608E-02  0.1109649E+00
         21   -1    0    0  501  502  0.00000000000E+00  0.00000000000E+00  0.89114026388E+03  0.89114026388E+03  0.00000000000E+00 0. -1.
         21   -1    0    0  502  503 -0.00000000000E+00 -0.00000000000E+00 -0.11732411278E+03  0.11732411278E+03  0.00000000000E+00 0. -1.
         -6    2    1    2    0  503  0.80414471206E+02  0.17036622533E+03  0.78391268345E+02  0.26744053513E+03  0.17288178320E+03 0.  0.
        -24    2    3    3    0    0 -0.54488417675E+01  0.14234521639E+03  0.33552590665E+02  0.16649360614E+03  0.79388248740E+02 0.  0.
          6    2    1    2  501    0 -0.80414471206E+02 -0.17036622533E+03  0.69542488276E+03  0.74102384154E+03  0.17323229563E+03 0.  0.
         24    2    5    5    0    0  0.10269134212E+02 -0.11569281168E+03  0.48723799249E+03  0.50740755415E+03  0.81063449774E+02 0.  0.
          5    1    5    5  501    0 -0.90683605419E+02 -0.54673413649E+02  0.20818689027E+03  0.23361628738E+03  0.47000000000E+01 0. -1.
        -11    1    6    6    0    0  0.38757514449E+01 -0.45535087802E+00 -0.22448363640E+01  0.45020088834E+01  0.00000000000E+00 0.  1.
         12    1    6    6    0    0  0.63933827675E+01 -0.11523746081E+03  0.48948282886E+03  0.50290554527E+03  0.00000000000E+00 0. -1.
         -5    1    3    3    0  503  0.85863312974E+02  0.28021008942E+02  0.44838677679E+02  0.10094692899E+03  0.47000000000E+01 0.  1.
         11    1    4    4    0    0 -0.13585113181E+02  0.48814350211E+02 -0.24321892621E+02  0.56204542053E+02  0.00000000000E+00 0. -1.
        -12    1    4    4    0    0  0.81362714139E+01  0.93530866179E+02  0.57874483286E+02  0.11028906408E+03  0.00000000000E+00 0.  1.
</event>
<event>
12    1  0.8500177E-002  0.2039757E+03  0.7818608E-02  0.1147106E+00
         21   -1    0    0  503  502  0.00000000000E+00  0.00000000000E+00  0.54624643376E+02  0.54624643376E+02  0.00000000000E+00 0.  1.
         21   -1    0    0  501  503 -0.00000000000E+00 -0.00000000000E+00 -0.75061823310E+03  0.75061823310E+03  0.00000000000E+00 0. -1.
          6    2    1    2  501    0  0.46887820603E+02  0.90843463163E+02 -0.32963620788E+03  0.38592935013E+03  0.17271488420E+03 0.  0.
         24    2    3    3    0    0  0.15746857416E+02  0.35617249374E+02 -0.55978303927E+02  0.10498374565E+03  0.79821453062E+02 0.  0.
         -6    2    1    2    0  502 -0.46887820603E+02 -0.90843463163E+02 -0.36635738184E+03  0.41931352634E+03  0.17650807241E+03 0.  0.
        -24    2    5    5    0    0  0.23752227417E+01  0.16175184868E+02 -0.10202783305E+03  0.12987952898E+03  0.78687578708E+02 0.  0.
          5    1    3    3  501    0  0.31140963187E+02  0.55226213789E+02 -0.27365790396E+03  0.28094560448E+03  0.47000000000E+01 0. -1.
        -13    1    4    4    0    0 -0.18871650463E+02  0.41555207272E+02 -0.93182321448E+01  0.46581153838E+02  0.00000000000E+00 0.  1.
         14    1    4    4    0    0  0.34618507878E+02 -0.59379578983E+01 -0.46660071782E+02  0.58402591813E+02  0.00000000000E+00 0. -1.
         -5    1    5    5    0  502 -0.49263043345E+02 -0.10701864803E+03 -0.26432954879E+03  0.28943399736E+03  0.47000000000E+01 0.  1.
         11    1    6    6    0    0  0.37389088691E+02  0.16120205419E+02 -0.76111206383E+02  0.86317557385E+02  0.00000000000E+00 0. -1.
        -12    1    6    6    0    0 -0.35013865950E+02  0.54979448948E-01 -0.25916626664E+02  0.43561971594E+02  0.00000000000E+00 0.  1.
</event>
<event>
12    1  0.8500177E-002  0.2017924E+03  0.7818608E-02  0.1148529E+00
         21   -1    0    0  503  502  0.00000000000E+00  0.00000000000E+00  0.38211754815E+03  0.38211754815E+03  0.00000000000E+00 0.  1.
         21   -1    0    0  501  503 -0.00000000000E+00 -0.00000000000E+00 -0.11311211687E+03  0.11311211687E+03  0.00000000000E+00 0.  1.
          6    2    1    2  501    0  0.12744654774E+01 -0.10305612754E+03  0.19778976812E+03  0.28256142818E+03  0.17348769016E+03 0.  0.
         24    2    3    3    0    0  0.12495264711E+02  0.14952923628E+01  0.33043830652E+02  0.87061505800E+02  0.79557799797E+02 0.  0.
         -6    2    1    2    0  502 -0.12744654774E+01  0.10305612754E+03  0.71215663158E+02  0.21266823683E+03  0.17185435285E+03 0.  0.
        -24    2    5    5    0    0  0.64259819435E+02  0.75237894127E+02  0.29789040674E+02  0.13016459049E+03  0.79154081177E+02 0.  0.
          5    1    3    3  501    0 -0.11220799233E+02 -0.10455141990E+03  0.16474593747E+03  0.19549992238E+03  0.47000000000E+01 0. -1.
        -11    1    4    4    0    0  0.26657907955E+02 -0.67666018770E+01  0.53912177195E+02  0.60522341391E+02  0.00000000000E+00 0.  1.
         12    1    4    4    0    0 -0.14162643244E+02  0.82618942398E+01 -0.20868346543E+02  0.26539164409E+02  0.00000000000E+00 0. -1.
         -5    1    5    5    0  502 -0.65534284912E+02  0.27818233412E+02  0.41426622484E+02  0.82503646341E+02  0.47000000000E+01 0.  1.
         13    1    6    6    0    0  0.24059012024E+02  0.78039995206E+02  0.36255633908E+02  0.89350701739E+02  0.00000000000E+00 0. -1.
        -14    1    6    6    0    0  0.40200807411E+02 -0.28021010792E+01 -0.64665932341E+01  0.40813888751E+02  0.00000000000E+00 0.  1.
</event>
<event>
12    1  0.8500177E-002  0.2896287E+03  0.7818608E-02  0.1090643E+00
         21   -1    0    0  503  502  0.00000000000E+00  0.00000000000E+00  0.25062266376E+03  0.25062266376E+03  0.00000000000E+00 0.  1.
         21   -1    0    0  501  503 -0.00000000000E+00 -0.00000000000E+00 -0.11402829584E+04  0.11402829584E+04  0.00000000000E+00 0. -1.
          6    2    1    2  501    0 -0.21662443589E+03  0.86908593970E+02 -0.10298601973E+04  0.10698115865E+04  0.17148047879E+03 0.  0.
         24    2    3    3    0    0 -0.14802414204E+03  0.38546656042E+02 -0.89041230528E+03  0.90698443287E+03  0.79935578783E+02 0.  0.
         -6    2    1    2    0  502  0.21662443589E+03 -0.86908593970E+02  0.14019990263E+03  0.32109403573E+03  0.17019435111E+03 0.  0.
        -24    2    5    5    0    0  0.18145834022E+03 -0.11676798747E+03  0.14838015177E+03  0.27400641378E+03  0.80628488882E+02 0.  0.
          5    1    3    3  501    0 -0.68600293853E+02  0.48361937928E+02 -0.13944789202E+03  0.16282715359E+03  0.47000000000E+01 0. -1.
        -11    1    4    4    0    0 -0.67373198721E+02 -0.22940131606E+02 -0.36598808707E+03  0.37284403901E+03  0.00000000000E+00 0.  1.
         12    1    4    4    0    0 -0.80650943321E+02  0.61486787648E+02 -0.52442421821E+03  0.53414039387E+03  0.00000000000E+00 0. -1.
         -5    1    5    5    0  502  0.35166095675E+02  0.29859393501E+02 -0.81802491346E+01  0.47087621953E+02  0.47000000000E+01 0.  1.
         13    1    6    6    0    0  0.11114413925E+03 -0.29840172717E+02  0.51548489363E+02  0.12609798711E+03  0.00000000000E+00 0. -1.
        -14    1    6    6    0    0  0.70314200971E+02 -0.86927814753E+02  0.96831662402E+02  0.14790842667E+03  0.00000000000E+00 0.  1.
</event>
<event>
12    1  0.8500177E-002  0.2261884E+03  0.7818608E-02  0.1130290E+00
         21   -1    0    0  503  502  0.00000000000E+00  0.00000000000E+00  0.35850106656E+04  0.35850106656E+04  0.00000000000E+00 0.  1.
         21   -1    0    0  501  503 -0.00000000000E+00 -0.00000000000E+00 -0.15343114569E+02  0.15343114569E+02  0.00000000000E+00 0. -1.
          6    2    1    2  501    0  0.64237077176E+02 -0.13094518207E+03  0.12606347170E+04  0.12807658128E+04  0.17288185186E+03 0.  0.
         24    2    3    3    0    0  0.92025255223E+02 -0.37626793495E+02  0.64362911717E+03  0.65610710220E+03  0.79584332023E+02 0.  0.
         -6    2    1    2    0  502 -0.64237077176E+02  0.13094518207E+03  0.23090328341E+04  0.23195879674E+04  0.16608030290E+03 0.  0.
        -24    2    5    5    0    0 -0.51755910114E+02  0.13670983848E+03  0.12960839145E+04  0.13065348521E+04  0.76364600262E+02 0.  0.
          5    1    3    3  501    0 -0.27788178047E+02 -0.93318388576E+02  0.61700559984E+03  0.62465871060E+03  0.47000000000E+01 0. -1.
        -13    1    4    4    0    0  0.21018042897E+02 -0.12165509613E+02  0.40746787828E+03  0.40819092295E+03  0.00000000000E+00 0.  1.
         14    1    4    4    0    0  0.71007212327E+02 -0.25461283882E+02  0.23616123888E+03  0.24791617924E+03  0.00000000000E+00 0. -1.
         -5    1    5    5    0  502 -0.12481167062E+02 -0.57646564133E+01  0.10129489196E+04  0.10130531153E+04  0.47000000000E+01 0.  1.
         11    1    6    6    0    0  0.17233856978E+02  0.55242098961E+02  0.49397368591E+03  0.49735168412E+03  0.00000000000E+00 0. -1.
        -12    1    6    6    0    0 -0.68989767092E+02  0.81467739524E+02  0.80211022855E+03  0.80918316795E+03  0.00000000000E+00 0.  1.
</event>
<event>
12    1  0.8500177E-002  0.1744983E+03  0.7818608E-02  0.1173276E+00
         21   -1    0    0  503  502  0.00000000000E+00  0.00000000000E+00  0.12130898796E+03  0.12130898796E+03  0.00000000000E+00 0.  1.
         21   -1    0    0  501  503 -0.00000000000E+00 -0.00000000000E+00 -0.45408186062E+03  0.45408186062E+03  0.00000000000E+00 0.  1.
          6    2    1    2  501    0 -0.23703616606E+02 -0.42793175236E+01 -0.35893039330E+03  0.39909983757E+03  0.17282788871E+03 0.  0.
         24    2    3    3    0    0 -0.16438045341E+01 -0.65040947193E+02 -0.15285903814E+03  0.18307644910E+03  0.76929017734E+02 0.  0.
         -6    2    1    2    0  502  0.23703616606E+02  0.42793175236E+01  0.26157520636E+02  0.17629101101E+03  0.17266768858E+03 0.  0.
        -24    2    5    5    0    0  0.62633471985E+02  0.49391912560E+02  0.60502224508E+01  0.11322696967E+03  0.80132569090E+02 0.  0.
          5    1    3    3  501    0 -0.22059812072E+02  0.60761629670E+02 -0.20607135516E+03  0.21602338847E+03  0.47000000000E+01 0. -1.
        -13    1    4    4    0    0  0.27305382833E+02 -0.12124374785E+02 -0.16868438444E+02  0.34309307937E+02  0.00000000000E+00 0.  1.
         14    1    4    4    0    0 -0.28949187367E+02 -0.52916572409E+02 -0.13599059970E+03  0.14876714117E+03  0.00000000000E+00 0. -1.
         -5    1    5    5    0  502 -0.38929855379E+02 -0.45112595036E+02  0.20107298185E+02  0.63064041347E+02  0.47000000000E+01 0.  1.
         11    1    6    6    0    0  0.37981407894E+02 -0.95802724635E+01  0.25109971739E+02  0.46528267180E+02  0.00000000000E+00 0. -1.
        -12    1    6    6    0    0  0.24652064091E+02  0.58972185024E+02 -0.19059749288E+02  0.66698702486E+02  0.00000000000E+00 0.  1.
</event>
<event>
12    1  0.8500177E-002  0.3610237E+03  0.7818608E-02  0.1058192E+00
         21   -1    0    0  501  502  0.00000000000E+00  0.00000000000E+00  0.13202446220E+03  0.13202446220E+03  0.00000000000E+00 0.  1.
         21   -1    0    0  502  503 -0.00000000000E+00 -0.00000000000E+00 -0.98725231452E+03  0.98725231452E+03  0.00000000000E+00 0. -1.
         -6    2    1    2    0  503  0.27591964726E+03 -0.15647635109E+03 -0.41637482301E+03  0.55100736685E+03  0.17211805508E+03 0.  0.
        -24    2    3    3    0    0  0.14429079907E+03 -0.13726527115E+03 -0.19117629314E+03  0.28941285787E+03  0.86889803093E+02 0.  0.
          6    2    1    2  501    0 -0.27591964726E+03  0.15647635109E+03 -0.43885302931E+03  0.56826940987E+03  0.17239965389E+03 0.  0.
         24    2    5    5    0    0 -0.22117508533E+03  0.57214101368E+02 -0.24924988963E+03  0.34731375401E+03  0.79432137547E+02 0.  0.
          5    1    5    5  501    0 -0.54744561938E+02  0.99262249723E+02 -0.18960313968E+03  0.22095565586E+03  0.47000000000E+01 0. -1.
        -13    1    6    6    0    0 -0.19812048889E+03  0.32022610086E+02 -0.23808428629E+03  0.31138609964E+03  0.00000000000E+00 0.  1.
         14    1    6    6    0    0 -0.23054596438E+02  0.25191491283E+02 -0.11165603346E+02  0.35927654363E+02  0.00000000000E+00 0. -1.
         -5    1    3    3    0  503  0.13162884819E+03 -0.19211079939E+02 -0.22519852987E+03  0.26159450897E+03  0.47000000000E+01 0.  1.
         11    1    4    4    0    0  0.21309834393E+02 -0.76411452159E+02 -0.81720565785E+02  0.11389060512E+03  0.00000000000E+00 0. -1.
        -12    1    4    4    0    0  0.12298096468E+03 -0.60853818994E+02 -0.10945572736E+03  0.17552225275E+03  0.00000000000E+00 0.  1.
</event>
<event>
12    1  0.8500177E-002  0.2153308E+03  0.7818608E-02  0.1137544E+00
         21   -1    0    0  503  502  0.00000000000E+00  0.00000000000E+00  0.37307283026E+03  0.37307283026E+03  0.00000000000E+00 0. -1.
         21   -1    0    0  501  503 -0.00000000000E+00 -0.00000000000E+00 -0.31624842421E+03  0.31624842421E+03  0.00000000000E+00 0. -1.
          6    2    1    2  501    0  0.12275999687E+03  0.35747613583E+02 -0.24040651215E+03  0.32228775407E+03  0.17241286679E+03 0.  0.
         24    2    3    3    0    0  0.44003424591E+02  0.51493872104E+02 -0.51548663302E+02  0.11700765420E+03  0.80284532831E+02 0.  0.
         -6    2    1    2    0  502 -0.12275999687E+03 -0.35747613583E+02  0.29723091820E+03  0.36703350039E+03  0.17326125639E+03 0.  0.
        -24    2    5    5    0    0 -0.84731989230E+02 -0.28435082565E+02  0.75077915788E+02  0.14148162397E+03  0.79951814008E+02 0.  0.
          5    1    3    3  501    0  0.78756572276E+02 -0.15746258521E+02 -0.18885784885E+03  0.20528009988E+03  0.47000000000E+01 0. -1.
        -11    1    4    4    0    0  0.12115408731E+02 -0.11793185985E+02  0.12861633654E+02  0.21243445687E+02  0.00000000000E+00 0.  1.
         12    1    4    4    0    0  0.31888015860E+02  0.63287058089E+02 -0.64410296957E+02  0.95764208508E+02  0.00000000000E+00 0. -1.
         -5    1    5    5    0  502 -0.38028007637E+02 -0.73125310179E+01  0.22215300241E+03  0.22555187642E+03  0.47000000000E+01 0.  1.
         13    1    6    6    0    0 -0.92052925025E+02 -0.44311335710E+02  0.67361256660E+02  0.12237146063E+03  0.00000000000E+00 0. -1.
        -14    1    6    6    0    0  0.73209357953E+01  0.15876253144E+02  0.77166591276E+01  0.19110163341E+02  0.00000000000E+00 0.  1.
</event>
<event>
12    1  0.8500177E-002  0.1939603E+03  0.7818608E-02  0.1155258E+00
         21   -1    0    0  501  502  0.00000000000E+00  0.00000000000E+00  0.78149634629E+02  0.78149634629E+02  0.00000000000E+00 0.  1.
         21   -1    0    0  502  503 -0.00000000000E+00 -0.00000000000E+00 -0.48085013295E+03  0.48085013295E+03  0.00000000000E+00 0.  1.
         -6    2    1    2    0  503  0.87013869926E+02  0.92047360112E+01 -0.22290318621E+03  0.29452354477E+03  0.17147054347E+03 0.  0.
        -24    2    3    3    0    0  0.84434091606E+02  0.66157253378E+02 -0.16417821831E+03  0.21254210574E+03  0.81937545402E+02 0.  0.
          6    2    1    2  501    0 -0.87013869926E+02 -0.92047360112E+01 -0.17979731212E+03  0.26447622281E+03  0.17310245019E+03 0.  0.
         24    2    5    5    0    0 -0.91467172381E+02  0.50640097751E+02 -0.14182576119E+03  0.19330625224E+03  0.79511618620E+02 0.  0.
          5    1    5    5  501    0  0.44533024552E+01 -0.59844833762E+02 -0.37971550928E+02  0.71169970568E+02  0.47000000000E+01 0. -1.
        -11    1    6    6    0    0 -0.36060932888E+02 -0.69315602034E+01 -0.82185200997E+01  0.37629529365E+02  0.00000000000E+00 0.  1.
         12    1    6    6    0    0 -0.55406239493E+02  0.57571657954E+02 -0.13360724109E+03  0.15567672288E+03  0.00000000000E+00 0. -1.
         -5    1    3    3    0  503  0.25797783196E+01 -0.56952517367E+02 -0.58724967900E+02  0.81981439030E+02  0.47000000000E+01 0.  1.
         11    1    4    4    0    0  0.72114142457E+02  0.59734177767E+02 -0.68903552748E+02  0.11625971408E+03  0.00000000000E+00 0. -1.
        -12    1    4    4    0    0  0.12319949149E+02  0.64230756115E+01 -0.95274665559E+02  0.96282391665E+02  0.00000000000E+00 0.  1.
</event>
<event>
12    1  0.8500177E-002  0.1878558E+03  0.7818608E-02  0.1160498E+00
         21   -1    0    0  501  502  0.00000000000E+00  0.00000000000E+00  0.10061649946E+03  0.10061649946E+03  0.00000000000E+00 0. -1.
         21   -1    0    0  502  503 -0.00000000000E+00 -0.00000000000E+00 -0.73298112433E+03  0.73298112433E+03  0.00000000000E+00 0. -1.
         -6    2    1    2    0  503  0.63494067052E+02 -0.44595201450E+02 -0.61729980975E+03  0.64513876404E+03  0.17065972344E+03 0.  0.
        -24    2    3    3    0    0  0.29479536792E+02 -0.25806903261E+02 -0.13774383026E+03  0.16398804349E+03  0.79897911662E+02 0.  0.
          6    2    1    2  501    0 -0.63494067052E+02  0.44595201450E+02 -0.15064815119E+02  0.18845885974E+03  0.17108350189E+03 0.  0.
         24    2    5    5    0    0 -0.55347689515E+02  0.10485050026E+02 -0.73207848924E+02  0.12039588686E+03  0.77217079853E+02 0.  0.
          5    1    5    5  501    0 -0.81463775366E+01  0.34110151424E+02  0.58143033805E+02  0.68062972879E+02  0.47000000000E+01 0. -1.
        -13    1    6    6    0    0  0.17963270209E+02 -0.32354551758E+01 -0.27222288562E+02  0.32774994147E+02  0.00000000000E+00 0.  1.
         14    1    6    6    0    0 -0.73310959724E+02  0.13720505202E+02 -0.45985560362E+02  0.87620892716E+02  0.00000000000E+00 0. -1.
         -5    1    3    3    0  503  0.34014530259E+02 -0.18788298189E+02 -0.47955597950E+03  0.48115072055E+03  0.47000000000E+01 0.  1.
         11    1    4    4    0    0  0.74156355407E+01  0.93000589856E+01 -0.11703827161E+03  0.11764114828E+03  0.00000000000E+00 0. -1.
        -12    1    4    4    0    0  0.22063901252E+02 -0.35106962246E+02 -0.20705558650E+02  0.46346895210E+02  0.00000000000E+00 0.  1.
</event>
<event>
12    1  0.8500177E-002  0.1739073E+03  0.7818608E-02  0.1174010E+00
         21   -1    0    0  503  502  0.00000000000E+00  0.00000000000E+00  0.21071603466E+03  0.21071603466E+03  0.00000000000E+00 0.  1.
         21   -1    0    0  501  503 -0.00000000000E+00 -0.00000000000E+00 -0.50912230760E+03  0.50912230760E+03  0.00000000000E+00 0.  1.
          6    2    1    2  501    0 -0.18178134706E+02  0.14193418061E+02 -0.45452175963E+03  0.48665571599E+03  0.17237128018E+03 0.  0.
         24    2    3    3    0    0 -0.63387998573E+02  0.32463646215E+02 -0.39626009804E+03  0.41053578273E+03  0.80284724056E+02 0.  0.
         -6    2    1    2    0  502  0.18178134706E+02 -0.14193418061E+02  0.15611548669E+03  0.23318262628E+03  0.17166885074E+03 0.  0.
        -24    2    5    5    0    0 -0.21850936276E+02 -0.64012374272E+02  0.11930523226E+03  0.15928174839E+03  0.81005490241E+02 0.  0.
          5    1    3    3  501    0  0.45209863867E+02 -0.18270228154E+02 -0.58261661588E+02  0.76119933254E+02  0.47000000000E+01 0. -1.
        -11    1    4    4    0    0 -0.54123766180E+02  0.42376285817E+02 -0.38923295376E+03  0.39525614980E+03  0.00000000000E+00 0.  1.
         12    1    4    4    0    0 -0.92642323930E+01 -0.99126396021E+01 -0.70271442803E+01  0.15279632929E+02  0.00000000000E+00 0. -1.
         -5    1    5    5    0  502  0.40029070982E+02  0.49818956211E+02  0.36810254430E+02  0.73900877890E+02  0.47000000000E+01 0.  1.
         13    1    6    6    0    0 -0.51631220483E+02 -0.35960597059E+02  0.57969181952E+02  0.85553337314E+02  0.00000000000E+00 0. -1.
        -14    1    6    6    0    0  0.29780284207E+02 -0.28051777213E+02  0.61336050306E+02  0.73728411073E+02  0.00000000000E+00 0.  1.
</event>
<event>
12    1  0.8500177E-002  0.2405978E+03  0.7818608E-02  0.1119633E+00
         21   -1    0    0  503  502  0.00000000000E+00  0.00000000000E+00  0.24592690184E+03  0.24592690184E+03  0.00000000000E+00 0.  1.
         21   -1    0    0  501  503 -0.00000000000E+00 -0.00000000000E+00 -0.70734067043E+03  0.70734067043E+03  0.00000000000E+00 0.  1.
          6    2    1    2  501    0 -0.17063082808E+03 -0.19032007535E+02 -0.62038658501E+03  0.66489344169E+03  0.16651329418E+03 0.  0.
         24    2    3    3    0    0 -0.37536391546E+02  0.11292662034E+02 -0.15307136842E+03  0.17802660540E+03  0.82012947117E+02 0.  0.
         -6    2    1    2    0  502  0.17063082808E+03  0.19032007535E+02  0.15897281642E+03  0.28837413058E+03  0.16855321422E+03 0.  0.
        -24    2    5    5    0    0  0.58576724249E+02  0.65615873449E+02  0.86404588457E+02  0.14690181364E+03  0.79860593990E+02 0.  0.
          5    1    3    3  501    0 -0.13309443654E+03 -0.30324669568E+02 -0.46731521659E+03  0.48686683629E+03  0.47000000000E+01 0. -1.
        -11    1    4    4    0    0 -0.58778209782E+02  0.35413102540E+01 -0.14006822386E+03  0.15194250939E+03  0.00000000000E+00 0.  1.
         12    1    4    4    0    0  0.21241818236E+02  0.77513517796E+01 -0.13003144556E+02  0.26084096012E+02  0.00000000000E+00 0. -1.
         -5    1    5    5    0  502  0.11205410383E+03 -0.46583865914E+02  0.72568227963E+02  0.14147231694E+03  0.47000000000E+01 0.  1.
         13    1    6    6    0    0  0.55775188842E+01  0.38736012776E+02  0.77488859036E+02  0.86810775123E+02  0.00000000000E+00 0. -1.
        -14    1    6    6    0    0  0.52999205365E+02  0.26879860672E+02  0.89157294206E+01  0.60091038518E+02  0.00000000000E+00 0.  1.
</event>
<event>
12    1  0.8500177E-002  0.2140342E+03  0.7818608E-02  0.1138496E+00
         21   -1    0    0  503  502  0.00000000000E+00  0.00000000000E+00  0.89381792697E+03  0.89381792697E+03  0.00000000000E+00 0.  1.
         21   -1    0    0  501  503 -0.00000000000E+00 -0.00000000000E+00 -0.51413128674E+02  0.51413128674E+02  0.00000000000E+00 0. -1.
          6    2    1    2  501    0  0.10733818551E+03  0.66653208102E+02  0.45567390351E+03  0.50343754122E+03  0.17276144059E+03 0.  0.
         24    2    3    3    0    0  0.12312625507E+03  0.20070924929E+01  0.29414615681E+03  0.32867574231E+03  0.79634658996E+02 0.  0.
         -6    2    1    2    0  502 -0.10733818551E+03 -0.66653208102E+02  0.38673089479E+03  0.44179351442E+03  0.17221088288E+03 0.  0.
        -24    2    5    5    0    0  0.11171284869E+01 -0.32174208768E+02  0.97242682372E+02  0.13070370158E+03  0.81184300482E+02 0.  0.
          5    1    3    3  501    0 -0.15788069558E+02  0.64646115609E+02  0.16152774670E+03  0.17476179891E+03  0.47000000000E+01 0. -1.
        -11    1    4    4    0    0  0.64368576500E+02  0.18041803562E+00  0.24092961082E+03  0.24938007852E+03  0.00000000000E+00 0.  1.
         12    1    4    4    0    0  0.58757678565E+02  0.18266744572E+01  0.53216545988E+02  0.79295663796E+02  0.00000000000E+00 0. -1.
         -5    1    5    5    0  502 -0.10845531399E+03 -0.34478999334E+02  0.28948821241E+03  0.31108981284E+03  0.47000000000E+01 0.  1.
         11    1    6    6    0    0 -0.36215164156E+02  0.24075291885E+01  0.36719570796E+02  0.51630041556E+02  0.00000000000E+00 0. -1.
        -12    1    6    6    0    0  0.37332292643E+02 -0.34581737957E+02  0.60523111576E+02  0.79073660020E+02  0.00000000000E+00 0.  1.
</event>
<event>
12    1  0.8500177E-002  0.1889061E+03  0.7818608E-02  0.1161813E+00
         21   -1    0    0  503  502  0.00000000000E+00  0.00000000000E+00  0.21442732954E+03  0.21442732954E+03  0.00000000000E+00 0.  1.
         21   -1    0    0  501  503 -0.00000000000E+00 -0.00000000000E+00 -0.56179505662E+03  0.56179505662E+03  0.00000000000E+00 0.  1.
          6    2    1    2  501    0 -0.47765455465E+02  0.10500928886E+02 -0.50416795905E+03  0.53839656495E+03  0.18246567343E+03 0.  0.
         24    2    3    3    0    0 -0.73427800510E+02  0.67501417827E+02 -0.32542240409E+03  0.34897725467E+03  0.77053876561E+02 0.  0.
         -6    2    1    2    0  502  0.47765455465E+02 -0.10500928886E+02  0.15680023197E+03  0.23782582121E+03  0.17199709372E+03 0.  0.
        -24    2    5    5    0    0 -0.10759259468E+02 -0.53439081815E+02  0.12025065557E+03  0.15642073065E+03  0.83879244648E+02 0.  0.
          5    1    3    3  501    0  0.25662345045E+02 -0.57000488941E+02 -0.17874555496E+03  0.18941931029E+03  0.47000000000E+01 0. -1.
        -11    1    4    4    0    0 -0.45028154604E+02  0.62076487825E+02 -0.30253063280E+03  0.31209903690E+03  0.00000000000E+00 0.  1.
         12    1    4    4    0    0 -0.28399645906E+02  0.54249300026E+01 -0.22891771288E+02  0.36878217769E+02  0.00000000000E+00 0. -1.
         -5    1    5    5    0  502  0.58524714933E+02  0.42938152928E+02  0.36549576392E+02  0.81405090561E+02  0.47000000000E+01 0.  1.
         13    1    6    6    0    0 -0.16085376026E+02  0.75286881137E+01  0.82773563598E+02  0.84657446792E+02  0.00000000000E+00 0. -1.
        -14    1    6    6    0    0  0.53261165586E+01 -0.60967769928E+02  0.37477091976E+02  0.71763283861E+02  0.00000000000E+00 0.  1.
</event>
<event>
12    1  0.8500177E-002  0.1990949E+03  0.7818608E-02  0.1150621E+00
         21   -1    0    0  501  502  0.00000000000E+00  0.00000000000E+00  0.95559196853E+03  0.95559196853E+03  0.00000000000E+00 0. -1.
         21   -1    0    0  502  503 -0.00000000000E+00 -0.00000000000E+00 -0.50885088310E+02  0.50885088310E+02  0.00000000000E+00 0. -1.
         -6    2    1    2    0  503 -0.97143296885E+02 -0.20396173335E+02  0.23419765034E+03  0.30703341494E+03  0.17195393118E+03 0.  0.
        -24    2    3    3    0    0 -0.34349166999E+02 -0.27090995526E+02  0.33686551342E+02  0.96760463248E+02  0.79460784005E+02 0.  0.
          6    2    1    2  501    0  0.97143296885E+02  0.20396173335E+02  0.67050922988E+03  0.69944364190E+03  0.17258608525E+03 0.  0.
         24    2    5    5    0    0  0.22281230781E+02  0.36110846858E+02  0.54439851689E+03  0.55187236476E+03  0.79955708296E+02 0.  0.
          5    1    5    5  501    0  0.74862066104E+02 -0.15714673522E+02  0.12611071300E+03  0.14757127714E+03  0.47000000000E+01 0. -1.
        -13    1    6    6    0    0 -0.13233733048E+02  0.27575498737E+02  0.74195921796E+02  0.80253190791E+02  0.00000000000E+00 0.  1.
         14    1    6    6    0    0  0.35514963829E+02  0.85353481211E+01  0.47020259509E+03  0.47161917397E+03  0.00000000000E+00 0. -1.
         -5    1    3    3    0  503 -0.62794129887E+02  0.66948221903E+01  0.20051109900E+03  0.21027295169E+03  0.47000000000E+01 0.  1.
         11    1    4    4    0    0 -0.57723726457E+02 -0.32994838409E+02  0.22593610274E+02  0.70222212888E+02  0.00000000000E+00 0. -1.
        -12    1    4    4    0    0  0.23374559458E+02  0.59038428830E+01  0.11092941068E+02  0.26538250360E+02  0.00000000000E+00 0.  1.
</event>
<event>
12    1  0.8500177E-002  0.2255927E+03  0.7818608E-02  0.1129892E+00
         21   -1    0    0  501  502  0.00000000000E+00  0.00000000000E+00  0.45208811219E+02  0.45208811219E+02  0.00000000000E+00 0. -1.
         21   -1    0    0  502  503 -0.00000000000E+00 -0.00000000000E+00 -0.13075737282E+04  0.13075737282E+04  0.00000000000E+00 0.  1.
         -6    2    1    2    0  503 -0.10048773079E+02 -0.14548140355E+03 -0.88628361875E+03  0.91454398528E+03  0.17212272229E+03 0.  0.
        -24    2    3    3    0    0  0.41814460967E+02 -0.11185945126E+03 -0.44806403901E+03  0.47196210495E+03  0.87896868436E+02 0.  0.
          6    2    1    2  501    0  0.10048773079E+02  0.14548140355E+03 -0.37608129822E+03  0.43823855413E+03  0.17131862372E+03 0.  0.
         24    2    5    5    0    0  0.70899016354E+02  0.11522562546E+03 -0.29492631904E+03  0.33228391827E+03  0.71606238512E+02 0.  0.
          5    1    5    5  501    0 -0.60850243275E+02  0.30255778093E+02 -0.81154979185E+02  0.10595463586E+03  0.47000000000E+01 0. -1.
        -13    1    6    6    0    0  0.13335288888E+02  0.80885466611E+02 -0.19933937304E+03  0.21553764006E+03  0.00000000000E+00 0.  1.
         14    1    6    6    0    0  0.57563727466E+02  0.34340158851E+02 -0.95586945997E+02  0.11674627821E+03  0.00000000000E+00 0. -1.
         -5    1    3    3    0  503 -0.51863234047E+02 -0.33621952295E+02 -0.43821957974E+03  0.44258188033E+03  0.47000000000E+01 0.  1.
         11    1    4    4    0    0 -0.34567405258E+01 -0.47700696633E+02 -0.63679154565E+02  0.79638811144E+02  0.00000000000E+00 0. -1.
        -12    1    4    4    0    0  0.45271201493E+02 -0.64158754627E+02 -0.38438488444E+03  0.39232329381E+03  0.00000000000E+00 0.  1.
</event>
<event>
12    1  0.8500177E-002  0.1811572E+03  0.7818608E-02  0.1166961E+00
         21   -1    0    0  503  502  0.00000000000E+00  0.00000000000E+00  0.14780394678E+03  0.14780394678E+03  0.00000000000E+00 0.  1.
         21   -1    0    0  501  503 -0.00000000000E+00 -0.00000000000E+00 -0.13623363401E+04  0.13623363401E+04  0.00000000000E+00 0.  1.
          6    2    1    2  501    0 -0.44987233880E+02  0.26999745149E+02 -0.12987980670E+04  0.13113711758E+04  0.17339291926E+03 0.  0.
         24    2    3    3    0    0  0.13843273765E+02 -0.40967815921E+02 -0.68102996267E+03  0.68707946618E+03  0.80039893915E+02 0.  0.
         -6    2    1    2    0  502  0.44987233880E+02 -0.26999745149E+02  0.84265673681E+02  0.19876911108E+03  0.17220806691E+03 0.  0.
        -24    2    5    5    0    0  0.20702857801E+02  0.37568479706E+02  0.91867008666E+02  0.12920865625E+03  0.80095758816E+02 0.  0.
          5    1    3    3  501    0 -0.58830507645E+02  0.67967561070E+02 -0.61776810437E+03  0.62429170967E+03  0.47000000000E+01 0. -1.
        -13    1    4    4    0    0 -0.12282241736E+02 -0.34409476342E+02 -0.12084548807E+03  0.12624776240E+03  0.00000000000E+00 0.  1.
         14    1    4    4    0    0  0.26125515501E+02 -0.65583395788E+01 -0.56018447460E+03  0.56083170378E+03  0.00000000000E+00 0. -1.
         -5    1    5    5    0  502  0.24284376079E+02 -0.64568224855E+02 -0.76013349849E+01  0.69560454829E+02  0.47000000000E+01 0.  1.
         13    1    6    6    0    0  0.46118229224E+02  0.11396137640E+02  0.26620889483E+02  0.54455805721E+02  0.00000000000E+00 0. -1.
        -14    1    6    6    0    0 -0.25415371423E+02  0.26172342066E+02  0.65246119183E+02  0.74752850529E+02  0.00000000000E+00 0.  1.
</event>
<event>
12    1  0.8500177E-002  0.2000151E+03  0.7818608E-02  0.1150101E+00
         21   -1    0    0  501  502  0.00000000000E+00  0.00000000000E+00  0.14863327010E+03  0.14863327010E+03  0.00000000000E+00 0. -1.
         21   -1    0    0  502  503 -0.00000000000E+00 -0.00000000000E+00 -0.44889501241E+03  0.44889501241E+03  0.00000000000E+00 0.  1.
         -6    2    1    2    0  503 -0.86676627000E+02  0.46418526825E+02 -0.34002755322E+03  0.39359848979E+03  0.17214388433E+03 0.  0.
        -24    2    3    3    0    0 -0.94248316191E+02 -0.17059077807E+02 -0.16016635155E+03  0.20265640790E+03  0.79010140202E+02 0.  0.
          6    2    1    2  501    0  0.86676627000E+02 -0.46418526825E+02  0.39765810916E+02  0.20392979273E+03  0.17417957212E+03 0.  0.
         24    2    5    5    0    0  0.80576705655E+02 -0.91104025346E+02  0.56557503450E+02  0.15557636723E+03  0.78820720098E+02 0.  0.
          5    1    5    5  501    0  0.60999213451E+01  0.44685498521E+02 -0.16791692534E+02  0.48353425491E+02  0.47000000000E+01 0. -1.
        -11    1    6    6    0    0  0.48937877187E+02 -0.30988461175E+02 -0.11899064164E+02  0.59133647592E+02  0.00000000000E+00 0.  1.
         12    1    6    6    0    0  0.31638828469E+02 -0.60115564171E+02  0.68456567615E+02  0.96442719642E+02  0.00000000000E+00 0. -1.
         -5    1    3    3    0  503  0.75716891909E+01  0.63477604632E+02 -0.17986120168E+03  0.19094208189E+03  0.47000000000E+01 0.  1.
         11    1    4    4    0    0 -0.36024844688E+02 -0.16904567052E+02 -0.13220976734E+03  0.13806873796E+03  0.00000000000E+00 0. -1.
        -12    1    4    4    0    0 -0.58223471503E+02 -0.15451075529E+00 -0.27956584202E+02  0.64587669936E+02  0.00000000000E+00 0.  1.
</event>
<event>
12    1  0.8500177E-002  0.1804245E+03  0.7818608E-02  0.1167572E+00
         21   -1    0    0  501  502  0.00000000000E+00  0.00000000000E+00  0.19403759154E+03  0.19403759154E+03  0.00000000000E+00 0. -1.
         21   -1    0    0  502  503 -0.00000000000E+00 -0.00000000000E+00 -0.20321714587E+03  0.20321714587E+03  0.00000000000E+00 0. -1.
         -6    2    1    2    0  503  0.30225397639E+02 -0.39044104260E+02 -0.88341900511E+02  0.20022763298E+03  0.17276804358E+03 0.  0.
        -24    2    3    3    0    0 -0.43988097244E+02 -0.27044449265E+02 -0.80234095019E+02  0.12446840217E+03  0.79928206538E+02 0.  0.
          6    2    1    2  501    0 -0.30225397639E+02  0.39044104260E+02  0.79162346180E+02  0.19702710443E+03  0.17353669954E+03 0.  0.
         24    2    5    5    0    0 -0.48658911917E+01  0.17114471001E+02  0.11904311673E+03  0.14471478043E+03  0.80340039957E+02 0.  0.
          5    1    5    5  501    0 -0.25359506448E+02  0.21929633259E+02 -0.39880770549E+02  0.52312323995E+02  0.47000000000E+01 0. -1.
        -13    1    6    6    0    0  0.26819682526E+02  0.84786570933E+01  0.84818559658E+01  0.29378987006E+02  0.00000000000E+00 0.  1.
         14    1    6    6    0    0 -0.31685573718E+02  0.86358139079E+01  0.11056126076E+03  0.11533579343E+03  0.00000000000E+00 0. -1.
         -5    1    3    3    0  503  0.74213494883E+02 -0.11999654995E+02 -0.81078054920E+01  0.75759230809E+02  0.47000000000E+01 0.  1.
         13    1    4    4    0    0  0.56358437432E+01 -0.18581826340E+02 -0.70590753916E+02  0.73212714355E+02  0.00000000000E+00 0. -1.
        -14    1    4    4    0    0 -0.49623940987E+02 -0.84626229247E+01 -0.96433411025E+01  0.51255687816E+02  0.00000000000E+00 0.  1.
</event>
<event>
12    1  0.8500177E-002  0.2029753E+03  0.7818608E-02  0.1149354E+00
         21   -1    0    0  503  502  0.00000000000E+00  0.00000000000E+00  0.75018969144E+02  0.75018969144E+02  0.00000000000E+00 0. -1.
         21   -1    0    0  501  503 -0.00000000000E+00 -0.00000000000E+00 -0.52789512865E+03  0.52789512865E+03  0.00000000000E+00 0. -1.
          6    2    1    2  501    0  0.10821839239E+03  0.73559818980E+01 -0.20230472454E+03  0.28657667818E+03  0.17156240843E+03 0.  0.
         24    2    3    3    0    0  0.11953910399E+03  0.34613311897E+02 -0.10206504051E+03  0.18197646401E+03  0.84914558336E+02 0.  0.
         -6    2    1    2    0  502 -0.10821839239E+03 -0.73559818980E+01 -0.25057143497E+03  0.31633741961E+03  0.15974350724E+03 0.  0.
        -24    2    5    5    0    0 -0.86902532566E+02 -0.36008832683E+02 -0.25203448030E+03  0.28028770062E+03  0.78683731855E+02 0.  0.
          5    1    3    3  501    0 -0.11320711601E+02 -0.27257329999E+02 -0.10023968403E+03  0.10460021417E+03  0.47000000000E+01 0. -1.
        -11    1    4    4    0    0  0.20800553691E+02 -0.36481467406E+01  0.13631948766E+02  0.25135672572E+02  0.00000000000E+00 0.  1.
         12    1    4    4    0    0  0.98738550296E+02  0.38261458638E+02 -0.11569698928E+03  0.15684079144E+03  0.00000000000E+00 0. -1.
         -5    1    5    5    0  502 -0.21315859820E+02  0.28652850785E+02  0.14630453374E+01  0.36049718995E+02  0.47000000000E+01 0.  1.
         13    1    6    6    0    0 -0.36387832682E+02  0.11225849452E+02 -0.32322427810E+02  0.49948307306E+02  0.00000000000E+00 0. -1.
        -14    1    6    6    0    0 -0.50514699884E+02 -0.47234682135E+02 -0.21971205249E+03  0.23033939331E+03  0.00000000000E+00 0.  1.
</event>
<event>
12    1  0.8500177E-002  0.2158451E+03  0.7818608E-02  0.1137916E+00
         21   -1    0    0  501  502  0.00000000000E+00  0.00000000000E+00  0.51680622389E+03  0.51680622389E+03  0.00000000000E+00 0.  1.
         21   -1    0    0  502  503 -0.00000000000E+00 -0.00000000000E+00 -0.42951484117E+03  0.42951484117E+03  0.00000000000E+00 0.  1.
         -6    2    1    2    0  503 -0.10506441134E+02 -0.12920624729E+03 -0.37802946422E+03  0.43531067604E+03  0.17258177543E+03 0.  0.
        -24    2    3    3    0    0  0.30305635794E+02 -0.11577830265E+03 -0.36191841821E+03  0.38918485763E+03  0.78465693413E+02 0.  0.
          6    2    1    2  501    0  0.10506441134E+02  0.12920624729E+03  0.46532084693E+03  0.51101038902E+03  0.16674377785E+03 0.  0.
         24    2    5    5    0    0  0.58964920602E+02  0.71970454925E+02  0.19249305046E+03  0.22802407012E+03  0.79276691604E+02 0.  0.
          5    1    5    5  501    0 -0.48458479468E+02  0.57235792362E+02  0.27282779647E+03  0.28298631890E+03  0.47000000000E+01 0. -1.
        -13    1    6    6    0    0  0.53435292858E+02  0.52065043993E+02  0.19345493656E+03  0.20734249880E+03  0.00000000000E+00 0.  1.
         14    1    6    6    0    0  0.55296277438E+01  0.19905410932E+02 -0.96188609426E+00  0.20681571319E+02  0.00000000000E+00 0. -1.
         -5    1    3    3    0  503 -0.40812076928E+02 -0.13427944640E+02 -0.16111046007E+02  0.46125818409E+02  0.47000000000E+01 0.  1.
         13    1    4    4    0    0  0.38441038169E+02 -0.10112858174E+03 -0.20891160584E+03  0.23526317713E+03  0.00000000000E+00 0. -1.
        -14    1    4    4    0    0 -0.81354023749E+01 -0.14649720905E+02 -0.15300681238E+03  0.15392168050E+03  0.00000000000E+00 0.  1.
</event>
<event>
12    1  0.8500177E-002  0.1938395E+03  0.7818608E-02  0.1155318E+00
         21   -1    0    0  503  502  0.00000000000E+00  0.00000000000E+00  0.97793429176E+02  0.97793429176E+02  0.00000000000E+00 0.  1.
         21   -1    0    0  501  503 -0.00000000000E+00 -0.00000000000E+00 -0.47449362346E+03  0.47449362346E+03  0.00000000000E+00 0.  1.
          6    2    1    2  501    0 -0.37562795084E+02 -0.78638453678E+02 -0.31436710476E+03  0.36867184734E+03  0.17174773505E+03 0.  0.
         24    2    3    3    0    0 -0.78861390244E+01 -0.96305310670E+02 -0.13561621613E+03  0.18655432502E+03  0.84106206991E+02 0.  0.
         -6    2    1    2    0  502  0.37562795084E+02  0.78638453678E+02 -0.62333089528E+02  0.20361520530E+03  0.17314377785E+03 0.  0.
        -24    2    5    5    0    0 -0.46742678198E+02  0.49624655272E+02 -0.36861127287E+02  0.11077058142E+03  0.79144770051E+02 0.  0.
          5    1    3    3  501    0 -0.29676656060E+02  0.17666856992E+02 -0.17875088863E+03  0.18211752232E+03  0.47000000000E+01 0. -1.
        -13    1    4    4    0    0  0.26271280006E+01 -0.12953264688E+02  0.11250183735E+02  0.17356713447E+02  0.00000000000E+00 0.  1.
         14    1    4    4    0    0 -0.10513267025E+02 -0.83352045981E+02 -0.14686639987E+03  0.16919761157E+03  0.00000000000E+00 0. -1.
         -5    1    5    5    0  502  0.84305473281E+02  0.29013798406E+02 -0.25471962240E+02  0.92844623881E+02  0.47000000000E+01 0.  1.
         11    1    6    6    0    0 -0.11390706220E+02 -0.21861633577E+02 -0.71672154996E+01  0.25671933875E+02  0.00000000000E+00 0. -1.
        -12    1    6    6    0    0 -0.35351971978E+02  0.71486288849E+02 -0.29693911788E+02  0.85098647542E+02  0.00000000000E+00 0.  1.
</event>
